  -1.42500000000000         0.000000000000000E+000
  -1.23500000000000         3.402790903134312E-014
  -1.04500000000000         3.754303444143594E-013
 -0.855000000000000         2.414073248781560E-012
 -0.665000000000000         1.128692919878642E-011
 -0.475000000000000         4.365374101175768E-011
 -0.285000000000000         1.433901138692497E-010
 -9.499999999999975E-002    4.106225541684803E-010
  9.500000000000020E-002    1.039595821091786E-009
  0.285000000000000         2.342312983696895E-009
  0.475000000000000         4.761106578096097E-009
  0.665000000000000         8.795323770749672E-009
  0.855000000000000         1.497671912507405E-008
   1.04500000000000         2.366184030179621E-008
   1.23500000000000         3.500948542292705E-008
   1.42500000000000         4.882111537653644E-008
   1.61500000000000         6.455656945471746E-008
   1.80500000000000         8.137723994051195E-008
   1.99500000000000         9.818257854027482E-008
   2.18500000000000         1.138312360720617E-007
   2.37500000000000         1.270832669406713E-007
   2.56500000000000         1.371805197054801E-007
   2.75500000000000         1.433225015332029E-007
   2.94500000000000         1.458471630241007E-007
   3.13500000000000         1.429171974889301E-007
   3.32500000000000         1.341844940604548E-007
   3.51500000000000         1.194680124172780E-007
   3.70500000000000         9.890147681370311E-008
   3.89500000000000         7.314555653600343E-008
   4.08500000000000         4.376321178895143E-008
   4.27500000000000         1.326380541576144E-008
   4.46500000000000        -1.495703615441811E-008
   4.65500000000000        -3.692152871559873E-008
   4.84500000000000        -4.835931899776304E-008
   5.03500000000000        -4.550398604980505E-008
   5.22500000000000        -2.556209998836425E-008
   5.41500000000000         1.289990100470326E-008
   5.60500000000000         6.894911927172376E-008
   5.79500000000000         1.405260613272960E-007
   5.98500000000000         2.224237330041414E-007
   6.17500000000000         3.082025850690642E-007
   6.36500000000000         3.919374494235916E-007
   6.55500000000000         4.671992274331593E-007
   6.74500000000000         5.277277008982361E-007
   6.93500000000000         5.707833382799143E-007
   7.12500000000000         5.933013935277708E-007
   7.31500000000000         5.946406878007962E-007
   7.50500000000000         5.756650020090879E-007
   7.69500000000000         5.372488322746808E-007
   7.88500000000000         4.838276469966379E-007
   8.07500000000000         4.183531622973147E-007
   8.26500000000000         3.486263696280682E-007
   8.45500000000000         2.706350081345570E-007
   8.64500000000000         1.949335595274150E-007
   8.83500000000000         1.197032944611456E-007
   9.02500000000000         5.153313723790237E-008
   9.21500000000000        -3.550071486498366E-009
   9.40500000000000        -4.224154017230359E-008
   9.59500000000000        -6.006649120761643E-008
   9.78500000000000        -5.194092587544650E-008
   9.97500000000000        -2.057683641397070E-008
   10.1650000000000         3.651761550661044E-008
   10.3550000000000         1.153470174027778E-007
   10.5450000000000         2.103131873522856E-007
   10.7350000000000         3.143846919139981E-007
   10.9250000000000         4.173118634615529E-007
   11.1150000000000         5.065486353820886E-007
   11.3050000000000         5.756944061950729E-007
   11.4950000000000         6.185789035777868E-007
   11.6850000000000         6.340156248270781E-007
   11.8750000000000         6.217975017059900E-007
   12.0650000000000         5.838168664369416E-007
   12.2550000000000         5.286611048464009E-007
   12.4450000000000         4.630108320047788E-007
   12.6350000000000         3.948138259437712E-007
   12.8250000000000         3.313881991043810E-007
   13.0150000000000         2.819888736602514E-007
   13.2050000000000         2.428765991763344E-007
   13.3950000000000         2.254999432669322E-007
   13.5850000000000         2.191820607874943E-007
   13.7750000000000         2.332446459792844E-007
   13.9650000000000         2.631662979971641E-007
   14.1550000000000         3.087486348391094E-007
   14.3450000000000         3.722392056558015E-007
   14.5350000000000         4.532647597348296E-007
   14.7250000000000         5.503810202075472E-007
   14.9150000000000         6.598835128052394E-007
   15.1050000000000         7.769179811731717E-007
   15.2950000000000         8.891082880764262E-007
   15.4850000000000         9.867113944832271E-007
   15.6750000000000         1.061065143515425E-006
   15.8650000000000         1.102686447200427E-006
   16.0550000000000         1.105265545765953E-006
   16.2450000000000         1.065460215346102E-006
   16.4350000000000         9.819336314778117E-007
   16.6250000000000         8.624902668229853E-007
   16.8150000000000         7.171733929355289E-007
   17.0050000000000         5.584568074657285E-007
   17.1950000000000         3.995727385489151E-007
   17.3850000000000         2.527636415072610E-007
   17.5750000000000         1.286781831460548E-007
   17.7650000000000         3.425131805711919E-008
   17.9550000000000        -3.076724292371514E-008
   18.1450000000000        -6.901314020717514E-008
   18.3350000000000        -8.157151920360208E-008
   18.5250000000000        -7.212011536322890E-008
   18.7150000000000        -5.245480730199272E-008
   18.9050000000000        -2.013945834403629E-008
   19.0950000000000         2.234104865821616E-008
   19.2850000000000         7.467350459332389E-008
   19.4750000000000         1.363035907250330E-007
   19.6650000000000         2.057519554706037E-007
   19.8550000000000         2.797518447625875E-007
   20.0450000000000         3.531920625669551E-007
   20.2350000000000         4.153647615945434E-007
   20.4250000000000         4.581776328566190E-007
   20.6150000000000         4.742695736631922E-007
   20.8050000000000         4.597477292115255E-007
   20.9950000000000         4.071090662039802E-007
   21.1850000000000         3.211904078120543E-007
   21.3750000000000         2.051453310103920E-007
   21.5650000000000         6.925869833769064E-008
   21.7550000000000        -7.394469347026618E-008
   21.9450000000000        -2.106360778207598E-007
   22.1350000000000        -3.284045159586656E-007
   22.3250000000000        -4.177879400414823E-007
   22.5150000000000        -4.739863705140293E-007
   22.7050000000000        -4.977934831140231E-007
   22.8950000000000        -4.875023007656374E-007
   23.0850000000000        -4.591019434554799E-007
   23.2750000000000        -4.144484097774931E-007
   23.4650000000000        -3.603811371139736E-007
   23.6550000000000        -3.030620526314466E-007
   23.8450000000000        -2.540101421134886E-007
   24.0350000000000        -2.032895127053318E-007
   24.2250000000000        -1.514690427360028E-007
   24.4150000000000        -9.809626249171448E-008
   24.6050000000000        -4.432505022780543E-008
   24.7950000000000         1.558526736699262E-008
   24.9850000000000         7.457122588047693E-008
   25.1750000000000         1.245377165675463E-007
   25.3650000000000         1.600994892430651E-007
   25.5550000000000         1.730542303458342E-007
   25.7450000000000         1.598879338172260E-007
   25.9350000000000         1.207032307416764E-007
   26.1250000000000         5.969692085812368E-008
   26.3150000000000        -1.546810274472385E-008
   26.5050000000000        -8.920277026284661E-008
   26.6950000000000        -1.489562729153041E-007
   26.8850000000000        -1.838350587349366E-007
   27.0750000000000        -1.856129464339381E-007
   27.2650000000000        -1.483730033732935E-007
   27.4550000000000        -6.900409455698811E-008
   27.6450000000000         4.546132287432607E-008
   27.8350000000000         1.878459587462392E-007
   28.0250000000000         3.475911865304827E-007
   28.2150000000000         5.134289860754790E-007
   28.4050000000000         6.723389801346005E-007
   28.5950000000000         8.223347313862831E-007
   28.7850000000000         9.549206184210315E-007
   28.9750000000000         1.069748323622132E-006
   29.1650000000000         1.160240016845682E-006
   29.3550000000000         1.225686661565732E-006
   29.5450000000000         1.276004495432898E-006
   29.7350000000000         1.295100693363389E-006
   29.9250000000000         1.282785279287997E-006
   30.1150000000000         1.234974522848399E-006
   30.3050000000000         1.149309425149069E-006
   30.4950000000000         1.025722530670452E-006
   30.6850000000000         8.674714068237476E-007
   30.8750000000000         6.899318643363795E-007
   31.0650000000000         5.057413815453785E-007
   31.2550000000000         3.245594609480257E-007
   31.4450000000000         1.721918925008258E-007
   31.6350000000000         6.280991989911138E-008
   31.8250000000000         1.020954269176345E-008
   32.0150000000000         1.845641132423455E-008
   32.2050000000000         8.453248371460297E-008
   32.3950000000000         2.006772711713101E-007
   32.5850000000000         3.487018795819107E-007
   32.7750000000000         5.118929077285388E-007
   32.9650000000000         6.713854119747757E-007
   33.1550000000000         8.096148278304418E-007
   33.3450000000000         9.133265514418103E-007
   33.5350000000000         9.754881692488407E-007
   33.7250000000000         9.931535361648778E-007
   33.9150000000000         9.683533634680249E-007
   34.1050000000000         9.074732075095128E-007
   34.2950000000000         8.256444098308785E-007
   34.4850000000000         7.304303255372074E-007
   34.6750000000000         6.273251385772030E-007
   34.8650000000000         5.246549594025614E-007
   35.0550000000000         4.287958612835665E-007
   35.2450000000000         3.457332765385122E-007
   35.4350000000000         2.807821672763616E-007
   35.6250000000000         2.423818095804519E-007
   35.8150000000000         2.365811734053765E-007
   36.0050000000000         2.634564871139010E-007
   36.1950000000000         3.338866503636986E-007
   36.3850000000000         4.474980324811383E-007
   36.5750000000000         6.018047978424477E-007
   36.7650000000000         7.893145600761732E-007
   36.9550000000000         9.969751296161839E-007
   37.1450000000000         1.206204742656105E-006
   37.3350000000000         1.397988798589707E-006
   37.5250000000000         1.554154901229445E-006
   37.7150000000000         1.658224423150483E-006
   37.9050000000000         1.701277380569435E-006
   38.0950000000000         1.679381370337788E-006
   38.2850000000000         1.588249725662093E-006
   38.4750000000000         1.442363395631694E-006
   38.6650000000000         1.259508044354254E-006
   38.8550000000000         1.056439880427277E-006
   39.0450000000000         8.524870761853715E-007
   39.2350000000000         6.631998408844143E-007
   39.4250000000000         5.017279955508995E-007
   39.6150000000000         3.759848290641471E-007
   39.8050000000000         2.901333264733888E-007
   39.9950000000000         2.441996358652161E-007
   40.1850000000000         2.314762149667751E-007
   40.3750000000000         2.475762890934036E-007
   40.5650000000000         2.776864256388245E-007
   40.7550000000000         3.258801025593778E-007
   40.9450000000000         3.845362148359384E-007
   41.1350000000000         4.494475980194890E-007
   41.3250000000000         5.160858138339800E-007
   41.5150000000000         5.818763057308623E-007
   41.7050000000000         6.320866916381639E-007
   41.8950000000000         6.616878024345904E-007
   42.0850000000000         6.714211293531802E-007
   42.2750000000000         6.477398154903212E-007
   42.4650000000000         5.875565478891388E-007
   42.6550000000000         4.914400594250438E-007
   42.8450000000000         3.640973035714768E-007
   43.0350000000000         2.148477591040364E-007
   43.2250000000000         5.652729895720937E-008
   43.4150000000000        -9.531761497946009E-008
   43.6050000000000        -2.258003303749697E-007
   43.7950000000000        -3.232608732579260E-007
   43.9850000000000        -3.791130882866830E-007
   44.1750000000000        -3.908523106219390E-007
   44.3650000000000        -3.610227168642690E-007
   44.5550000000000        -2.972940878727749E-007
   44.7450000000000        -2.143430352950415E-007
   44.9350000000000        -1.139421108952514E-007
   45.1250000000000        -8.878163593877500E-009
   45.3150000000000         8.020935889442905E-008
   45.5050000000000         1.612603780860611E-007
   45.6950000000000         2.304218106419458E-007
   45.8850000000000         2.893823150647373E-007
   46.0750000000000         3.419475787677253E-007
   46.2650000000000         3.918468407752984E-007
   46.4550000000000         4.414910648256815E-007
   46.6450000000000         4.906370538262335E-007
   46.8350000000000         5.350276552112867E-007
   47.0250000000000         5.745474922117241E-007
   47.2150000000000         6.096007012258398E-007
   47.4050000000000         6.316292163860769E-007
   47.5950000000000         6.411252002272000E-007
   47.7850000000000         6.429510106719529E-007
   47.9750000000000         6.393552751158401E-007
   48.1650000000000         6.406633571426213E-007
   48.3550000000000         6.519938731712518E-007
   48.5450000000000         6.772463880921069E-007
   48.7350000000000         7.204286244908578E-007
   48.9250000000000         7.810104679088251E-007
   49.1150000000000         8.591598395798110E-007
   49.3050000000000         9.395492364289154E-007
   49.4950000000000         1.022556023351722E-006
   49.6850000000000         1.088168442075499E-006
   49.8750000000000         1.135440464457566E-006
   50.0650000000000         1.158936002854096E-006
   50.2550000000000         1.149668516604459E-006
   50.4450000000000         1.121874183999650E-006
   50.6350000000000         1.080030515505005E-006
   50.8250000000000         1.034624304798693E-006
   51.0150000000000         9.979660254101574E-007
   51.2050000000000         9.699666827123074E-007
   51.3950000000000         9.597715907886357E-007
   51.5850000000000         9.746118084224128E-007
   51.7750000000000         1.006360026876013E-006
   51.9650000000000         1.050390166491424E-006
   52.1550000000000         1.100170014424092E-006
   52.3450000000000         1.148287764640565E-006
   52.5350000000000         1.189357104966609E-006
   52.7250000000000         1.225464496914682E-006
   52.9150000000000         1.253117799007457E-006
   53.1050000000000         1.270494811901107E-006
   53.2950000000000         1.279298611606741E-006
   53.4850000000000         1.283476509302758E-006
   53.6750000000000         1.285072573083339E-006
   53.8650000000000         1.278409448993029E-006
   54.0550000000000         1.263536207109267E-006
   54.2450000000000         1.240662407878679E-006
   54.4350000000000         1.209036330031376E-006
   54.6250000000000         1.168152125525240E-006
   54.8150000000000         1.120808500264541E-006
   55.0050000000000         1.072682793505128E-006
   55.1950000000000         1.030162806455186E-006
   55.3850000000000         1.001523635771693E-006
   55.5750000000000         9.956245835535237E-007
   55.7650000000000         1.017008406873251E-006
   55.9550000000000         1.073665645014037E-006
   56.1450000000000         1.162171073850821E-006
   56.3350000000000         1.269652405311656E-006
   56.5250000000000         1.384796958839610E-006
   56.7150000000000         1.491700754838784E-006
   56.9050000000000         1.574427190836367E-006
   57.0950000000000         1.618282149357007E-006
   57.2850000000000         1.613995090000295E-006
   57.4750000000000         1.563015805545516E-006
   57.6650000000000         1.464832561775663E-006
   57.8550000000000         1.324300140918707E-006
   58.0450000000000         1.161354225914121E-006
   58.2350000000000         9.903833149942849E-007
   58.4250000000000         8.264065096291361E-007
   58.6150000000000         6.841300126687516E-007
   58.8050000000000         5.685650821394263E-007
   58.9950000000000         4.877023978297220E-007
   59.1850000000000         4.495547640154322E-007
   59.3750000000000         4.430453209652293E-007
   59.5650000000000         4.720748796586817E-007
   59.7550000000000         5.296826545083129E-007
   59.9450000000000         6.113366159669578E-007
   60.1350000000000         7.045682578798978E-007
   60.3250000000000         8.114817961533675E-007
   60.5150000000000         9.259221714579621E-007
   60.7050000000000         1.042309801324924E-006
   60.8950000000000         1.154115717645114E-006
   61.0850000000000         1.251787440620514E-006
   61.2750000000000         1.325799014737357E-006
   61.4650000000000         1.368824230557191E-006
   61.6550000000000         1.374782280347899E-006
   61.8450000000000         1.340692900996434E-006
   62.0350000000000         1.269628471592224E-006
   62.2250000000000         1.165536828489213E-006
   62.4150000000000         1.033276758026161E-006
   62.6050000000000         8.948221082279402E-007
   62.7950000000000         7.641340364484019E-007
   62.9850000000000         6.563783597862370E-007
   63.1750000000000         5.831396144616429E-007
   63.3650000000000         5.524167039102249E-007
   63.5550000000000         5.683482727828379E-007
   63.7450000000000         6.296698616452338E-007
   63.9350000000000         7.235450196055205E-007
   64.1250000000000         8.356919179198408E-007
   64.3150000000000         9.532575001226729E-007
   64.5050000000000         1.062214773356737E-006
   64.6950000000000         1.155625161137027E-006
   64.8850000000000         1.227048956999397E-006
   65.0750000000000         1.265572305348959E-006
   65.2650000000000         1.277546277151303E-006
   65.4550000000000         1.266510178274430E-006
   65.6450000000000         1.237406457094972E-006
   65.8350000000000         1.195042904158167E-006
   66.0250000000000         1.144451166837907E-006
   66.2150000000000         1.087089827860522E-006
   66.4050000000000         1.025429174840790E-006
   66.5950000000000         9.585967399151972E-007
   66.7850000000000         8.899861264145223E-007
   66.9750000000000         8.233069241469804E-007
   67.1650000000000         7.612289236584316E-007
   67.3550000000000         7.080797753179607E-007
   67.5450000000000         6.687187192992455E-007
   67.7350000000000         6.492818340855326E-007
   67.9250000000000         6.572540376962356E-007
   68.1150000000000         6.924421630199613E-007
   68.3050000000000         7.569862072412882E-007
   68.4950000000000         8.452937477726157E-007
   68.6850000000000         9.517329559889756E-007
   68.8750000000000         1.069475112855947E-006
   69.0650000000000         1.190015094514474E-006
   69.2550000000000         1.305107743660751E-006
   69.4450000000000         1.407498946574974E-006
   69.6350000000000         1.496025937968886E-006
   69.8250000000000         1.569186536350536E-006
   70.0150000000000         1.626930742924020E-006
   70.2050000000000         1.670450973794838E-006
   70.3950000000000         1.701503658893693E-006
   70.5850000000000         1.719190265553426E-006
   70.7750000000000         1.725251206831638E-006
   70.9650000000000         1.719155823504359E-006
   71.1550000000000         1.696940822049871E-006
   71.3450000000000         1.656652697099222E-006
   71.5350000000000         1.597942831963359E-006
   71.7250000000000         1.523622933326278E-006
   71.9150000000000         1.439222961009884E-006
   72.1050000000000         1.353332556774816E-006
   72.2950000000000         1.277610363996497E-006
   72.4850000000000         1.223016852033911E-006
   72.6750000000000         1.200808393382740E-006
   72.8650000000000         1.221665188873345E-006
   73.0550000000000         1.285309137834020E-006
   73.2450000000000         1.390139318366319E-006
   73.4350000000000         1.529580714687352E-006
   73.6250000000000         1.692080054957806E-006
   73.8150000000000         1.862980870346111E-006
   74.0050000000000         2.025972281076562E-006
   74.1950000000000         2.165748924226833E-006
   74.3850000000000         2.269672317394538E-006
   74.5750000000000         2.322548367597663E-006
   74.7650000000000         2.332036856792850E-006
   74.9550000000000         2.287705677318078E-006
   75.1450000000000         2.203773480084764E-006
   75.3350000000000         2.082911890845494E-006
   75.5250000000000         1.936470465203149E-006
   75.7150000000000         1.780063906637262E-006
   75.9050000000000         1.625670790407791E-006
   76.0950000000000         1.483489218160481E-006
   76.2850000000000         1.364368814164636E-006
   76.4750000000000         1.277811199336958E-006
   76.6650000000000         1.229041866698992E-006
   76.8550000000000         1.224135116927672E-006
   77.0450000000000         1.271948580579060E-006
   77.2350000000000         1.369103984683103E-006
   77.4250000000000         1.507458790521063E-006
   77.6150000000000         1.677367009090066E-006
   77.8050000000000         1.870486896225175E-006
   77.9950000000000         2.070540234283118E-006
   78.1850000000000         2.259673774544467E-006
   78.3750000000000         2.419423044008531E-006
   78.5650000000000         2.535882473980736E-006
   78.7550000000000         2.587228154561414E-006
   78.9450000000000         2.576687704515363E-006
   79.1350000000000         2.492842548339445E-006
   79.3250000000000         2.343953472476085E-006
   79.5150000000000         2.139824553779109E-006
   79.7050000000000         1.896726145646701E-006
   79.8950000000000         1.634443581814501E-006
   80.0850000000000         1.374651560149737E-006
   80.2750000000000         1.140347488280530E-006
   80.4650000000000         9.483994694755297E-007
   80.6550000000000         8.129505200668550E-007
   80.8450000000000         7.435104790895386E-007
   81.0350000000000         7.412237877698507E-007
   81.2250000000000         8.062720583727445E-007
   81.4150000000000         9.336106745324952E-007
   81.6050000000000         1.114164675662821E-006
   81.7950000000000         1.334214117419309E-006
   81.9850000000000         1.576288672367167E-006
   82.1750000000000         1.821362470218486E-006
   82.3650000000000         2.056906913331896E-006
   82.5550000000000         2.266176651924143E-006
   82.7450000000000         2.434775877548338E-006
   82.9350000000000         2.551313346138635E-006
   83.1250000000000         2.604987860743118E-006
   83.3150000000000         2.591820756478940E-006
   83.5050000000000         2.513867218949270E-006
   83.6950000000000         2.373267772236480E-006
   83.8850000000000         2.180033683014457E-006
   84.0750000000000         1.950306926182497E-006
   84.2650000000000         1.699590668152283E-006
   84.4550000000000         1.447303255563529E-006
   84.6450000000000         1.211799741637818E-006
   84.8350000000000         1.010145935901211E-006
   85.0250000000000         8.551766310039831E-007
   85.2150000000000         7.556960590990516E-007
   85.4050000000000         7.157579481770896E-007
   85.5950000000000         7.321800686413577E-007
   85.7850000000000         7.992337351092452E-007
   85.9750000000000         9.054751307232510E-007
   86.1650000000000         1.038375319542798E-006
   86.3550000000000         1.184378051451208E-006
   86.5450000000000         1.329591748498269E-006
   86.7350000000000         1.461731310405986E-006
   86.9250000000000         1.570974613165760E-006
   87.1150000000000         1.650236324970264E-006
   87.3050000000000         1.696982572502223E-006
   87.4950000000000         1.710912339672324E-006
   87.6850000000000         1.695876969566111E-006
   87.8750000000000         1.657056305730656E-006
   88.0650000000000         1.603549082839628E-006
   88.2550000000000         1.537341472112210E-006
   88.4450000000000         1.472082857496128E-006
   88.6350000000000         1.414907552477517E-006
   88.8250000000000         1.380689532717160E-006
   89.0150000000000         1.373744568680844E-006
   89.2050000000000         1.405895467774470E-006
   89.3950000000000         1.482015217889768E-006
   89.5850000000000         1.603196392998385E-006
   89.7750000000000         1.767734282373153E-006
   89.9650000000000         1.970748283336606E-006
   90.1550000000000         2.203710194002403E-006
   90.3450000000000         2.455365253862971E-006
   90.5350000000000         2.715455490823596E-006
   90.7250000000000         2.962657182623544E-006
   90.9150000000000         3.183048512136877E-006
   91.1050000000000         3.362072089363825E-006
   91.2950000000000         3.487631802192472E-006
   91.4850000000000         3.551745288218206E-006
   91.6750000000000         3.551805331452675E-006
   91.8650000000000         3.488788323762173E-006
   92.0550000000000         3.366832481386057E-006
   92.2450000000000         3.199899912565149E-006
   92.4350000000000         2.997505548386229E-006
   92.6250000000000         2.773181789576004E-006
   92.8150000000000         2.541441277911287E-006
   93.0050000000000         2.316652309782355E-006
   93.1950000000000         2.110778456553627E-006
   93.3850000000000         1.933493360686588E-006
   93.5750000000000         1.791637343051529E-006
   93.7650000000000         1.689077187148548E-006
   93.9550000000000         1.626922724367826E-006
   94.1450000000000         1.603720591760904E-006
   94.3350000000000         1.615773490023225E-006
   94.5250000000000         1.657772566135401E-006
   94.7150000000000         1.722539323016371E-006
   94.9050000000000         1.812377017345398E-006
   95.0950000000000         1.908633681299305E-006
   95.2850000000000         2.013494908778007E-006
   95.4750000000000         2.116951658704600E-006
   95.6650000000000         2.213794840779679E-006
   95.8550000000000         2.300497611588320E-006
   96.0450000000000         2.374518827112345E-006
   96.2350000000000         2.434742344343045E-006
   96.4250000000000         2.481595209340449E-006
   96.6150000000000         2.516604862150837E-006
   96.8050000000000         2.543702088856105E-006
   96.9950000000000         2.566668346654125E-006
   97.1850000000000         2.589697515118383E-006
   97.3750000000000         2.621303399577593E-006
   97.5650000000000         2.654430125758101E-006
   97.7550000000000         2.693783910301110E-006
   97.9450000000000         2.737870011770635E-006
   98.1350000000000         2.783433180518775E-006
   98.3250000000000         2.826253007344463E-006
   98.5150000000000         2.861772091628541E-006
   98.7050000000000         2.885691279230839E-006
   98.8950000000000         2.890977210573858E-006
   99.0850000000000         2.889021251226112E-006
   99.2750000000000         2.867425020323210E-006
   99.4650000000000         2.836795440653288E-006
   99.6550000000000         2.799765486836986E-006
   99.8450000000000         2.755031501151985E-006
   100.035000000000         2.718631756115303E-006
   100.225000000000         2.681731655883291E-006
   100.415000000000         2.657983775665599E-006
   100.605000000000         2.641696875288800E-006
   100.795000000000         2.630647329248883E-006
   100.985000000000         2.622107909494130E-006
   101.175000000000         2.612922994902023E-006
   101.365000000000         2.597238801573001E-006
   101.555000000000         2.574703585874396E-006
   101.745000000000         2.543992241396025E-006
   101.935000000000         2.505133375359948E-006
   102.125000000000         2.460226628840467E-006
   102.315000000000         2.412432405555482E-006
   102.505000000000         2.365521694520455E-006
   102.695000000000         2.321430912034371E-006
   102.885000000000         2.281607203683981E-006
   103.075000000000         2.248817466410517E-006
   103.265000000000         2.226136818226603E-006
   103.455000000000         2.210689869973225E-006
   103.645000000000         2.202993383457532E-006
   103.835000000000         2.203341285629496E-006
   104.025000000000         2.205239257822890E-006
   104.215000000000         2.213783416720989E-006
   104.405000000000         2.231165470873150E-006
   104.595000000000         2.259324219314987E-006
   104.785000000000         2.300042395162852E-006
   104.975000000000         2.353815707034447E-006
   105.165000000000         2.420436019297395E-006
   105.355000000000         2.493015327359561E-006
   105.545000000000         2.568196795191045E-006
   105.735000000000         2.641634258605247E-006
   105.925000000000         2.714490377687090E-006
   106.115000000000         2.771833808850168E-006
   106.305000000000         2.813702659087794E-006
   106.495000000000         2.838897767488438E-006
   106.685000000000         2.850080243236738E-006
   106.875000000000         2.851731734267324E-006
   107.065000000000         2.849593897662584E-006
   107.255000000000         2.849721777486122E-006
   107.445000000000         2.857110496892092E-006
   107.635000000000         2.874707110532641E-006
   107.825000000000         2.902971155077771E-006
   108.015000000000         2.938878843093430E-006
   108.205000000000         2.978296760817190E-006
   108.395000000000         3.018562442435074E-006
   108.585000000000         3.052936269078334E-006
   108.775000000000         3.079218125973483E-006
   108.965000000000         3.084964766265093E-006
   109.155000000000         3.076670480647428E-006
   109.345000000000         3.055011922624432E-006
   109.535000000000         3.023510265917999E-006
   109.725000000000         2.986563371282956E-006
   109.915000000000         2.948370689067627E-006
   110.105000000000         2.912526528834111E-006