  -105.000000000000         0.000000000000000E+000
  -104.810000000000         8.428054675724862E-011
  -104.620000000000         1.492598557993791E-010
  -104.430000000000         1.785435690702812E-010
  -104.240000000000         1.756760991486117E-010
  -104.050000000000         1.654020809447498E-010
  -103.860000000000         1.765270959442190E-010
  -103.670000000000         2.451139350073553E-010
  -103.480000000000         4.073266770458595E-010
  -103.290000000000         6.639891226212090E-010
  -103.100000000000         7.640425828533199E-010
  -102.910000000000         6.927188482118418E-010
  -102.720000000000         4.305759976482812E-010
  -102.530000000000         2.260402538734914E-010
  -102.340000000000         4.792450029866227E-011
  -102.150000000000        -3.105160398718814E-011
  -101.960000000000         2.987325895920184E-011
  -101.770000000000         2.951016697952466E-010
  -101.580000000000         4.036317400997279E-010
  -101.390000000000         4.562320557940008E-010
  -101.200000000000         5.021202741050288E-010
  -101.010000000000         8.002594221625774E-010
  -100.820000000000         1.223473511585659E-009
  -100.630000000000         1.873116488753426E-009
  -100.440000000000         2.818975666797119E-009
  -100.250000000000         3.980872075526562E-009
  -100.060000000000         5.111204863749391E-009
  -99.8700000000000         6.149167415602596E-009
  -99.6800000000000         7.186229003173233E-009
  -99.4900000000000         8.304816035954919E-009
  -99.3000000000000         9.497412912460493E-009
  -99.1100000000000         1.076194403686270E-008
  -98.9200000000000         1.203455284384078E-008
  -98.7300000000000         1.316633941322722E-008
  -98.5400000000000         1.397883588915185E-008
  -98.3500000000000         1.453959367909823E-008
  -98.1600000000000         1.504547280984300E-008
  -97.9700000000000         1.563250143368716E-008
  -97.7800000000000         1.632612191825091E-008
  -97.5900000000000         1.713431202390964E-008
  -97.4000000000000         1.802160034755057E-008
  -97.2100000000000         1.887045214373826E-008
  -97.0200000000000         1.952354100455887E-008
  -96.8300000000000         1.984873138272033E-008
  -96.6400000000000         1.975612009911242E-008
  -96.4500000000000         2.006684257467146E-008
  -96.2600000000000         2.001875055247151E-008
  -96.0700000000000         2.049007593474073E-008
  -95.8800000000000         2.053028642511166E-008
  -95.6900000000000         2.094752268090854E-008
  -95.5000000000000         2.081929010772894E-008
  -95.3100000000000         2.058996963442996E-008
  -95.1200000000000         2.024188626297308E-008
  -94.9300000000000         1.990020017576874E-008
  -94.7400000000000         1.995269127383649E-008
  -94.5500000000000         2.013289664562848E-008
  -94.3600000000000         2.056018192743297E-008
  -94.1700000000000         2.118230367401764E-008
  -93.9800000000000         2.185988433324262E-008
  -93.7900000000000         2.242794124385436E-008
  -93.6000000000000         2.286481621494587E-008
  -93.4100000000000         2.287407524178159E-008
  -93.2200000000000         2.324331918078143E-008
  -93.0300000000000         2.304149803850370E-008
  -92.8400000000000         2.335684815154447E-008
  -92.6500000000000         2.312124929102640E-008
  -92.4600000000000         2.316410497098305E-008
  -92.2700000000000         2.227362526118705E-008
  -92.0800000000000         2.152551117021321E-008
  -91.8900000000000         2.056369786107537E-008
  -91.7000000000000         1.931364550223409E-008
  -91.5100000000000         1.779563372089658E-008
  -91.3200000000000         1.632748547717292E-008
  -91.1300000000000         1.515185516557153E-008
  -90.9400000000000         1.423893814294832E-008
  -90.7500000000000         1.381509408190334E-008
  -90.5600000000000         1.350373106759612E-008
  -90.3700000000000         1.339601035079106E-008
  -90.1800000000000         1.326332033307365E-008
  -89.9900000000000         1.290149977535687E-008
  -89.8000000000000         1.197335303815157E-008
  -89.6100000000000         1.157021291826397E-008
  -89.4200000000000         1.083433844252196E-008
  -89.2300000000000         1.100125070505166E-008
  -89.0400000000000         1.153808612875487E-008
  -88.8500000000000         1.249420278469927E-008
  -88.6600000000000         1.356426402070995E-008
  -88.4700000000000         1.442254536146991E-008
  -88.2800000000000         1.491133716946022E-008
  -88.0900000000000         1.511891449827224E-008
  -87.9000000000000         1.526839075121906E-008
  -87.7100000000000         1.559634945260410E-008
  -87.5200000000000         1.639122944484181E-008
  -87.3300000000000         1.841901719081659E-008
  -87.1400000000000         2.075700307968022E-008
  -86.9500000000000         2.334181685262030E-008
  -86.7600000000000         2.602551910825353E-008
  -86.5700000000000         2.879530514787239E-008
  -86.3800000000000         3.177769894593222E-008
  -86.1900000000000         3.506114819885239E-008
  -86.0000000000000         3.857815792481167E-008
  -85.8100000000000         4.203360138659080E-008
  -85.6200000000000         4.513595134132111E-008
  -85.4300000000000         4.757878000185283E-008
  -85.2400000000000         4.909729831498252E-008
  -85.0500000000000         4.985007247968726E-008
  -84.8600000000000         4.953910644070703E-008
  -84.6700000000000         5.010629880785181E-008
  -84.4800000000000         4.918103899129924E-008
  -84.2900000000000         4.837429129268174E-008
  -84.1000000000000         4.851761676688856E-008
  -83.9100000000000         4.757870520125938E-008
  -83.7200000000000         4.715837175424813E-008
  -83.5300000000000         4.732032072080550E-008
  -83.3400000000000         4.895308773042974E-008
  -83.1500000000000         4.995089260136740E-008
  -82.9600000000000         5.213918293976635E-008
  -82.7700000000000         5.336299105838631E-008
  -82.5800000000000         5.536689897213354E-008
  -82.3900000000000         5.590273921289991E-008
  -82.2000000000000         5.655156900253719E-008
  -82.0100000000000         5.698922973119250E-008
  -81.8200000000000         5.703685456187419E-008
  -81.6300000000000         5.691884348399638E-008
  -81.4400000000000         5.651662084363627E-008
  -81.2500000000000         5.598040270177652E-008
  -81.0600000000000         5.559466196236899E-008
  -80.8700000000000         5.565130142457346E-008
  -80.6800000000000         5.640925499800912E-008
  -80.4900000000000         5.807803071311684E-008
  -80.3000000000000         6.149270530966444E-008
  -80.1100000000000         6.420142909124677E-008
  -79.9200000000000         6.818025859153222E-008
  -79.7300000000000         7.049428365852517E-008
  -79.5400000000000         7.274462060960280E-008
  -79.3500000000000         7.432325161598746E-008
  -79.1600000000000         7.532036971972892E-008
  -78.9700000000000         7.595707611311858E-008
  -78.7800000000000         7.633781472173191E-008
  -78.5900000000000         7.632353006926799E-008
  -78.4000000000000         7.613335784277159E-008
  -78.2100000000000         7.607461804491637E-008
  -78.0200000000000         7.632230693568381E-008
  -77.8300000000000         7.690293625619449E-008
  -77.6400000000000         7.771326215065658E-008
  -77.4500000000000         7.859729320509631E-008
  -77.2600000000000         7.991960266846026E-008
  -77.0700000000000         8.166414656667985E-008
  -76.8800000000000         8.359248726650255E-008
  -76.6900000000000         8.521270992509242E-008
  -76.5000000000000         8.702811611898763E-008
  -76.3100000000000         8.879885141826379E-008
  -76.1200000000000         8.931765307635623E-008
  -75.9300000000000         9.000929968121268E-008
  -75.7400000000000         8.999026543931763E-008
  -75.5500000000000         8.947294338573710E-008
  -75.3600000000000         8.871055180971783E-008
  -75.1700000000000         8.810151268244506E-008
  -74.9800000000000         8.799839334247676E-008
  -74.7900000000000         8.852343131984769E-008
  -74.6000000000000         8.960741946303410E-008
  -74.4100000000000         9.140637879105421E-008
  -74.2200000000000         9.491065303421855E-008
  -74.0300000000000         9.543915598977872E-008
  -73.8400000000000         9.714190279058983E-008
  -73.6500000000000         9.871594690840441E-008
  -73.4600000000000         1.003539827774960E-007
  -73.2700000000000         1.022360786291492E-007
  -73.0800000000000         1.042363009157811E-007
  -72.8900000000000         1.065150028297574E-007
  -72.7000000000000         1.092952755389126E-007
  -72.5100000000000         1.124146644704178E-007
  -72.3200000000000         1.157338683935608E-007
  -72.1300000000000         1.193490074725210E-007
  -71.9400000000000         1.251247003771883E-007
  -71.7500000000000         1.282580673986714E-007
  -71.5600000000000         1.341507034653250E-007
  -71.3700000000000         1.372097468878217E-007
  -71.1800000000000         1.429341423198793E-007
  -70.9900000000000         1.447184379067655E-007
  -70.8000000000000         1.475153152844175E-007
  -70.6100000000000         1.491110471657692E-007
  -70.4200000000000         1.503010633118483E-007
  -70.2300000000000         1.514112873323293E-007
  -70.0400000000000         1.527235577537248E-007
  -69.8500000000000         1.544693989772177E-007
  -69.6600000000000         1.567075959930703E-007
  -69.4700000000000         1.594579927324308E-007
  -69.2800000000000         1.626220176912775E-007
  -69.0900000000000         1.660823340475421E-007
  -68.9000000000000         1.696849484376095E-007
  -68.7100000000000         1.731521646519872E-007
  -68.5200000000000         1.762115611918534E-007
  -68.3300000000000         1.787905661330530E-007
  -68.1400000000000         1.807831427149533E-007
  -67.9500000000000         1.812393169338826E-007
  -67.7600000000000         1.827353724529047E-007
  -67.5700000000000         1.837477554285495E-007
  -67.3800000000000         1.846966286105483E-007
  -67.1900000000000         1.857712309962419E-007
  -67.0000000000000         1.871170176086404E-007
  -66.8100000000000         1.889575340688451E-007
  -66.6200000000000         1.915299176450464E-007
  -66.4300000000000         1.950007206578520E-007
  -66.2400000000000         1.994616720600401E-007
  -66.0500000000000         2.048315116140430E-007
  -65.8600000000000         2.108158023972078E-007
  -65.6700000000000         2.167971748781162E-007
  -65.4800000000000         2.219733320888522E-007
  -65.2900000000000         2.263633899011432E-007
  -65.1000000000000         2.300806283648637E-007
  -64.9100000000000         2.332879616275662E-007
  -64.7200000000000         2.361970860722816E-007
  -64.5300000000000         2.390762250629096E-007
  -64.3400000000000         2.420917140048077E-007
  -64.1500000000000         2.452406479941262E-007
  -63.9600000000000         2.484266752664131E-007
  -63.7700000000000         2.518728310523844E-007
  -63.5800000000000         2.557194983701426E-007
  -63.3900000000000         2.600127850175964E-007
  -63.2000000000000         2.647178574345599E-007
  -63.0100000000000         2.697412599272720E-007
  -62.8200000000000         2.748459862350255E-007
  -62.6300000000000         2.797123977574889E-007
  -62.4400000000000         2.840670211448577E-007
  -62.2500000000000         2.879788396744113E-007
  -62.0600000000000         2.915826682616933E-007
  -61.8700000000000         2.947531294417289E-007
  -61.6800000000000         2.976693532538688E-007
  -61.4900000000000         3.005428421895275E-007
  -61.3000000000000         3.037416060510609E-007
  -61.1100000000000         3.067844107868480E-007
  -60.9200000000000         3.100253334783921E-007
  -60.7300000000000         3.137001870685323E-007
  -60.5400000000000         3.182515113006421E-007
  -60.3500000000000         3.231979750140819E-007
  -60.1600000000000         3.282976490306587E-007
  -59.9700000000000         3.332399950817284E-007
  -59.7800000000000         3.379095887835919E-007
  -59.5900000000000         3.420881660624459E-007
  -59.4000000000000         3.459441764493375E-007
  -59.2100000000000         3.495391472528231E-007
  -59.0200000000000         3.534919474746791E-007
  -58.8300000000000         3.577013922615925E-007
  -58.6400000000000         3.618698701100771E-007
  -58.4500000000000         3.667247223517759E-007
  -58.2600000000000         3.717445096504152E-007
  -58.0700000000000         3.772622177195622E-007
  -57.8800000000000         3.831408494714877E-007
  -57.6900000000000         3.894278387790843E-007
  -57.5000000000000         3.962767546158211E-007
  -57.3100000000000         4.034042862711337E-007
  -57.1200000000000         4.103020240352322E-007
  -56.9300000000000         4.169002296952636E-007
  -56.7400000000000         4.234792892243243E-007
  -56.5500000000000         4.300827311739129E-007
  -56.3600000000000         4.364454492499104E-007
  -56.1700000000000         4.427680299120788E-007
  -55.9800000000000         4.493966606343948E-007
  -55.7900000000000         4.563921258881770E-007
  -55.6000000000000         4.635584641271802E-007
  -55.4100000000000         4.709746903563393E-007
  -55.2200000000000         4.787751613762463E-007
  -55.0300000000000         4.868338298830345E-007
  -54.8400000000000         4.946291479406569E-007
  -54.6500000000000         5.021023896367118E-007
  -54.4600000000000         5.092856854208428E-007
  -54.2700000000000         5.162292045628023E-007
  -54.0800000000000         5.229914439325138E-007
  -53.8900000000000         5.297837440165735E-007
  -53.7000000000000         5.368279261159806E-007
  -53.5100000000000         5.441521839891957E-007
  -53.3200000000000         5.516461620879900E-007
  -53.1300000000000         5.592769351323637E-007
  -52.9400000000000         5.672365216293957E-007
  -52.7500000000000         5.753601768766277E-007
  -52.5600000000000         5.838637455029287E-007
  -52.3700000000000         5.929396855450049E-007
  -52.1800000000000         6.025590233893949E-007
  -51.9900000000000         6.126045807286782E-007
  -51.8000000000000         6.228568843727945E-007
  -51.6100000000000         6.330106176060616E-007
  -51.4200000000000         6.431460909897760E-007
  -51.2300000000000         6.528951876119829E-007
  -51.0400000000000         6.623361169740793E-007
  -50.8500000000000         6.715110296668357E-007
  -50.6600000000000         6.806044127699966E-007
  -50.4700000000000         6.896144797967686E-007
  -50.2800000000000         6.986067317668103E-007
  -50.0900000000000         7.076599848375344E-007
  -49.9000000000000         7.165332137522617E-007
  -49.7100000000000         7.265109592217818E-007
  -49.5200000000000         7.359054873258232E-007
  -49.3300000000000         7.457742886033878E-007
  -49.1400000000000         7.563126309918933E-007
  -48.9500000000000         7.659772460627647E-007
  -48.7600000000000         7.757555040259042E-007
  -48.5700000000000         7.850995841148773E-007
  -48.3800000000000         7.932835666261599E-007
  -48.1900000000000         8.014600271071793E-007
  -48.0000000000000         8.085288349461548E-007
  -47.8100000000000         8.155988966331547E-007
  -47.6200000000000         8.223052234905422E-007
  -47.4300000000000         8.296201801011883E-007
  -47.2400000000000         8.372421060556096E-007
  -47.0500000000000         8.458214817363124E-007
  -46.8600000000000         8.546270281141075E-007
  -46.6700000000000         8.640755614177987E-007
  -46.4800000000000         8.732757882659217E-007
  -46.2900000000000         8.818189302959916E-007
  -46.1000000000000         8.898853523884602E-007
  -45.9100000000000         8.980496687000580E-007
  -45.7200000000000         9.061651415527122E-007
  -45.5300000000000         9.142335579334410E-007
  -45.3400000000000         9.230063637310128E-007
  -45.1500000000000         9.322029237088570E-007
  -44.9600000000000         9.423356681675503E-007
  -44.7700000000000         9.522781366843502E-007
  -44.5800000000000         9.632247616386932E-007
  -44.3900000000000         9.743023220011184E-007
  -44.2000000000000         9.857210058264232E-007
  -44.0100000000000         9.976669266850225E-007
  -43.8200000000000         1.010383001263298E-006
  -43.6300000000000         1.024177340916446E-006
  -43.4400000000000         1.037635536280659E-006
  -43.2500000000000         1.050294218131101E-006
  -43.0600000000000         1.064204987405109E-006
  -42.8700000000000         1.077360267625623E-006
  -42.6800000000000         1.090254272099356E-006
  -42.4900000000000         1.102613378866052E-006
  -42.3000000000000         1.114373586709975E-006
  -42.1100000000000         1.127510274723932E-006
  -41.9200000000000         1.139525708641394E-006
  -41.7300000000000         1.152362204658674E-006
  -41.5400000000000         1.166126031916880E-006
  -41.3500000000000         1.179148726419564E-006
  -41.1600000000000         1.194030030004014E-006
  -40.9700000000000         1.208152005826837E-006
  -40.7800000000000         1.221395707987355E-006
  -40.5900000000000         1.236012069395323E-006
  -40.4000000000000         1.248927322343969E-006
  -40.2100000000000         1.261906279920946E-006
  -40.0200000000000         1.274596682608531E-006
  -39.8300000000000         1.287804217267270E-006
  -39.6400000000000         1.299804416051663E-006
  -39.4500000000000         1.313265823027291E-006
  -39.2600000000000         1.325954795167618E-006
  -39.0700000000000         1.340281992649807E-006
  -38.8800000000000         1.353954381052229E-006
  -38.6900000000000         1.369132422993284E-006
  -38.5000000000000         1.385566813154191E-006
  -38.3100000000000         1.402429971317862E-006
  -38.1200000000000         1.419120208118898E-006
  -37.9300000000000         1.436568389253298E-006
  -37.7400000000000         1.452853562041910E-006
  -37.5500000000000         1.468686596529145E-006
  -37.3600000000000         1.484735078174778E-006
  -37.1700000000000         1.500134382025610E-006
  -36.9800000000000         1.514784178058435E-006
  -36.7900000000000         1.529583966631329E-006
  -36.6000000000000         1.544424081281838E-006
  -36.4100000000000         1.558483546829593E-006
  -36.2200000000000         1.573588493571701E-006
  -36.0300000000000         1.590180048175663E-006
  -35.8400000000000         1.606314555968107E-006
  -35.6500000000000         1.621888484825935E-006
  -35.4600000000000         1.638771471669607E-006
  -35.2700000000000         1.656973562734320E-006
  -35.0800000000000         1.673467684654745E-006
  -34.8900000000000         1.689642670018803E-006
  -34.7000000000000         1.707118939679236E-006
  -34.5100000000000         1.723490398628560E-006
  -34.3200000000000         1.739935582481194E-006
  -34.1300000000000         1.756214409640530E-006
  -33.9400000000000         1.773024347403248E-006
  -33.7500000000000         1.789818721149909E-006
  -33.5600000000000         1.806172564456098E-006
  -33.3700000000000         1.823001293584470E-006
  -33.1800000000000         1.839989474070251E-006
  -32.9900000000000         1.855866679532278E-006
  -32.8000000000000         1.874308008198896E-006
  -32.6100000000000         1.892173605230277E-006
  -32.4200000000000         1.910592845132145E-006
  -32.2300000000000         1.929333229863478E-006
  -32.0400000000000         1.948149618686238E-006
  -31.8500000000000         1.965464802200946E-006
  -31.6600000000000         1.984751651037000E-006
  -31.4700000000000         2.001415127060666E-006
  -31.2800000000000         2.018843148191960E-006
  -31.0900000000000         2.035668908660950E-006
  -30.9000000000000         2.053046736615534E-006
  -30.7100000000000         2.071245980470057E-006
  -30.5200000000000         2.088510066827843E-006
  -30.3300000000000         2.106256757461818E-006
  -30.1400000000000         2.124420003224331E-006
  -29.9500000000000         2.142876640781796E-006
  -29.7600000000000         2.162512718892252E-006
  -29.5700000000000         2.183599423681769E-006
  -29.3800000000000         2.202430762686341E-006
  -29.1900000000000         2.222457482583824E-006
  -29.0000000000000         2.242386366359179E-006
  -28.8100000000000         2.262103152036770E-006
  -28.6200000000000         2.281009253967442E-006
  -28.4300000000000         2.302571286743251E-006
  -28.2400000000000         2.320424076163966E-006
  -28.0500000000000         2.339738233042338E-006
  -27.8600000000000         2.359243535829642E-006
  -27.6700000000000         2.378899692160434E-006
  -27.4800000000000         2.397748206171093E-006
  -27.2900000000000         2.418172092358426E-006
  -27.1000000000000         2.437572538715134E-006
  -26.9100000000000         2.458751223173529E-006
  -26.7200000000000         2.478792719778970E-006
  -26.5300000000000         2.499443857480097E-006
  -26.3400000000000         2.519096527114654E-006
  -26.1500000000000         2.539945029069905E-006
  -25.9600000000000         2.559148477485517E-006
  -25.7700000000000         2.578867701699213E-006
  -25.5800000000000         2.598501084480197E-006
  -25.3900000000000         2.618316937522270E-006
  -25.2000000000000         2.638021457405860E-006
  -25.0100000000000         2.657091491099535E-006
  -24.8200000000000         2.677621221118489E-006
  -24.6300000000000         2.697789575224882E-006
  -24.4400000000000         2.718313382579240E-006
  -24.2500000000000         2.739505689419921E-006
  -24.0600000000000         2.760972754924148E-006
  -23.8700000000000         2.782193083505059E-006
  -23.6800000000000         2.805208752170757E-006
  -23.4900000000000         2.827116136108894E-006
  -23.3000000000000         2.847082772756621E-006
  -23.1100000000000         2.873015627665696E-006
  -22.9200000000000         2.895459008425457E-006
  -22.7300000000000         2.918865730174798E-006
  -22.5400000000000         2.942543126482860E-006
  -22.3500000000000         2.966504037464625E-006
  -22.1600000000000         2.990751662303300E-006
  -21.9700000000000         3.015033428402154E-006
  -21.7800000000000         3.039357259043011E-006
  -21.5900000000000         3.062720156445382E-006
  -21.4000000000000         3.085054488737335E-006
  -21.2100000000000         3.112649300956322E-006
  -21.0200000000000         3.132807596022475E-006
  -20.8300000000000         3.156624155929808E-006
  -20.6400000000000         3.180641990535316E-006
  -20.4500000000000         3.204476853945297E-006
  -20.2600000000000         3.228410370533316E-006
  -20.0700000000000         3.251779497074723E-006
  -19.8800000000000         3.275318012349655E-006
  -19.6900000000000         3.299004950183735E-006
  -19.5000000000000         3.322978799011515E-006
  -19.3100000000000         3.347409631884773E-006
  -19.1200000000000         3.372291389206234E-006
  -18.9300000000000         3.397633144245607E-006
  -18.7400000000000         3.423041561097477E-006
  -18.5500000000000         3.448817595681577E-006
  -18.3600000000000         3.474657443349844E-006
  -18.1700000000000         3.500573172072002E-006
  -17.9800000000000         3.526439454222645E-006
  -17.7900000000000         3.552466988874010E-006
  -17.6000000000000         3.577601774331055E-006
  -17.4100000000000         3.604685508869204E-006
  -17.2200000000000         3.629682036156922E-006
  -17.0300000000000         3.656964463483739E-006
  -16.8400000000000         3.681147186653898E-006
  -16.6500000000000         3.707953198677102E-006
  -16.4600000000000         3.732954496514981E-006
  -16.2700000000000         3.759695826096907E-006
  -16.0800000000000         3.784389645821653E-006
  -15.8900000000000         3.810369088338808E-006
  -15.7000000000000         3.834330373064560E-006
  -15.5100000000000         3.858963819919620E-006
  -15.3200000000000         3.882506997590225E-006
  -15.1300000000000         3.906936272814920E-006
  -14.9400000000000         3.931432311234016E-006
  -14.7500000000000         3.956083706445609E-006
  -14.5600000000000         3.978992423819439E-006
  -14.3700000000000         4.005387037171573E-006
  -14.1800000000000         4.030009752804483E-006
  -13.9900000000000         4.055293178359724E-006
  -13.8000000000000         4.082454538739060E-006
  -13.6100000000000         4.109528371828880E-006
  -13.4200000000000         4.136942799494419E-006
  -13.2300000000000         4.164642351348654E-006
  -13.0400000000000         4.192291381430725E-006
  -12.8500000000000         4.219792892582071E-006
  -12.6600000000000         4.244984588950690E-006
  -12.4700000000000         4.273550330997412E-006
  -12.2800000000000         4.298567477666748E-006
  -12.0900000000000         4.324676622212717E-006
  -11.9000000000000         4.349721937744793E-006
  -11.7100000000000         4.376111665647593E-006
  -11.5200000000000         4.400857846612580E-006
  -11.3300000000000         4.427284237016849E-006
  -11.1400000000000         4.453518329041765E-006
  -10.9500000000000         4.480309030530770E-006
  -10.7600000000000         4.506514246554408E-006
  -10.5700000000000         4.534615373538554E-006
  -10.3800000000000         4.560805437032757E-006
  -10.1900000000000         4.587065171238575E-006
  -10.0000000000000         4.612876809026838E-006
  -9.81000000000000         4.638064500856804E-006
  -9.62000000000000         4.661320593491462E-006
  -9.42999999999999         4.687041979128519E-006
  -9.23999999999999         4.709901498727492E-006
  -9.05000000000000         4.733662380078009E-006
  -8.86000000000000         4.758423343413784E-006
  -8.67000000000000         4.781907529066552E-006
  -8.48000000000000         4.806134605140216E-006
  -8.28999999999999         4.832961700591723E-006
  -8.09999999999999         4.857405953072261E-006
  -7.91000000000000         4.884409998893179E-006
  -7.72000000000000         4.910647480080585E-006
  -7.53000000000000         4.938367048927736E-006
  -7.34000000000000         4.964818844611573E-006
  -7.15000000000001         4.990730161782049E-006
  -6.95999999999999         5.018833353062495E-006
  -6.77000000000000         5.047187802678910E-006
  -6.58000000000000         5.072223193276222E-006
  -6.39000000000000         5.098654764059879E-006
  -6.20000000000000         5.124345714589060E-006
  -6.01000000000001         5.149895986733810E-006
  -5.81999999999999         5.175321963517045E-006
  -5.63000000000000         5.200348216895802E-006
  -5.44000000000000         5.225578215596037E-006
  -5.25000000000000         5.251139618334791E-006
  -5.06000000000000         5.277207889407463E-006
  -4.87000000000000         5.303510283697766E-006
  -4.67999999999999         5.330000903769608E-006
  -4.48999999999999         5.355645780588879E-006
  -4.30000000000000         5.382540506673915E-006
  -4.11000000000000         5.408383408782452E-006
  -3.92000000000000         5.435441300350149E-006
  -3.73000000000000         5.461504542660925E-006
  -3.53999999999999         5.487520692401862E-006
  -3.34999999999999         5.513509467292505E-006
  -3.16000000000000         5.539256420414570E-006
  -2.97000000000000         5.564943353954608E-006
  -2.78000000000000         5.590657728147648E-006
  -2.59000000000000         5.615844496147646E-006
  -2.40000000000001         5.642550792906893E-006
  -2.20999999999999         5.669368796215803E-006
  -2.02000000000000         5.696213814804962E-006
  -1.83000000000000         5.722351214839538E-006
  -1.64000000000000         5.749694880362465E-006
  -1.45000000000000         5.776031302111901E-006
  -1.26000000000001         5.803275364717561E-006
  -1.06999999999999         5.828828125964870E-006
 -0.879999999999995         5.855465403793668E-006
 -0.689999999999998         5.881148523394301E-006
 -0.500000000000000         5.907687596736048E-006
 -0.310000000000002         5.933317943644367E-006
 -0.120000000000005         5.959276366310148E-006
  7.000000000000739E-002    5.985803950705915E-006
  0.260000000000005         6.013622113980338E-006
  0.450000000000003         6.040942055558760E-006
  0.640000000000001         6.068478983668809E-006
  0.829999999999998         6.096223006608034E-006
   1.02000000000000         6.123855329242042E-006
   1.21000000000001         6.150556223231227E-006
   1.40000000000001         6.178196165823140E-006
   1.59000000000000         6.205017009897134E-006
   1.78000000000000         6.232028693946845E-006
   1.97000000000000         6.258674783534810E-006
   2.16000000000000         6.285549335699206E-006
   2.34999999999999         6.312535873099394E-006
   2.54000000000001         6.339343827391363E-006
   2.73000000000000         6.366213916581891E-006
   2.92000000000000         6.393146175739624E-006
   3.11000000000000         6.420325195168727E-006
   3.30000000000000         6.447229730595538E-006
   3.48999999999999         6.475352527854311E-006
   3.68000000000001         6.502472982981480E-006
   3.87000000000000         6.530623902345491E-006
   4.06000000000000         6.557595395756483E-006
   4.25000000000000         6.584051789220914E-006
   4.44000000000000         6.610530285939078E-006
   4.63000000000000         6.636878171381535E-006
   4.82000000000001         6.663069381842012E-006
   5.01000000000001         6.688172937170706E-006
   5.20000000000000         6.714050643487824E-006
   5.39000000000000         6.739409355973956E-006
   5.58000000000000         6.765363913161679E-006
   5.77000000000000         6.792151077519319E-006
   5.96000000000001         6.818007825963745E-006
   6.15000000000001         6.845187692299440E-006
   6.34000000000000         6.872130873864104E-006
   6.53000000000000         6.898860361676132E-006