  -105.000000000000         0.000000000000000E+000
  -104.810000000000         9.503924823513204E-011
  -104.620000000000         1.706108580867629E-010
  -104.430000000000         2.036646488635253E-010
  -104.240000000000         1.980399143790449E-010
  -104.050000000000         1.847473086450499E-010
  -103.860000000000         1.981569536986486E-010
  -103.670000000000         2.817825010413561E-010
  -103.480000000000         4.748976940088133E-010
  -103.290000000000         7.651940438296664E-010
  -103.100000000000         8.797830368222486E-010
  -102.910000000000         8.001432304515590E-010
  -102.720000000000         5.053627872882273E-010
  -102.530000000000         2.710386902304961E-010
  -102.340000000000         7.255018414879564E-011
  -102.150000000000        -6.945860652594382E-012
  -101.960000000000         8.187304516597573E-011
  -101.770000000000         3.808420205276527E-010
  -101.580000000000         5.240591302229367E-010
  -101.390000000000         5.969775786814190E-010
  -101.200000000000         6.644470337972034E-010
  -101.010000000000         1.001933760919090E-009
  -100.820000000000         1.489201728757315E-009
  -100.630000000000         2.225729186055209E-009
  -100.440000000000         3.268208410723087E-009
  -100.250000000000         4.531910915261521E-009
  -100.060000000000         5.753951490345983E-009
  -99.8700000000000         6.871326262008239E-009
  -99.6800000000000         7.979016377273329E-009
  -99.4900000000000         9.168761855183542E-009
  -99.3000000000000         1.043735685820607E-008
  -99.1100000000000         1.177256958523867E-008
  -98.9200000000000         1.310569023230613E-008
  -98.7300000000000         1.427315359648962E-008
  -98.5400000000000         1.509529425913572E-008
  -98.3500000000000         1.564864616018884E-008
  -98.1600000000000         1.615094825612231E-008
  -97.9700000000000         1.674947834913734E-008
  -97.7800000000000         1.747176557465541E-008
  -97.5900000000000         1.832740982903830E-008
  -97.4000000000000         1.926063784644205E-008
  -97.2100000000000         2.014299682078583E-008
  -97.0200000000000         2.079598923156745E-008
  -96.8300000000000         2.108556937239820E-008
  -96.6400000000000         2.093612534684710E-008
  -96.4500000000000         2.116234464707967E-008
  -96.2600000000000         2.105006225053612E-008
  -96.0700000000000         2.144895463926446E-008
  -95.8800000000000         2.143819092509312E-008
  -95.6900000000000         2.180741728460299E-008
  -95.5000000000000         2.161590447236514E-008
  -95.3100000000000         2.135111043509658E-008
  -95.1200000000000         2.095091848897811E-008
  -94.9300000000000         2.058115288504978E-008
  -94.7400000000000         2.064916238513138E-008
  -94.5500000000000         2.093032777929284E-008
  -94.3600000000000         2.147017490329506E-008
  -94.1700000000000         2.224141996839903E-008
  -93.9800000000000         2.309656802049167E-008
  -93.7900000000000         2.383556398421612E-008
  -93.6000000000000         2.441311975468374E-008
  -93.4100000000000         2.453392827550625E-008
  -93.2200000000000         2.503589079919373E-008
  -93.0300000000000         2.494402762559448E-008
  -92.8400000000000         2.537274504694425E-008
  -92.6500000000000         2.525215219836260E-008
  -92.4600000000000         2.538674226588350E-008
  -92.2700000000000         2.457899397962310E-008
  -92.0800000000000         2.387207150607197E-008
  -91.8900000000000         2.293424590542355E-008
  -91.7000000000000         2.167947221310069E-008
  -91.5100000000000         2.013207324372859E-008
  -91.3200000000000         1.860534712436076E-008
  -91.1300000000000         1.735927598287058E-008
  -90.9400000000000         1.640268624554262E-008
  -90.7500000000000         1.596518782383518E-008
  -90.5600000000000         1.567570327842793E-008
  -90.3700000000000         1.562011997100883E-008
  -90.1800000000000         1.553596223445291E-008
  -89.9900000000000         1.520263592018961E-008
  -89.8000000000000         1.427378536702588E-008
  -89.6100000000000         1.392070430967104E-008
  -89.4200000000000         1.324210534188260E-008
  -89.2300000000000         1.355842529317674E-008
  -89.0400000000000         1.437753310676439E-008
  -88.8500000000000         1.561897194266100E-008
  -88.6600000000000         1.702336851857583E-008
  -88.4700000000000         1.819383727409933E-008
  -88.2800000000000         1.897207278193820E-008
  -88.0900000000000         1.938237783144069E-008
  -87.9000000000000         1.970727173579031E-008
  -87.7100000000000         2.026701027785539E-008
  -87.5200000000000         2.138266213034401E-008
  -87.3300000000000         2.373819581359739E-008
  -87.1400000000000         2.649412798046016E-008
  -86.9500000000000         2.951926788002289E-008
  -86.7600000000000         3.264997519388367E-008
  -86.5700000000000         3.586759170679396E-008
  -86.3800000000000         3.929896120825788E-008
  -86.1900000000000         4.300925720727665E-008
  -86.0000000000000         4.692932656701023E-008
  -85.8100000000000         5.072632516475524E-008
  -85.6200000000000         5.408099124538479E-008
  -85.4300000000000         5.665617518210191E-008
  -85.2400000000000         5.822091881508885E-008
  -85.0500000000000         5.892456761457832E-008
  -84.8600000000000         5.855293574921348E-008
  -84.6700000000000         5.889512974228583E-008
  -84.4800000000000         5.780551950908862E-008
  -84.2900000000000         5.673940207741438E-008
  -84.1000000000000         5.660081066700494E-008
  -83.9100000000000         5.555382860891538E-008
  -83.7200000000000         5.506826129127304E-008
  -83.5300000000000         5.531087333403160E-008
  -83.3400000000000         5.709893041483217E-008
  -83.1500000000000         5.839991264101651E-008
  -82.9600000000000         6.082283238938229E-008
  -82.7700000000000         6.222802419955609E-008
  -82.5800000000000         6.445268907323032E-008
  -82.3900000000000         6.511984903752587E-008
  -82.2000000000000         6.583956185311189E-008
  -82.0100000000000         6.623623657061464E-008
  -81.8200000000000         6.638540788706835E-008
  -81.6300000000000         6.619747115661058E-008
  -81.4400000000000         6.569785790347529E-008
  -81.2500000000000         6.507683121695951E-008
  -81.0600000000000         6.467802874285704E-008
  -80.8700000000000         6.483857151615333E-008
  -80.6800000000000         6.582937377327291E-008
  -80.4900000000000         6.789050854506608E-008
  -80.3000000000000         7.191560011262301E-008
  -80.1100000000000         7.517163033031839E-008
  -79.9200000000000         7.975105360553056E-008
  -79.7300000000000         8.260038356329826E-008
  -79.5400000000000         8.530902446979172E-008
  -79.3500000000000         8.716773965749622E-008
  -79.1600000000000         8.850985210387231E-008
  -78.9700000000000         8.940401620612150E-008
  -78.7800000000000         8.983508587007420E-008
  -78.5900000000000         8.986753850511339E-008
  -78.4000000000000         8.980151366979016E-008
  -78.2100000000000         8.995332164735788E-008
  -78.0200000000000         9.045949216706973E-008
  -77.8300000000000         9.132353539642235E-008
  -77.6400000000000         9.247304598197260E-008
  -77.4500000000000         9.377745981083509E-008
  -77.2600000000000         9.529121321862702E-008
  -77.0700000000000         9.747431218244539E-008
  -76.8800000000000         9.960585978003896E-008
  -76.6900000000000         1.015419772361717E-007
  -76.5000000000000         1.036374752104890E-007
  -76.3100000000000         1.056788805072952E-007
  -76.1200000000000         1.064918984589107E-007
  -75.9300000000000         1.071741139568308E-007
  -75.7400000000000         1.070843076051898E-007
  -75.5500000000000         1.064181112955371E-007
  -75.3600000000000         1.056036602590778E-007
  -75.1700000000000         1.050327611864550E-007
  -74.9800000000000         1.050453487369273E-007
  -74.7900000000000         1.057914920430917E-007
  -74.6000000000000         1.071986125373229E-007
  -74.4100000000000         1.094848961634880E-007
  -74.2200000000000         1.132454286198172E-007
  -74.0300000000000         1.142020229749448E-007
  -73.8400000000000         1.159326607753043E-007
  -73.6500000000000         1.178880521645500E-007
  -73.4600000000000         1.195783286071287E-007
  -73.2700000000000         1.216948528202544E-007
  -73.0800000000000         1.239909221379699E-007
  -72.8900000000000         1.267840304542836E-007
  -72.7000000000000         1.303052279725720E-007
  -72.5100000000000         1.341959328958975E-007
  -72.3200000000000         1.383533190984061E-007
  -72.1300000000000         1.428589770326824E-007
  -71.9400000000000         1.493773073777199E-007
  -71.7500000000000         1.532634656514684E-007
  -71.5600000000000         1.599584363011772E-007
  -71.3700000000000         1.638587498673983E-007
  -71.1800000000000         1.700420567764063E-007
  -70.9900000000000         1.722516421749681E-007
  -70.8000000000000         1.755428052893861E-007
  -70.6100000000000         1.770493918875767E-007
  -70.4200000000000         1.784396381001513E-007
  -70.2300000000000         1.796905909628442E-007
  -70.0400000000000         1.811227628542276E-007
  -69.8500000000000         1.830425316617998E-007
  -69.6600000000000         1.857556245736815E-007
  -69.4700000000000         1.892496165457012E-007
  -69.2800000000000         1.931942562243271E-007
  -69.0900000000000         1.975630640184549E-007
  -68.9000000000000         2.020130588933798E-007
  -68.7100000000000         2.061975628952353E-007
  -68.5200000000000         2.097549070335221E-007
  -68.3300000000000         2.126570365485077E-007
  -68.1400000000000         2.147962931441110E-007
  -67.9500000000000         2.157630207241278E-007
  -67.7600000000000         2.169353677497409E-007
  -67.5700000000000         2.179912921799332E-007
  -67.3800000000000         2.190414190729380E-007
  -67.1900000000000         2.202215568122855E-007
  -67.0000000000000         2.217491316348662E-007
  -66.8100000000000         2.239066199436510E-007
  -66.6200000000000         2.270701755485390E-007
  -66.4300000000000         2.315549735201565E-007
  -66.2400000000000         2.373401201858308E-007
  -66.0500000000000         2.442330720796100E-007
  -65.8600000000000         2.516706133533304E-007
  -65.6700000000000         2.589783632811930E-007
  -65.4800000000000         2.654139541226694E-007
  -65.2900000000000         2.707522020845964E-007
  -65.1000000000000         2.751757468525946E-007
  -64.9100000000000         2.789134690957787E-007
  -64.7200000000000         2.822966298029228E-007
  -64.5300000000000         2.856023789991484E-007
  -64.3400000000000         2.892296003810965E-007
  -64.1500000000000         2.928397410384803E-007
  -63.9600000000000         2.967620802056486E-007
  -63.7700000000000         3.010868949973205E-007
  -63.5800000000000         3.059369621858951E-007
  -63.3900000000000         3.113536842862104E-007
  -63.2000000000000         3.173252878862155E-007
  -63.0100000000000         3.237404448066034E-007
  -62.8200000000000         3.300570856020738E-007
  -62.6300000000000         3.359909272933678E-007
  -62.4400000000000         3.410711144358775E-007
  -62.2500000000000         3.459481690171546E-007
  -62.0600000000000         3.504998135990073E-007
  -61.8700000000000         3.547187063496174E-007
  -61.6800000000000         3.585639004620346E-007
  -61.4900000000000         3.621701313909964E-007
  -61.3000000000000         3.657286709041983E-007
  -61.1100000000000         3.693832538838371E-007
  -60.9200000000000         3.733268642946048E-007
  -60.7300000000000         3.778682135914128E-007
  -60.5400000000000         3.832273484590301E-007
  -60.3500000000000         3.893398317552991E-007
  -60.1600000000000         3.956640621908287E-007
  -59.9700000000000         4.017901374452964E-007
  -59.7800000000000         4.075189722692320E-007
  -59.5900000000000         4.126960939165068E-007
  -59.4000000000000         4.174441809357956E-007
  -59.2100000000000         4.220618350224198E-007
  -59.0200000000000         4.267378368495982E-007
  -58.8300000000000         4.318294473890353E-007
  -58.6400000000000         4.371971887533592E-007
  -58.4500000000000         4.428791821336629E-007
  -58.2600000000000         4.490234282196270E-007
  -58.0700000000000         4.557047036582432E-007
  -57.8800000000000         4.629152429556753E-007
  -57.6900000000000         4.706440016754270E-007
  -57.5000000000000         4.791285645762167E-007
  -57.3100000000000         4.880351589627618E-007
  -57.1200000000000         4.961706027683770E-007
  -56.9300000000000         5.039986607150424E-007
  -56.7400000000000         5.118833537498865E-007
  -56.5500000000000         5.199253603216271E-007
  -56.3600000000000         5.273433639792187E-007
  -56.1700000000000         5.349090097479177E-007
  -55.9800000000000         5.427924372999881E-007
  -55.7900000000000         5.511665848718320E-007
  -55.6000000000000         5.597273478677324E-007
  -55.4100000000000         5.686820907740044E-007
  -55.2200000000000         5.781663626264171E-007
  -55.0300000000000         5.881648839981174E-007
  -54.8400000000000         5.974719235357608E-007
  -54.6500000000000         6.066891871510459E-007
  -54.4600000000000         6.155555060890999E-007
  -54.2700000000000         6.241205387780206E-007
  -54.0800000000000         6.324818622401442E-007
  -53.8900000000000         6.408887190662591E-007
  -53.7000000000000         6.495872608317063E-007
  -53.5100000000000         6.586012345003398E-007
  -53.3200000000000         6.677907521758343E-007
  -53.1300000000000         6.770953381252395E-007
  -52.9400000000000         6.867691350137881E-007
  -52.7500000000000         6.965354624498954E-007
  -52.5600000000000         7.068461692495985E-007
  -52.3700000000000         7.179535394153754E-007
  -52.1800000000000         7.297509238233342E-007
  -51.9900000000000         7.421382018161947E-007
  -51.8000000000000         7.548224420366750E-007
  -51.6100000000000         7.673470103034858E-007
  -51.4200000000000         7.798825678634773E-007
  -51.2300000000000         7.918415511889788E-007
  -51.0400000000000         8.034440201356940E-007
  -50.8500000000000         8.147224349873988E-007
  -50.6600000000000         8.258910481344201E-007
  -50.4700000000000         8.370130958042200E-007
  -50.2800000000000         8.481596766791441E-007
  -50.0900000000000         8.594305474269344E-007
  -49.9000000000000         8.708970443556471E-007
  -49.7100000000000         8.827189582153926E-007
  -49.5200000000000         8.948222876873830E-007
  -49.3300000000000         9.071036788456746E-007
  -49.1400000000000         9.196931274883983E-007
  -48.9500000000000         9.322642230982132E-007
  -48.7600000000000         9.445191922112588E-007
  -48.5700000000000         9.562493389592363E-007
  -48.3800000000000         9.672902510689562E-007
  -48.1900000000000         9.775884075681979E-007
  -48.0000000000000         9.871325246658893E-007
  -47.8100000000000         9.961150351248074E-007
  -47.6200000000000         1.004877208713490E-006
  -47.4300000000000         1.013973926800038E-006
  -47.2400000000000         1.023598386658108E-006
  -47.0500000000000         1.033948851873159E-006
  -46.8600000000000         1.044923055969668E-006
  -46.6700000000000         1.056392019312176E-006
  -46.4800000000000         1.067964529326089E-006
  -46.2900000000000         1.079259990933659E-006
  -46.1000000000000         1.090117085571739E-006
  -45.9100000000000         1.100723242874976E-006
  -45.7200000000000         1.111274500202990E-006
  -45.5300000000000         1.122024976915751E-006
  -45.3400000000000         1.133360438092559E-006
  -45.1500000000000         1.145373453380641E-006
  -44.9600000000000         1.158014425328882E-006
  -44.7700000000000         1.171123385045358E-006
  -44.5800000000000         1.184727586103910E-006
  -44.3900000000000         1.198803515395805E-006
  -44.2000000000000         1.213264620093404E-006
  -44.0100000000000         1.228221682026218E-006
  -43.8200000000000         1.243897618993860E-006
  -43.6300000000000         1.260307569888680E-006
  -43.4400000000000         1.277068205603849E-006
  -43.2500000000000         1.293748332992056E-006
  -43.0600000000000         1.310400785272258E-006
  -42.8700000000000         1.326898311624001E-006
  -42.6800000000000         1.343012219114845E-006
  -42.4900000000000         1.358805244007806E-006
  -42.3000000000000         1.374432229944337E-006
  -42.1100000000000         1.390164918987375E-006
  -41.9200000000000         1.406146720993987E-006
  -41.7300000000000         1.422317991187532E-006
  -41.5400000000000         1.438930109372147E-006
  -41.3500000000000         1.455812476519064E-006
  -41.1600000000000         1.473047814345449E-006
  -40.9700000000000         1.490526075663765E-006
  -40.7800000000000         1.507919197964855E-006
  -40.5900000000000         1.525181055222538E-006
  -40.4000000000000         1.542253233712980E-006
  -40.2100000000000         1.558886726936690E-006
  -40.0200000000000         1.575247193997858E-006
  -39.8300000000000         1.591549867071429E-006
  -39.6400000000000         1.607752164642427E-006
  -39.4500000000000         1.624276624261083E-006
  -39.2600000000000         1.641132868118658E-006
  -39.0700000000000         1.658713705983928E-006
  -38.8800000000000         1.676891086388236E-006
  -38.6900000000000         1.695917148814774E-006
  -38.5000000000000         1.715884309312939E-006
  -38.3100000000000         1.736652514068711E-006
  -38.1200000000000         1.757884717688610E-006
  -37.9300000000000         1.779352454031572E-006
  -37.7400000000000         1.800558451859270E-006
  -37.5500000000000         1.821246933277120E-006
  -37.3600000000000         1.841482228996873E-006
  -37.1700000000000         1.861059124533920E-006
  -36.9800000000000         1.880085801950181E-006
  -36.7900000000000         1.899037482739039E-006
  -36.6000000000000         1.918098947290843E-006
  -36.4100000000000         1.937087941858972E-006
  -36.2200000000000         1.956648005587838E-006
  -36.0300000000000         1.977117519167534E-006
  -35.8400000000000         1.997884107075931E-006
  -35.6500000000000         2.018732707061120E-006
  -35.4600000000000         2.040288347040843E-006
  -35.2700000000000         2.062604315539460E-006
  -35.0800000000000         2.084519790541803E-006
  -34.8900000000000         2.106002251735724E-006
  -34.7000000000000         2.127847847238163E-006
  -34.5100000000000         2.148922046928216E-006
  -34.3200000000000         2.169808423801225E-006
  -34.1300000000000         2.190509722764558E-006
  -33.9400000000000         2.211588587571450E-006
  -33.7500000000000         2.232886733197046E-006
  -33.5600000000000         2.254138477176229E-006
  -33.3700000000000         2.275693474946781E-006
  -33.1800000000000         2.297429615582962E-006
  -32.9900000000000         2.318611772810508E-006
  -32.8000000000000         2.341507518469886E-006
  -32.6100000000000         2.364314780489849E-006
  -32.4200000000000         2.387774432521968E-006
  -32.2300000000000         2.411644704741575E-006
  -32.0400000000000         2.435542025677385E-006
  -31.8500000000000         2.458325734114797E-006
  -31.6600000000000         2.482111178172096E-006
  -31.4700000000000         2.504187503136279E-006
  -31.2800000000000         2.526663358755556E-006
  -31.0900000000000         2.548795472819361E-006
  -30.9000000000000         2.571472502146810E-006
  -30.7100000000000         2.594870359409585E-006
  -30.5200000000000         2.617757269618465E-006
  -30.3300000000000         2.641073558855037E-006
  -30.1400000000000         2.664845359537247E-006
  -29.9500000000000         2.689088858123813E-006
  -29.7600000000000         2.714450018379030E-006
  -29.5700000000000         2.740946671990809E-006
  -29.3800000000000         2.766347319202345E-006
  -29.1900000000000         2.792424293434254E-006
  -29.0000000000000         2.818331196486665E-006
  -28.8100000000000         2.844003013434403E-006
  -28.6200000000000         2.869096144811016E-006
  -28.4300000000000         2.895861776561981E-006
  -28.2400000000000         2.920570082314091E-006
  -28.0500000000000         2.946160186711278E-006
  -27.8600000000000         2.971890689012797E-006
  -27.6700000000000         2.997758943007764E-006
  -27.4800000000000         3.023106049081985E-006
  -27.2900000000000         3.049703908067610E-006
  -27.1000000000000         3.075695096923030E-006
  -26.9100000000000         3.103168711078957E-006
  -26.7200000000000         3.129851615297088E-006
  -26.5300000000000         3.156923686673281E-006
  -26.3400000000000         3.183045275615509E-006
  -26.1500000000000         3.210035213497563E-006
  -25.9600000000000         3.235574209875399E-006
  -25.7700000000000         3.261488823858009E-006
  -25.5800000000000         3.287319381010460E-006
  -25.3900000000000         3.313357269401515E-006
  -25.2000000000000         3.339353050950567E-006
  -25.0100000000000         3.364847931981944E-006
  -24.8200000000000         3.391743879315489E-006
  -24.6300000000000         3.418492551002999E-006
  -24.4400000000000         3.445771141177881E-006
  -24.2500000000000         3.473795065633717E-006
  -24.0600000000000         3.502195688621418E-006
  -23.8700000000000         3.530464054220485E-006
  -23.6800000000000         3.560353908143570E-006
  -23.4900000000000         3.589218300397404E-006
  -23.3000000000000         3.616106392424390E-006
  -23.1100000000000         3.649024068553061E-006
  -22.9200000000000         3.678554751648538E-006
  -22.7300000000000         3.709149418837783E-006
  -22.5400000000000         3.740127319091533E-006
  -22.3500000000000         3.771511399415795E-006
  -22.1600000000000         3.803268315292454E-006
  -21.9700000000000         3.835146149606723E-006
  -21.7800000000000         3.867147797731205E-006
  -21.5900000000000         3.898324304755121E-006
  -21.4000000000000         3.928377661806702E-006
  -21.2100000000000         3.963604703243057E-006
  -21.0200000000000         3.991246253635309E-006
  -20.8300000000000         4.022784493766319E-006
  -20.6400000000000         4.054348273968705E-006
  -20.4500000000000         4.085647314290166E-006
  -20.2600000000000         4.117092727551882E-006
  -20.0700000000000         4.147917796592091E-006
  -19.8800000000000         4.179034886437653E-006
  -19.6900000000000         4.210397081376351E-006
  -19.5000000000000         4.242195912599456E-006
  -19.3100000000000         4.274630484711254E-006
  -19.1200000000000         4.307650468123443E-006
  -18.9300000000000         4.341227308046950E-006
  -18.7400000000000         4.374872303421112E-006
  -18.5500000000000         4.408947128701885E-006
  -18.3600000000000         4.443044003666552E-006
  -18.1700000000000         4.477179271604990E-006
  -17.9800000000000         4.511229879236267E-006
  -17.7900000000000         4.545473691242336E-006
  -17.6000000000000         4.578598167396566E-006
  -17.4100000000000         4.614189187004281E-006
  -17.2200000000000         4.647083272261502E-006
  -17.0300000000000         4.683005289817006E-006
  -16.8400000000000         4.714939318679065E-006
  -16.6500000000000         4.750515817449861E-006
  -16.4600000000000         4.783609336014318E-006
  -16.2700000000000         4.819156627280689E-006
  -16.0800000000000         4.851895461603699E-006
  -15.8900000000000         4.886485814084217E-006
  -15.7000000000000         4.918311475566993E-006
  -15.5100000000000         4.951256115935659E-006
  -15.3200000000000         4.982619684404566E-006
  -15.1300000000000         5.015397880766064E-006
  -14.9400000000000         5.048203539654355E-006
  -14.7500000000000         5.081224136771820E-006
  -14.5600000000000         5.111470529276877E-006
  -14.3700000000000         5.147449763928967E-006
  -14.1800000000000         5.180214253530444E-006
  -13.9900000000000         5.214174048262284E-006
  -13.8000000000000         5.250858000923629E-006
  -13.6100000000000         5.287117360719370E-006
  -13.4200000000000         5.323870394220637E-006
  -13.2300000000000         5.360995827063778E-006
  -13.0400000000000         5.397980438671879E-006
  -12.8500000000000         5.434717923187482E-006
  -12.6600000000000         5.467933073128042E-006
  -12.4700000000000         5.506692643877135E-006
  -12.2800000000000         5.539458114914582E-006
  -12.0900000000000         5.574375328753785E-006
  -11.9000000000000         5.607453641271828E-006
  -11.7100000000000         5.643176416898214E-006
  -11.5200000000000         5.675917332317635E-006
  -11.3300000000000         5.711876936241507E-006
  -11.1400000000000         5.747132205101454E-006
  -10.9500000000000         5.783253240296345E-006
  -10.7600000000000         5.818210122908033E-006
  -10.5700000000000         5.856496280206024E-006
  -10.3800000000000         5.891321643009031E-006
  -10.1900000000000         5.926801934112000E-006
  -10.0000000000000         5.961741750775996E-006
  -9.81000000000000         5.995869195912087E-006
  -9.62000000000000         6.026715408862202E-006
  -9.42999999999999         6.062774452684883E-006
  -9.23999999999999         6.092870991753183E-006
  -9.05000000000000         6.125516736011601E-006
  -8.86000000000000         6.160017637334321E-006
  -8.67000000000000         6.191771460922392E-006
  -8.48000000000000         6.225187469077375E-006
  -8.28999999999999         6.262984844779861E-006
  -8.09999999999999         6.295382310640683E-006
  -7.91000000000000         6.332897405479786E-006
  -7.72000000000000         6.368151035395904E-006
  -7.53000000000000         6.406322786522250E-006
  -7.34000000000000         6.441807736666229E-006
  -7.15000000000001         6.476589770443934E-006
  -6.95999999999999         6.515779229237273E-006
  -6.77000000000000         6.554610033962257E-006
  -6.58000000000000         6.586878590401077E-006
  -6.39000000000000         6.622971620844184E-006
  -6.20000000000000         6.657275408471648E-006
  -6.01000000000001         6.691956231387384E-006
  -5.81999999999999         6.726773908351609E-006
  -5.63000000000000         6.760874492834479E-006
  -5.44000000000000         6.795506160889020E-006
  -5.25000000000000         6.830552159424351E-006
  -5.06000000000000         6.866406125886037E-006
  -4.87000000000000         6.902450575474241E-006
  -4.67999999999999         6.938789160870287E-006
  -4.48999999999999         6.973190139231502E-006
  -4.30000000000000         7.010960507449589E-006
  -4.11000000000000         7.045698310469699E-006
  -3.92000000000000         7.083707235159826E-006
  -3.73000000000000         7.118809469323579E-006
  -3.53999999999999         7.154422992901811E-006
  -3.34999999999999         7.190138809099322E-006
  -3.16000000000000         7.225442502787768E-006
  -2.97000000000000         7.260826171611560E-006
  -2.78000000000000         7.296284090059653E-006
  -2.59000000000000         7.330273204866475E-006
  -2.40000000000001         7.368098933858318E-006
  -2.20999999999999         7.404965149342742E-006
  -2.02000000000000         7.441828363531621E-006
  -1.83000000000000         7.476929020852624E-006
  -1.64000000000000         7.515429816708804E-006
  -1.45000000000000         7.550693862336670E-006
  -1.26000000000001         7.588989320105626E-006
  -1.06999999999999         7.622488626787372E-006
 -0.879999999999995         7.660146884807377E-006
 -0.689999999999998         7.694465874470806E-006
 -0.500000000000000         7.732086162336583E-006
 -0.310000000000002         7.766555720769300E-006
 -0.120000000000005         7.802559640635472E-006
  7.000000000000739E-002    7.839292464622853E-006
  0.260000000000005         7.878555873119922E-006
  0.450000000000003         7.915284521243083E-006
  0.640000000000001         7.952870143169930E-006
  0.829999999999998         7.990766024305787E-006
   1.02000000000000         8.028434227374721E-006
   1.21000000000001         8.063922885605750E-006
   1.40000000000001         8.102828113022033E-006
   1.59000000000000         8.138387569211605E-006
   1.78000000000000         8.175299672726038E-006
   1.97000000000000         8.210669321936680E-006
   2.16000000000000         8.247242601258732E-006
   2.34999999999999         8.283901115708515E-006
   2.54000000000001         8.320258325568630E-006
   2.73000000000000         8.357031627267198E-006
   2.92000000000000         8.393562312041383E-006
   3.11000000000000         8.430430812426356E-006
   3.30000000000000         8.465913830602053E-006
   3.48999999999999         8.505325694955237E-006
   3.68000000000001         8.539819326045368E-006
   3.87000000000000         8.579823848552182E-006
   4.06000000000000         8.614292536178948E-006
   4.25000000000000         8.650327944914755E-006
   4.44000000000000         8.686310368977192E-006
   4.63000000000000         8.722166145325864E-006
   4.82000000000001         8.757811520662323E-006
   5.01000000000001         8.790040781567395E-006
   5.20000000000000         8.827647448924823E-006
   5.39000000000000         8.859883144038320E-006
   5.58000000000000         8.897856431371247E-006
   5.77000000000000         8.934355405478635E-006
   5.96000000000001         8.967850499650251E-006
   6.15000000000001         9.007326270924044E-006
   6.34000000000000         9.041799084795079E-006
   6.53000000000000         9.078460036555564E-006