  -1.42500000000000         0.000000000000000E+000
  -1.23500000000000         2.669167355044983E-014
  -1.04500000000000         3.931748943350768E-013
 -0.855000000000000         2.766569687338831E-012
 -0.665000000000000         1.367135098685716E-011
 -0.475000000000000         5.524906955937498E-011
 -0.285000000000000         1.875819166271867E-010
 -9.499999999999975E-002    5.527415116256057E-010
  9.500000000000020E-002    1.436367778465350E-009
  0.285000000000000         3.313960343898071E-009
  0.475000000000000         6.882030086281536E-009
  0.665000000000000         1.296833028012144E-008
  0.855000000000000         2.249585433008291E-008
   1.04500000000000         3.615151245463298E-008
   1.23500000000000         5.435796180640198E-008
   1.42500000000000         7.701393352606442E-008
   1.61500000000000         1.033601622949001E-007
   1.80500000000000         1.320132571768422E-007
   1.99500000000000         1.610705556554771E-007
   2.18500000000000         1.883380561137376E-007
   2.37500000000000         2.114587288589351E-007
   2.56500000000000         2.280118784928521E-007
   2.75500000000000         2.357037211748903E-007
   2.94500000000000         2.342824108931796E-007
   3.13500000000000         2.206702672705804E-007
   3.32500000000000         1.946570670725680E-007
   3.51500000000000         1.560650166507895E-007
   3.70500000000000         1.060358718833927E-007
   3.89500000000000         4.672383092217988E-008
   4.08500000000000        -1.838724122324478E-008
   4.27500000000000        -8.453539722626126E-008
   4.46500000000000        -1.458997354676247E-007
   4.65500000000000        -1.961891679067094E-007
   4.84500000000000        -2.289367977653614E-007
   5.03500000000000        -2.384074409285511E-007
   5.22500000000000        -2.211032753452112E-007
   5.41500000000000        -1.746845428976829E-007
   5.60500000000000        -1.004521853855824E-007
   5.79500000000000        -1.367834071679758E-009
   5.98500000000000         1.156394780701833E-007
   6.17500000000000         2.421477794394343E-007
   6.36500000000000         3.693007263130766E-007
   6.55500000000000         4.884011252501689E-007
   6.74500000000000         5.910131347907491E-007
   6.93500000000000         6.711918628025649E-007
   7.12500000000000         7.235301823218583E-007
   7.31500000000000         7.454035362570237E-007
   7.50500000000000         7.364038623069218E-007
   7.69500000000000         6.979842843961807E-007
   7.88500000000000         6.337498411734216E-007
   8.07500000000000         5.488668677004631E-007
   8.26500000000000         4.514623262991063E-007
   8.45500000000000         3.389442361367815E-007
   8.64500000000000         2.253249624032475E-007
   8.83500000000000         1.099375085903426E-007
   9.02500000000000         3.111451548914468E-009
   9.21500000000000        -8.789848188384540E-008
   9.40500000000000        -1.563228279244155E-007
   9.59500000000000        -1.969347724506958E-007
   9.78500000000000        -2.037568901103724E-007
   9.97500000000000        -1.779964331343087E-007
   10.1650000000000        -1.185324657220991E-007
   10.3550000000000        -2.872642402305394E-008
   10.5450000000000         8.434772809240750E-008
   10.7350000000000         2.114705674559555E-007
   10.9250000000000         3.421803138789273E-007
   11.1150000000000         4.619010390252966E-007
   11.3050000000000         5.621885975859596E-007
   11.4950000000000         6.349862784054075E-007
   11.6850000000000         6.761459141491675E-007
   11.8750000000000         6.854371755088568E-007
   12.0650000000000         6.636805291523196E-007
   12.2550000000000         6.190180489840383E-007
   12.4450000000000         5.591754430698167E-007
   12.6350000000000         4.931315038926348E-007
   12.8250000000000         4.300004238516744E-007
   13.0150000000000         3.822582857669956E-007
   13.2050000000000         3.457943240079680E-007
   13.3950000000000         3.382638336055135E-007
   13.5850000000000         3.483002108998982E-007
   13.7750000000000         3.894594348700992E-007
   13.9650000000000         4.564625590594556E-007
   14.1550000000000         5.506495351907691E-007
   14.3450000000000         6.732613966184858E-007
   14.5350000000000         8.218928677701309E-007
   14.7250000000000         9.921662102037811E-007
   14.9150000000000         1.176349287876152E-006
   15.1050000000000         1.364320423308680E-006
   15.2950000000000         1.539854714423846E-006
   15.4850000000000         1.687752033424577E-006
   15.6750000000000         1.794418583912045E-006
   15.8650000000000         1.846576765523936E-006
   16.0550000000000         1.834552076734576E-006
   16.2450000000000         1.755061604743171E-006
   16.4350000000000         1.607587279517258E-006
   16.6250000000000         1.401026128920828E-006
   16.8150000000000         1.148942629854232E-006
   17.0050000000000         8.696532171298808E-007
   17.1950000000000         5.832918228919592E-007
   17.3850000000000         3.093367144273532E-007
   17.5750000000000         6.528501969671800E-008
   17.7650000000000        -1.320089180591733E-007
   17.9550000000000        -2.775593026943187E-007
   18.1450000000000        -3.677843893593963E-007
   18.3350000000000        -3.994775913172952E-007
   18.5250000000000        -3.739431920827847E-007
   18.7150000000000        -3.059877457154432E-007
   18.9050000000000        -1.939628645691643E-007
   19.0950000000000        -4.612638398662162E-008
   19.2850000000000         1.302557075746435E-007
   19.4750000000000         3.257532988376118E-007
   19.6650000000000         5.291672149521950E-007
   19.8550000000000         7.271954119988679E-007
   20.0450000000000         9.054613210735504E-007
   20.2350000000000         1.043770804252109E-006
   20.4250000000000         1.128251560346784E-006
   20.6150000000000         1.146784581321840E-006
   20.8050000000000         1.090456819504801E-006
   20.9950000000000         9.595244469773865E-007
   21.1850000000000         7.564755194687697E-007
   21.3750000000000         4.933876482869396E-007
   21.5650000000000         1.885060738861957E-007
   21.7550000000000        -1.356439726575403E-007
   21.9450000000000        -4.529682056036032E-007
   22.1350000000000        -7.401699789957827E-007
   22.3250000000000        -9.766665942828432E-007
   22.5150000000000        -1.147451122194523E-006
   22.7050000000000        -1.245336037295594E-006
   22.8950000000000        -1.261747640180509E-006
   23.0850000000000        -1.215717187866037E-006
   23.2750000000000        -1.106306221409991E-006
   23.4650000000000        -9.467939016612728E-007
   23.6550000000000        -7.519867286975540E-007
   23.8450000000000        -5.416114378867141E-007
   24.0350000000000        -3.210304322123565E-007
   24.2250000000000        -1.031906686635028E-007
   24.4150000000000         9.696004110188728E-008
   24.6050000000000         2.682642531965765E-007
   24.7950000000000         4.047371756472246E-007
   24.9850000000000         4.927479497194172E-007
   25.1750000000000         5.196500604426495E-007
   25.3650000000000         4.813828306552113E-007
   25.5550000000000         3.751570090290105E-007
   25.7450000000000         2.045510077799051E-007
   25.9350000000000        -1.760301983901380E-008
   26.1250000000000        -2.721118033601295E-007
   26.3150000000000        -5.350412694167047E-007
   26.5050000000000        -7.751333655809492E-007
   26.6950000000000        -9.660871823653351E-007
   26.8850000000000        -1.083290811917363E-006
   27.0750000000000        -1.109963904278135E-006
   27.2650000000000        -1.033912465557780E-006
   27.4550000000000        -8.556854143354058E-007
   27.6450000000000        -5.840373030528942E-007
   27.8350000000000        -2.361020113169387E-007
   28.0250000000000         1.634353154132435E-007
   28.2150000000000         5.854573665719042E-007
   28.4050000000000         1.000139664177259E-006
   28.5950000000000         1.385516251085217E-006
   28.7850000000000         1.716160360981636E-006
   28.9750000000000         1.976382048460838E-006
   29.1650000000000         2.151565614598642E-006
   29.3550000000000         2.233184450017822E-006
   29.5450000000000         2.230453902957939E-006
   29.7350000000000         2.134131238281165E-006
   29.9250000000000         1.953707551141487E-006
   30.1150000000000         1.700003122813354E-006
   30.3050000000000         1.389331953087926E-006
   30.4950000000000         1.041196849538751E-006
   30.6850000000000         6.790430377105829E-007
   30.8750000000000         3.360957050897411E-007
   31.0650000000000         3.802759533493679E-008
   31.2550000000000        -1.937559141678917E-007
   31.4450000000000        -3.277289359335516E-007
   31.6350000000000        -3.508887877478123E-007
   31.8250000000000        -2.561988257666542E-007
   32.0150000000000        -4.960194527750755E-008
   32.2050000000000         2.499884110383399E-007
   32.3950000000000         6.163771633397446E-007
   32.5850000000000         1.013078848286368E-006
   32.7750000000000         1.403554183997477E-006
   32.9650000000000         1.752385853037461E-006
   33.1550000000000         2.029301475040718E-006
   33.3450000000000         2.211048458154581E-006
   33.5350000000000         2.285881149595696E-006
   33.7250000000000         2.249196635439581E-006
   33.9150000000000         2.112279086159136E-006
   34.1050000000000         1.889656386048511E-006
   34.2950000000000         1.609432452373097E-006
   34.4850000000000         1.296723195278868E-006
   34.6750000000000         9.735437946692385E-007
   34.8650000000000         6.646645460594546E-007
   35.0550000000000         3.912723143076141E-007
   35.2450000000000         1.715565771799724E-007
   35.4350000000000         1.829114311553364E-008
   35.6250000000000        -5.587085868756712E-008
   35.8150000000000        -4.182926919706527E-008
   36.0050000000000         5.130853069185553E-008
   36.1950000000000         2.296677667463278E-007
   36.3850000000000         4.827983115382337E-007
   36.5750000000000         7.958556780381881E-007
   36.7650000000000         1.148593927695385E-006
   36.9550000000000         1.516335089914842E-006
   37.1450000000000         1.869009617991814E-006
   37.3350000000000         2.180834597907167E-006
   37.5250000000000         2.427226617910399E-006
   37.7150000000000         2.588631235206709E-006
   37.9050000000000         2.655542268740191E-006
   38.0950000000000         2.624694977775834E-006
   38.2850000000000         2.499459624052618E-006
   38.4750000000000         2.296577971532195E-006
   38.6650000000000         2.042893969551592E-006
   38.8550000000000         1.761564636998920E-006
   39.0450000000000         1.479107460522292E-006
   39.2350000000000         1.215749509207392E-006
   39.4250000000000         9.894081628248387E-007
   39.6150000000000         8.122125103244744E-007
   39.8050000000000         6.906838844368732E-007
   39.9950000000000         6.220169691582865E-007
   40.1850000000000         6.033777022895784E-007
   40.3750000000000         6.267386625774112E-007
   40.5650000000000         6.719840671801472E-007
   40.7550000000000         7.429651070752638E-007
   40.9450000000000         8.274818027616756E-007
   41.1350000000000         9.182141912312635E-007
   41.3250000000000         1.007559459390319E-006
   41.5150000000000         1.090432644148079E-006
   41.7050000000000         1.149599757268548E-006
   41.8950000000000         1.177905955029326E-006
   42.0850000000000         1.175903371453805E-006
   42.2750000000000         1.128461105204474E-006
   42.4650000000000         1.033001014387400E-006
   42.6550000000000         8.896669200222874E-007
   42.8450000000000         7.033178819758116E-007
   43.0350000000000         4.838554661026878E-007
   43.2250000000000         2.450294865768124E-007
   43.4150000000000         3.853244370623383E-009
   43.6050000000000        -2.230166908357805E-007
   43.7950000000000        -4.217197348894212E-007
   43.9850000000000        -5.806238793045773E-007
   44.1750000000000        -6.936824417108509E-007
   44.3650000000000        -7.596496001897744E-007
   44.5550000000000        -7.812316201388763E-007
   44.7450000000000        -7.691515540553539E-007
   44.9350000000000        -7.195414177116181E-007
   45.1250000000000        -6.419901822725760E-007
   45.3150000000000        -5.559224688096135E-007
   45.5050000000000        -4.494032626291165E-007
   45.6950000000000        -3.266760170407070E-007
   45.8850000000000        -1.868387259140457E-007
   46.0750000000000        -2.885201903630113E-008
   46.2650000000000         1.469094958836412E-007
   46.4550000000000         3.371976616753070E-007
   46.6450000000000         5.346359479435616E-007
   46.8350000000000         7.288485078960507E-007
   47.0250000000000         9.117921917960347E-007
   47.2150000000000         1.077465758084234E-006
   47.4050000000000         1.210139523021428E-006
   47.5950000000000         1.306001930723612E-006
   47.7850000000000         1.365872270987314E-006
   47.9750000000000         1.392092111246842E-006
   48.1650000000000         1.393638123793139E-006
   48.3550000000000         1.378318785209581E-006
   48.5450000000000         1.355433139127178E-006
   48.7350000000000         1.334824204142273E-006
   48.9250000000000         1.322777277934090E-006
   49.1150000000000         1.328772497939695E-006
   49.3050000000000         1.341071927215070E-006
   49.4950000000000         1.372597386087802E-006
   49.6850000000000         1.403713665933837E-006
   49.8750000000000         1.441525470330756E-006
   50.0650000000000         1.481000029302143E-006
   50.2550000000000         1.511273107657674E-006
   50.4450000000000         1.547102457199789E-006
   50.6350000000000         1.586995723912531E-006
   50.8250000000000         1.635221946274496E-006
   51.0150000000000         1.696342993199614E-006
   51.2050000000000         1.764320979774444E-006
   51.3950000000000         1.839450415718942E-006
   51.5850000000000         1.923537661818515E-006
   51.7750000000000         2.003448082145754E-006
   51.9650000000000         2.071466962260160E-006
   52.1550000000000         2.119979154558801E-006
   52.3450000000000         2.144714852457535E-006
   52.5350000000000         2.139007910443389E-006
   52.7250000000000         2.115086980578235E-006
   52.9150000000000         2.073760222808976E-006
   53.1050000000000         2.020232910509228E-006
   53.2950000000000         1.962045612026911E-006
   53.4850000000000         1.910241218342525E-006
   53.6750000000000         1.870591309752239E-006
   53.8650000000000         1.842274352272235E-006
   54.0550000000000         1.825782126969778E-006
   54.2450000000000         1.821203582952742E-006
   54.4350000000000         1.824403216180109E-006
   54.6250000000000         1.830770435760612E-006
   54.8150000000000         1.837214866041785E-006
   55.0050000000000         1.843602510347743E-006
   55.1950000000000         1.850737551210765E-006
   55.3850000000000         1.860713079005490E-006
   55.5750000000000         1.877766356735420E-006
   55.7650000000000         1.904142824205641E-006
   55.9550000000000         1.945770993424665E-006
   56.1450000000000         2.001055441962289E-006
   56.3350000000000         2.059182282944857E-006
   56.5250000000000         2.112263019216643E-006
   56.7150000000000         2.149409494432199E-006
   56.9050000000000         2.159259781627599E-006
   57.0950000000000         2.132432535546638E-006
   57.2850000000000         2.062557549989727E-006
   57.4750000000000         1.955970709818624E-006
   57.6650000000000         1.812661960936055E-006
   57.8550000000000         1.636280042011785E-006
   58.0450000000000         1.447833381107194E-006
   58.2350000000000         1.259095972068974E-006
   58.4250000000000         1.083443456796342E-006
   58.6150000000000         9.322480532502580E-007
   58.8050000000000         8.091429737942823E-007
   58.9950000000000         7.221592087651844E-007
   59.1850000000000         6.810602954546937E-007
   59.3750000000000         6.724519958094585E-007
   59.5650000000000         7.067363212806756E-007
   59.7550000000000         7.789183724077744E-007
   59.9450000000000         8.874307252258487E-007
   60.1350000000000         1.023784943281793E-006
   60.3250000000000         1.193698828791217E-006
   60.5150000000000         1.391246447410007E-006
   60.7050000000000         1.610019564386529E-006
   60.8950000000000         1.840423224883739E-006
   61.0850000000000         2.065992614424817E-006
   61.2750000000000         2.271953716150476E-006
   61.4650000000000         2.441095272657591E-006
   61.6550000000000         2.557369280071444E-006
   61.8450000000000         2.608573355951394E-006
   62.0350000000000         2.588869562231449E-006
   62.2250000000000         2.495504448300785E-006
   62.4150000000000         2.330079771409682E-006
   62.6050000000000         2.114860484504775E-006
   62.7950000000000         1.867087031379206E-006
   62.9850000000000         1.610772453281205E-006
   63.1750000000000         1.366000330788052E-006
   63.3650000000000         1.155190228435311E-006
   63.5550000000000         9.968155170492221E-007
   63.7450000000000         9.069582995581687E-007
   63.9350000000000         8.844058356441807E-007
   64.1250000000000         9.277321387088534E-007
   64.3150000000000         1.028720428228180E-006
   64.5050000000000         1.178417438094409E-006
   64.6950000000000         1.367356940495214E-006
   64.8850000000000         1.580129069990262E-006
   65.0750000000000         1.795654720258566E-006
   65.2650000000000         2.003036703643792E-006
   65.4550000000000         2.188481884181569E-006
   65.6450000000000         2.338742920008815E-006
   65.8350000000000         2.442280907751629E-006
   66.0250000000000         2.487638859225001E-006
   66.2150000000000         2.467671571387064E-006
   66.4050000000000         2.378407696190481E-006
   66.5950000000000         2.223716588766766E-006
   66.7850000000000         2.011191878396650E-006
   66.9750000000000         1.757317173951417E-006
   67.1650000000000         1.481637587371161E-006
   67.3550000000000         1.208013899152034E-006
   67.5450000000000         9.621984958709148E-007
   67.7350000000000         7.721235395010001E-007
   67.9250000000000         6.615225326551917E-007
   68.1150000000000         6.432880873496569E-007
   68.3050000000000         7.288242524514811E-007
   68.4950000000000         9.112875420214677E-007
   68.6850000000000         1.182931270833893E-006
   68.8750000000000         1.525407457037826E-006
   69.0650000000000         1.913890445156462E-006
   69.2550000000000         2.318489248199510E-006
   69.4450000000000         2.710441983163347E-006
   69.6350000000000         3.065398192822687E-006
   69.8250000000000         3.361065733475432E-006
   70.0150000000000         3.579276073281068E-006
   70.2050000000000         3.710312336557880E-006
   70.3950000000000         3.748093786417544E-006
   70.5850000000000         3.690735642517054E-006
   70.7750000000000         3.549954360615357E-006
   70.9650000000000         3.334389865003512E-006
   71.1550000000000         3.058510393296835E-006
   71.3450000000000         2.740451824075914E-006
   71.5350000000000         2.401520089252158E-006
   71.7250000000000         2.065823384865155E-006
   71.9150000000000         1.757894274135890E-006
   72.1050000000000         1.501986735577930E-006
   72.2950000000000         1.319660245246302E-006
   72.4850000000000         1.226964846010096E-006
   72.6750000000000         1.235514450137370E-006
   72.8650000000000         1.347587104821363E-006
   73.0550000000000         1.553933531473627E-006
   73.2450000000000         1.838174275681519E-006
   73.4350000000000         2.177527329390520E-006
   73.6250000000000         2.542639243576964E-006
   73.8150000000000         2.902267015080153E-006
   74.0050000000000         3.226484731133623E-006
   74.1950000000000         3.489132872647533E-006
   74.3850000000000         3.669915632296246E-006
   74.5750000000000         3.752058152753096E-006
   74.7650000000000         3.744390772930645E-006
   74.9550000000000         3.641892908283491E-006
   75.1450000000000         3.469971532701219E-006
   75.3350000000000         3.240511024893600E-006
   75.5250000000000         2.978763040233093E-006
   75.7150000000000         2.712403414650554E-006
   75.9050000000000         2.466514238557304E-006
   76.0950000000000         2.260427610705212E-006
   76.2850000000000         2.111348483748597E-006
   76.4750000000000         2.032684086968033E-006
   76.6650000000000         2.029277846627081E-006
   76.8550000000000         2.104447730154181E-006
   77.0450000000000         2.259929195412080E-006
   77.2350000000000         2.483325565944875E-006
   77.4250000000000         2.756524542025958E-006
   77.6150000000000         3.057868785717121E-006
   77.8050000000000         3.368935080717418E-006
   77.9950000000000         3.663419584487961E-006
   78.1850000000000         3.916230253226662E-006
   78.3750000000000         4.103395055844270E-006
   78.5650000000000         4.209270876735582E-006
   78.7550000000000         4.211702005363974E-006
   78.9450000000000         4.118157297499395E-006
   79.1350000000000         3.923254414410425E-006
   79.3250000000000         3.642668004945658E-006
   79.5150000000000         3.295444854891267E-006
   79.7050000000000         2.907565118003117E-006
   79.8950000000000         2.508291993962527E-006
   80.0850000000000         2.127564007522768E-006
   80.2750000000000         1.796140450159683E-006
   80.4650000000000         1.535891890749601E-006
   80.6550000000000         1.363378982376729E-006
   80.8450000000000         1.289101066233543E-006
   81.0350000000000         1.312082965673239E-006
   81.2250000000000         1.429528540788098E-006
   81.4150000000000         1.631854822526025E-006
   81.6050000000000         1.903654942967911E-006
   81.7950000000000         2.224352354009961E-006
   81.9850000000000         2.570988619221103E-006
   82.1750000000000         2.917045332787276E-006
   82.3650000000000         3.246013039361833E-006
   82.5550000000000         3.537323047956212E-006
   82.7450000000000         3.774191057759277E-006
   82.9350000000000         3.943248306469733E-006
   83.1250000000000         4.035467215388231E-006
   83.3150000000000         4.046754022979203E-006
   83.5050000000000         3.979439839902069E-006
   83.6950000000000         3.840550624014781E-006
   83.8850000000000         3.640661337107364E-006
   84.0750000000000         3.397008679539405E-006
   84.2650000000000         3.126095642323096E-006
   84.4550000000000         2.848859724887699E-006
   84.6450000000000         2.583627162011026E-006
   84.8350000000000         2.347703596555076E-006
   85.0250000000000         2.153095740409481E-006
   85.2150000000000         2.008027859468200E-006
   85.4050000000000         1.917444581254402E-006
   85.5950000000000         1.878689675845430E-006
   85.7850000000000         1.888513246137737E-006
   85.9750000000000         1.938774327024671E-006
   86.1650000000000         2.019607185685477E-006
   86.3550000000000         2.121027763208107E-006
   86.5450000000000         2.233199366219820E-006
   86.7350000000000         2.348251765743116E-006
   86.9250000000000         2.459798093095850E-006
   87.1150000000000         2.563899349005171E-006
   87.3050000000000         2.656816779472695E-006
   87.4950000000000         2.738416746395525E-006
   87.6850000000000         2.810069749528062E-006
   87.8750000000000         2.872781828443296E-006
   88.0650000000000         2.929867314876352E-006
   88.2550000000000         2.976364920323463E-006
   88.4450000000000         3.018611764167567E-006
   88.6350000000000         3.056745755715661E-006
   88.8250000000000         3.099373315180349E-006
   89.0150000000000         3.146316525430429E-006
   89.2050000000000         3.206265482816461E-006
   89.3950000000000         3.283663108185301E-006
   89.5850000000000         3.381593170147678E-006
   89.7750000000000         3.502904663844490E-006
   89.9650000000000         3.648785915999052E-006
   90.1550000000000         3.818099311837689E-006
   90.3450000000000         4.007831182153789E-006
   90.5350000000000         4.215617819554970E-006
   90.7250000000000         4.427288774820744E-006
   90.9150000000000         4.633625106856321E-006
   91.1050000000000         4.822058600224156E-006
   91.2950000000000         4.980192535415281E-006
   91.4850000000000         5.096098142203503E-006
   91.6750000000000         5.162422434339236E-006
   91.8650000000000         5.171372446163877E-006
   92.0550000000000         5.117980071137879E-006
   92.2450000000000         5.005080342217526E-006
   92.4350000000000         4.834007596430697E-006
   92.6250000000000         4.610546801151898E-006
   92.8150000000000         4.344148308176495E-006
   93.0050000000000         4.047150134859925E-006
   93.1950000000000         3.733424721161277E-006
   93.3850000000000         3.418363455497585E-006
   93.5750000000000         3.117808106058026E-006
   93.7650000000000         2.847277731307947E-006
   93.9550000000000         2.621171662414209E-006
   94.1450000000000         2.452149709961906E-006
   94.3350000000000         2.349493464735662E-006
   94.5250000000000         2.319278414463118E-006
   94.7150000000000         2.361874109513608E-006
   94.9050000000000         2.485558160845051E-006
   95.0950000000000         2.670241707364765E-006
   95.2850000000000         2.912982664666272E-006
   95.4750000000000         3.196715785989761E-006
   95.6650000000000         3.503838780370235E-006
   95.8550000000000         3.816224166968373E-006
   96.0450000000000         4.115694390910606E-006
   96.2350000000000         4.385657827572309E-006
   96.4250000000000         4.612549584018590E-006
   96.6150000000000         4.786333046512371E-006
   96.8050000000000         4.903266641557282E-006
   96.9950000000000         4.963141655073378E-006
   97.1850000000000         4.969797543154629E-006
   97.3750000000000         4.939584242829028E-006
   97.5650000000000         4.871916572414148E-006
   97.7550000000000         4.784224035747290E-006
   97.9450000000000         4.687724270539134E-006
   98.1350000000000         4.592863359336576E-006
   98.3250000000000         4.508447995881228E-006
   98.5150000000000         4.441091967241698E-006
   98.7050000000000         4.394885821385482E-006
   98.8950000000000         4.366733953328388E-006
   99.0850000000000         4.372104705900568E-006
   99.2750000000000         4.391127832696532E-006
   99.4650000000000         4.432018120268799E-006
   99.6550000000000         4.486771636151078E-006
   99.8450000000000         4.543869108742202E-006
   100.035000000000         4.607525274394912E-006
   100.225000000000         4.660339188754728E-006
   100.415000000000         4.704621210982459E-006
   100.605000000000         4.727960064847607E-006
   100.795000000000         4.724719775353554E-006
   100.985000000000         4.688123761180774E-006
   101.175000000000         4.620741552864052E-006
   101.365000000000         4.520315941948674E-006
   101.555000000000         4.392514296878601E-006
   101.745000000000         4.245362976151205E-006
   101.935000000000         4.088235951769358E-006
   102.125000000000         3.932689851652776E-006
   102.315000000000         3.790399035305300E-006
   102.505000000000         3.672482513400206E-006
   102.695000000000         3.585724249535851E-006
   102.885000000000         3.535964368976538E-006
   103.075000000000         3.526318758137191E-006
   103.265000000000         3.557033888581467E-006
   103.455000000000         3.621699070556423E-006
   103.645000000000         3.716173475663603E-006
   103.835000000000         3.833370965561648E-006
   104.025000000000         3.960925163087871E-006
   104.215000000000         4.096272881356947E-006
   104.405000000000         4.235270769478746E-006
   104.595000000000         4.373904491688211E-006
   104.785000000000         4.509203084644985E-006
   104.975000000000         4.638122365863958E-006
   105.165000000000         4.758276494603848E-006
   105.355000000000         4.861659563014635E-006
   105.545000000000         4.944062928792565E-006
   105.735000000000         5.002892400328685E-006
   105.925000000000         5.043818578530832E-006
   106.115000000000         5.049959184438124E-006
   106.305000000000         5.026524500601084E-006
   106.495000000000         4.976269805306522E-006
   106.685000000000         4.904901229537144E-006
   106.875000000000         4.820339458595352E-006
   107.065000000000         4.731727380061314E-006
   107.255000000000         4.648661716340685E-006
   107.445000000000         4.579448297090338E-006
   107.635000000000         4.530210331045818E-006
   107.825000000000         4.504691576593708E-006
   108.015000000000         4.502484572238438E-006
   108.205000000000         4.517687369679053E-006
   108.395000000000         4.554747543331452E-006
   108.585000000000         4.604349475363978E-006
   108.775000000000         4.663717154599697E-006
   108.965000000000         4.717871523232684E-006
   109.155000000000         4.773349094133193E-006
   109.345000000000         4.826374983492719E-006
   109.535000000000         4.877010554822414E-006
   109.725000000000         4.925522092293113E-006
   109.915000000000         4.971946389193975E-006
   110.105000000000         5.015555249694064E-006