  -1.42500000000000         0.000000000000000E+000
  -1.23500000000000         2.333609137034210E-014
  -1.04500000000000         3.592560989781703E-013
 -0.855000000000000         2.564766094029074E-012
 -0.665000000000000         1.274749508424888E-011
 -0.475000000000000         5.183126983004787E-011
 -0.285000000000000         1.764653237757317E-010
 -9.499999999999975E-002    5.211670789269993E-010
  9.500000000000020E-002    1.357365357938194E-009
  0.285000000000000         3.135256165211933E-009
  0.475000000000000         6.516215024151369E-009
  0.665000000000000         1.228128398958682E-008
  0.855000000000000         2.130719419513051E-008
   1.04500000000000         3.423489384567324E-008
   1.23500000000000         5.145438890037278E-008
   1.42500000000000         7.287462945292121E-008
   1.61500000000000         9.775648813390667E-008
   1.80500000000000         1.247989275435905E-007
   1.99500000000000         1.522038428624008E-007
   2.18500000000000         1.779052812053202E-007
   2.37500000000000         1.997461786344478E-007
   2.56500000000000         2.154318248549998E-007
   2.75500000000000         2.228323789168023E-007
   2.94500000000000         2.218035050902560E-007
   3.13500000000000         2.094806224900508E-007
   3.32500000000000         1.855344864024205E-007
   3.51500000000000         1.498394554301202E-007
   3.70500000000000         1.034639378988781E-007
   3.89500000000000         4.832176836097572E-008
   4.08500000000000        -1.233824413591455E-008
   4.27500000000000        -7.402320616930847E-008
   4.46500000000000        -1.312159745616178E-007
   4.65500000000000        -1.780156446816280E-007
   4.84500000000000        -2.082956510128573E-007
   5.03500000000000        -2.166124704894949E-007
   5.22500000000000        -1.996199364458187E-007
   5.41500000000000        -1.548468800343100E-007
   5.60500000000000        -8.386134079894736E-008
   5.79500000000000         1.078547640391463E-008
   5.98500000000000         1.222755524970858E-007
   6.17500000000000         2.425810215889631E-007
   6.36500000000000         3.634317848152855E-007
   6.55500000000000         4.765837501977109E-007
   6.74500000000000         5.743281821130351E-007
   6.93500000000000         6.507974060534408E-007
   7.12500000000000         7.012184606494349E-007
   7.31500000000000         7.230876302385035E-007
   7.50500000000000         7.159125719907984E-007
   7.69500000000000         6.814492350680096E-007
   7.88500000000000         6.230936007785248E-007
   8.07500000000000         5.455186880069444E-007
   8.26500000000000         4.564843192001478E-007
   8.45500000000000         3.526805451957521E-007
   8.64500000000000         2.478637147302390E-007
   8.83500000000000         1.404625426612594E-007
   9.02500000000000         4.047477313345408E-008
   9.21500000000000        -4.544584769173682E-008
   9.40500000000000        -1.108426731128300E-007
   9.59500000000000        -1.507663205923713E-007
   9.78500000000000        -1.594353948462912E-007
   9.97500000000000        -1.370535511860607E-007
   10.1650000000000        -8.329794100024291E-008
   10.3550000000000        -9.790729885076676E-010
   10.5450000000000         1.037491442043821E-007
   10.7350000000000         2.221701530977286E-007
   10.9250000000000         3.446732000474023E-007
   11.1150000000000         4.573494617649261E-007
   11.3050000000000         5.516522469346116E-007
   11.4950000000000         6.208566013738394E-007
   11.6850000000000         6.606911840942611E-007
   11.8750000000000         6.708893887608066E-007
   12.0650000000000         6.519921368817857E-007
   12.2550000000000         6.121925390266993E-007
   12.4450000000000         5.585444072908386E-007
   12.6350000000000         4.994686126542781E-007
   12.8250000000000         4.434278266268350E-007
   13.0150000000000         4.021929902993129E-007
   13.2050000000000         3.710665366680072E-007
   13.3950000000000         3.670575144207477E-007
   13.5850000000000         3.785351459167321E-007
   13.7750000000000         4.184371217666029E-007
   13.9650000000000         4.814355218904073E-007
   14.1550000000000         5.690793322651219E-007
   14.3450000000000         6.829991832011794E-007
   14.5350000000000         8.211125640585655E-007
   14.7250000000000         9.797090971656205E-007
   14.9150000000000         1.151670257830907E-006
   15.1050000000000         1.327602002264330E-006
   15.2950000000000         1.492263933074470E-006
   15.4850000000000         1.631509511681517E-006
   15.6750000000000         1.731467048629257E-006
   15.8650000000000         1.780365416136733E-006
   16.0550000000000         1.767907571954619E-006
   16.2450000000000         1.692092556011983E-006
   16.4350000000000         1.551307738104152E-006
   16.6250000000000         1.354432252354433E-006
   16.8150000000000         1.114159708869311E-006
   17.0050000000000         8.479207863209209E-007
   17.1950000000000         5.753273861484925E-007
   17.3850000000000         3.146198659826892E-007
   17.5750000000000         8.256472929979495E-008
   17.7650000000000        -1.045190854055605E-007
   17.9550000000000        -2.425272625423420E-007
   18.1450000000000        -3.281474461826158E-007
   18.3350000000000        -3.586172791433386E-007
   18.5250000000000        -3.345036679458905E-007
   18.7150000000000        -2.712606879424697E-007
   18.9050000000000        -1.663649933341116E-007
   19.0950000000000        -2.743841733936968E-008
   19.2850000000000         1.388837489998487E-007
   19.4750000000000         3.237940044956630E-007
   19.6650000000000         5.169148044468747E-007
   19.8550000000000         7.056125969541776E-007
   20.0450000000000         8.762288917376155E-007
   20.2350000000000         1.009052733544207E-006
   20.4250000000000         1.090607253823961E-006
   20.6150000000000         1.108981692844959E-006
   20.8050000000000         1.055048425423034E-006
   20.9950000000000         9.292987149398919E-007
   21.1850000000000         7.333583049799722E-007
   21.3750000000000         4.789451657529593E-007
   21.5650000000000         1.836182902410909E-007
   21.7550000000000        -1.306130233560410E-007
   21.9450000000000        -4.387937423761661E-007
   22.1350000000000        -7.179535627020867E-007
   22.3250000000000        -9.480781151833248E-007
   22.5150000000000        -1.114570356932410E-006
   22.7050000000000        -1.209657571736852E-006
   22.8950000000000        -1.225526695896892E-006
   23.0850000000000        -1.181166992666225E-006
   23.2750000000000        -1.074845882017256E-006
   23.4650000000000        -9.193516715534332E-007
   23.6550000000000        -7.295716243295810E-007
   23.8450000000000        -5.239642531164344E-007
   24.0350000000000        -3.081826694720538E-007
   24.2250000000000        -9.444198775780053E-008
   24.4150000000000         1.026000409902389E-007
   24.6050000000000         2.722007371909422E-007
   24.7950000000000         4.083889518781898E-007
   24.9850000000000         4.977607125434252E-007
   25.1750000000000         5.271562723468568E-007
   25.3650000000000         4.929916202174405E-007
   25.5550000000000         3.921542139689651E-007
   25.7450000000000         2.276340577627315E-007
   25.9350000000000         1.196156150462075E-008
   26.1250000000000        -2.360860357511292E-007
   26.3150000000000        -4.930083509945847E-007
   26.5050000000000        -7.282440268563245E-007
   26.6950000000000        -9.162826531011568E-007
   26.8850000000000        -1.032502567156967E-006
   27.0750000000000        -1.060348986089638E-006
   27.2650000000000        -9.883893125865586E-007
   27.4550000000000        -8.168932415767214E-007
   27.6450000000000        -5.543544454283772E-007
   27.8350000000000        -2.174995190717857E-007
   28.0250000000000         1.697228707004438E-007
   28.2150000000000         5.778264048665841E-007
   28.4050000000000         9.786262053764546E-007
   28.5950000000000         1.350496816295575E-006
   28.7850000000000         1.668886795264150E-006
   28.9750000000000         1.918375525578676E-006
   29.1650000000000         2.085847498972312E-006
   29.3550000000000         2.162439586367824E-006
   29.5450000000000         2.158017270742934E-006
   29.7350000000000         2.063852457854349E-006
   29.9250000000000         1.888721234099376E-006
   30.1150000000000         1.643704448348259E-006
   30.3050000000000         1.344414092501113E-006
   30.4950000000000         1.009709679086864E-006
   30.6850000000000         6.621181166520335E-007
   30.8750000000000         3.343630296036248E-007
   31.0650000000000         4.993731704690781E-008
   31.2550000000000        -1.697153883566301E-007
   31.4450000000000        -2.944073569172333E-007
   31.6350000000000        -3.114812599042721E-007
   31.8250000000000        -2.151377693698627E-007
   32.0150000000000        -1.064715458903894E-008
   32.2050000000000         2.827862760403103E-007
   32.3950000000000         6.398466971244365E-007
   32.5850000000000         1.025023128367529E-006
   32.7750000000000         1.402125110141274E-006
   32.9650000000000         1.737519156851980E-006
   33.1550000000000         2.002161599123557E-006
   33.3450000000000         2.174112701476534E-006
   33.5350000000000         2.241972183496182E-006
   33.7250000000000         2.202044143414823E-006
   33.9150000000000         2.065333561192127E-006
   34.1050000000000         1.847718154353079E-006
   34.2950000000000         1.575284148093308E-006
   34.4850000000000         1.273506743082163E-006
   34.6750000000000         9.630662668101078E-007
   34.8650000000000         6.676426888896323E-007
   35.0550000000000         4.071785439285363E-007
   35.2450000000000         1.984495957588540E-007
   35.4350000000000         5.357767034456840E-008
   35.6250000000000        -1.628496987178184E-008
   35.8150000000000        -1.687595175649511E-009
   36.0050000000000         8.623418586351729E-008
   36.1950000000000         2.553416883079167E-007
   36.3850000000000         4.953235246194147E-007
   36.5750000000000         7.917452845630583E-007
   36.7650000000000         1.125791848493957E-006
   36.9550000000000         1.474036489840315E-006
   37.1450000000000         1.807441841443823E-006
   37.3350000000000         2.102465250730247E-006
   37.5250000000000         2.335580138935413E-006
   37.7150000000000         2.487962346335157E-006
   37.9050000000000         2.551129707155701E-006
   38.0950000000000         2.521309663255324E-006
   38.2850000000000         2.402531014592669E-006
   38.4750000000000         2.210368305006231E-006
   38.6650000000000         1.970959450096942E-006
   38.8550000000000         1.706276809527431E-006
   39.0450000000000         1.441530102391108E-006
   39.2350000000000         1.195417707392743E-006
   39.4250000000000         9.844144883185103E-007
   39.6150000000000         8.199361302551182E-007
   39.8050000000000         7.078000404794577E-007
   39.9950000000000         6.441808994199582E-007
   40.1850000000000         6.266402420923967E-007
   40.3750000000000         6.474554315998953E-007
   40.5650000000000         6.866737625188780E-007
   40.7550000000000         7.492781243463861E-007
   40.9450000000000         8.240291842014100E-007
   41.1350000000000         9.047137695690936E-007
   41.3250000000000         9.848178422818420E-007
   41.5150000000000         1.060495327924273E-006
   41.7050000000000         1.115038624890059E-006
   41.8950000000000         1.141722827492782E-006
   42.0850000000000         1.142142409242530E-006
   42.2750000000000         1.101096738608230E-006
   42.4650000000000         1.015472909187496E-006
   42.6550000000000         8.849888876616939E-007
   42.8450000000000         7.136695239793744E-007
   43.0350000000000         5.105325796292476E-007
   43.2250000000000         2.883439295974973E-007
   43.4150000000000         6.282330730565055E-008
   43.6050000000000        -1.504364904413115E-007
   43.7950000000000        -3.382383619081166E-007
   43.9850000000000        -4.896873392787856E-007
   44.1750000000000        -5.991730120028325E-007
   44.3650000000000        -6.655267915660101E-007
   44.5550000000000        -6.915345726268939E-007
   44.7450000000000        -6.867533237813999E-007
   44.9350000000000        -6.473109647024231E-007
   45.1250000000000        -5.817061837790714E-007
   45.3150000000000        -5.087191492724928E-007
   45.5050000000000        -4.154463237809805E-007
   45.6950000000000        -3.052319983458238E-007
   45.8850000000000        -1.768082053987099E-007
   46.0750000000000        -2.852348329383682E-008
   46.2650000000000         1.396819599382938E-007
   46.4550000000000         3.245974291819585E-007
   46.6450000000000         5.187537756417698E-007
   46.8350000000000         7.117749970601774E-007
   47.0250000000000         8.951964247720133E-007
   47.2150000000000         1.062749946362578E-006
   47.4050000000000         1.197932087913783E-006
   47.5950000000000         1.296326893099611E-006
   47.7850000000000         1.358767876448847E-006
   47.9750000000000         1.386198487081188E-006
   48.1650000000000         1.387692764449243E-006
   48.3550000000000         1.371407410125983E-006
   48.5450000000000         1.345812482424011E-006
   48.7350000000000         1.320911618161909E-006
   48.9250000000000         1.303357216837664E-006
   49.1150000000000         1.303192715809379E-006
   49.3050000000000         1.308596152606144E-006
   49.4950000000000         1.333802274603746E-006
   49.6850000000000         1.358865938355560E-006
   49.8750000000000         1.392279354447614E-006
   50.0650000000000         1.428950356069078E-006
   50.2550000000000         1.457885880806686E-006
   50.4450000000000         1.493961752505703E-006
   50.6350000000000         1.535594920766962E-006
   50.8250000000000         1.586764493375763E-006
   51.0150000000000         1.651372204030355E-006
   51.2050000000000         1.722867805503219E-006
   51.3950000000000         1.801261365263533E-006
   51.5850000000000         1.888385127922422E-006
   51.7750000000000         1.969920073022508E-006
   51.9650000000000         2.038252661243806E-006
   52.1550000000000         2.085566055673885E-006
   52.3450000000000         2.108181655068819E-006
   52.5350000000000         2.098994415903657E-006
   52.7250000000000         2.071250879361227E-006
   52.9150000000000         2.025883128345726E-006
   53.1050000000000         1.968367909185971E-006
   53.2950000000000         1.907248923582494E-006
   53.4850000000000         1.853212664729254E-006
   53.6750000000000         1.813141090418000E-006
   53.8650000000000         1.785632044488027E-006
   54.0550000000000         1.771554317282125E-006
   54.2450000000000         1.771093013496282E-006
   54.4350000000000         1.779281176649634E-006
   54.6250000000000         1.791084409849015E-006
   54.8150000000000         1.802938544618611E-006
   55.0050000000000         1.814285644759801E-006
   55.1950000000000         1.825052139633203E-006
   55.3850000000000         1.836987174383843E-006
   55.5750000000000         1.853925448979276E-006
   55.7650000000000         1.878227333731612E-006
   55.9550000000000         1.915971835747469E-006
   56.1450000000000         1.965664447264608E-006
   56.3350000000000         2.017134727894709E-006
   56.5250000000000         2.063568264779696E-006
   56.7150000000000         2.094993805789049E-006
   56.9050000000000         2.100838794443552E-006
   57.0950000000000         2.072053408153314E-006
   57.2850000000000         2.003508225202609E-006
   57.4750000000000         1.901756725635344E-006
   57.6650000000000         1.766233516199474E-006
   57.8550000000000         1.600260212384707E-006
   58.0450000000000         1.424750000074773E-006
   58.2350000000000         1.250470741516218E-006
   58.4250000000000         1.089299925163294E-006
   58.6150000000000         9.518628711870653E-007
   58.8050000000000         8.404889704819101E-007
   58.9950000000000         7.623885191742370E-007
   59.1850000000000         7.267150102677316E-007
   59.3750000000000         7.195092038820131E-007
   59.5650000000000         7.511135063942228E-007
   59.7550000000000         8.171163504453941E-007
   59.9450000000000         9.160422325721362E-007
   60.1350000000000         1.040249927798727E-006
   60.3250000000000         1.196938654183005E-006
   60.5150000000000         1.381042787601953E-006
   60.7050000000000         1.587417425453066E-006
   60.8950000000000         1.807383314384810E-006
   61.0850000000000         2.025220664226833E-006
   61.2750000000000         2.227098104793124E-006
   61.4650000000000         2.395929172798881E-006
   61.6550000000000         2.515677461367311E-006
   61.8450000000000         2.573283124365284E-006
   62.0350000000000         2.562858093450476E-006
   62.2250000000000         2.480489360834685E-006
   62.4150000000000         2.326374342776808E-006
   62.6050000000000         2.122167190839422E-006
   62.7950000000000         1.883868635043440E-006
   62.9850000000000         1.634901090732648E-006
   63.1750000000000         1.394165438261104E-006
   63.3650000000000         1.184034116495426E-006
   63.5550000000000         1.023035569097963E-006
   63.7450000000000         9.279741690762611E-007
   63.9350000000000         8.975872338854248E-007
   64.1250000000000         9.322769806823614E-007
   64.3150000000000         1.023786614774042E-006
   64.5050000000000         1.164354173765478E-006
   64.6950000000000         1.345681149531651E-006
   64.8850000000000         1.552546387072130E-006
   65.0750000000000         1.764902364621906E-006
   65.2650000000000         1.971494744070658E-006
   65.4550000000000         2.158621164003752E-006
   65.6450000000000         2.312747003459551E-006
   65.8350000000000         2.422111905264988E-006
   66.0250000000000         2.474039908789404E-006
   66.2150000000000         2.461201799526400E-006
   66.4050000000000         2.378892738014712E-006
   66.5950000000000         2.230404627758651E-006
   66.7850000000000         2.023170633357609E-006
   66.9750000000000         1.772871097019274E-006
   67.1650000000000         1.498911843974975E-006
   67.3550000000000         1.225346910472285E-006
   67.5450000000000         9.772689633952676E-007
   67.7350000000000         7.835967605017046E-007
   67.9250000000000         6.681056294161428E-007
   68.1150000000000         6.435428056339302E-007
   68.3050000000000         7.222126579753770E-007
   68.4950000000000         8.969248987489666E-007
   68.6850000000000         1.160408601445674E-006
   68.8750000000000         1.494702927596274E-006
   69.0650000000000         1.875571324334041E-006
   69.2550000000000         2.272302226433965E-006
   69.4450000000000         2.656787386870397E-006
   69.6350000000000         3.004806384038204E-006
   69.8250000000000         3.294050549735682E-006
   70.0150000000000         3.506941060146599E-006
   70.2050000000000         3.633509474728382E-006
   70.3950000000000         3.668158293101598E-006
   70.5850000000000         3.609229165832143E-006
   70.7750000000000         3.468682930030795E-006
   70.9650000000000         3.255176032355168E-006
   71.1550000000000         2.983318625866719E-006
   71.3450000000000         2.671073931538106E-006
   71.5350000000000         2.339605699581216E-006
   71.7250000000000         2.012529762484016E-006
   71.9150000000000         1.713848498390948E-006
   72.1050000000000         1.466870540370294E-006
   72.2950000000000         1.292784897269521E-006
   72.4850000000000         1.206373398378528E-006
   72.6750000000000         1.218756163117794E-006
   72.8650000000000         1.331811369170953E-006
   73.0550000000000         1.535305049139813E-006
   73.2450000000000         1.813686450124005E-006
   73.4350000000000         2.144192322046573E-006
   73.6250000000000         2.498194115533050E-006
   73.8150000000000         2.845062609943992E-006
   74.0050000000000         3.156290752693013E-006
   74.1950000000000         3.406856971548561E-006
   74.3850000000000         3.577319082795746E-006
   74.5750000000000         3.652677123299023E-006
   74.7650000000000         3.641946178302284E-006
   74.9550000000000         3.540447856094046E-006
   75.1450000000000         3.374587435150982E-006
   75.3350000000000         3.155245195333310E-006
   75.5250000000000         2.907140228129025E-006
   75.7150000000000         2.656843849167743E-006
   75.9050000000000         2.428591777651127E-006
   76.0950000000000         2.240229015635979E-006
   76.2850000000000         2.107064964429494E-006
   76.4750000000000         2.040999896103980E-006
   76.6650000000000         2.046109994987759E-006
   76.8550000000000         2.124615474576494E-006
   77.0450000000000         2.277985711163400E-006
   77.2350000000000         2.493673363706042E-006
   77.4250000000000         2.753928669985521E-006
   77.6150000000000         3.038519195974574E-006
   77.8050000000000         3.329975832869847E-006
   77.9950000000000         3.603690171697800E-006
   78.1850000000000         3.836430760336802E-006
   78.3750000000000         4.006162266934055E-006
   78.5650000000000         4.098976010027679E-006
   78.7550000000000         4.093582859480257E-006
   78.9450000000000         3.998190293760441E-006
   79.1350000000000         3.808832207985166E-006
   79.3250000000000         3.539880268694549E-006
   79.5150000000000         3.209902042059501E-006
   79.7050000000000         2.843720993585724E-006
   79.8950000000000         2.468927407531820E-006
   80.0850000000000         2.113317144287326E-006
   80.2750000000000         1.806226748149860E-006
   80.4650000000000         1.567608621790285E-006
   80.6550000000000         1.411933194279592E-006
   80.8450000000000         1.348388447752524E-006
   81.0350000000000         1.375645692375268E-006
   81.2250000000000         1.489966413283168E-006
   81.4150000000000         1.682662227662648E-006
   81.6050000000000         1.938875453708962E-006
   81.7950000000000         2.239002625675024E-006
   81.9850000000000         2.562381581820080E-006
   82.1750000000000         2.883876209066851E-006
   82.3650000000000         3.188673574320269E-006
   82.5550000000000         3.458147259278492E-006
   82.7450000000000         3.677565169203746E-006
   82.9350000000000         3.834572193070939E-006
   83.1250000000000         3.920958706217784E-006
   83.3150000000000         3.933147340985762E-006
   83.5050000000000         3.873167938750827E-006
   83.6950000000000         3.747366744374245E-006
   83.8850000000000         3.565642540408098E-006
   84.0750000000000         3.343368967514796E-006
   84.2650000000000         3.095104845548360E-006
   84.4550000000000         2.840745619113044E-006
   84.6450000000000         2.596688881621606E-006
   84.8350000000000         2.378924917209570E-006
   85.0250000000000         2.197931209686745E-006
   85.2150000000000         2.060906745515932E-006
   85.4050000000000         1.972798947522666E-006
   85.5950000000000         1.931219033518044E-006
   85.7850000000000         1.932949722651246E-006
   85.9750000000000         1.971229658460596E-006
   86.1650000000000         2.037322231229310E-006
   86.3550000000000         2.122688711056290E-006
   86.5450000000000         2.219084297806807E-006
   86.7350000000000         2.319515517889250E-006
   86.9250000000000         2.419250867324824E-006
   87.1150000000000         2.515130777067813E-006
   87.3050000000000         2.604232644685935E-006
   87.4950000000000         2.686165176178404E-006
   87.6850000000000         2.762128619960559E-006
   87.8750000000000         2.833224449758033E-006
   88.0650000000000         2.900907741992497E-006
   88.2550000000000         2.959269513410478E-006
   88.4450000000000         3.013321927987364E-006
   88.6350000000000         3.061786691158076E-006
   88.8250000000000         3.111975551720444E-006
   89.0150000000000         3.162428710517268E-006
   89.2050000000000         3.221423502653635E-006
   89.3950000000000         3.292686990282793E-006
   89.5850000000000         3.379291211852537E-006
   89.7750000000000         3.484435887665137E-006
   89.9650000000000         3.610257234996059E-006
   90.1550000000000         3.756874463325024E-006
   90.3450000000000         3.922240312233388E-006
   90.5350000000000         4.105941286891464E-006
   90.7250000000000         4.295043269926357E-006
   90.9150000000000         4.481906348206166E-006
   91.1050000000000         4.655558347424906E-006
   91.2950000000000         4.804574686979057E-006
   91.4850000000000         4.917150700427552E-006
   91.6750000000000         4.986637095459456E-006
   91.8650000000000         5.004475694926973E-006
   92.0550000000000         4.965499888446788E-006
   92.2450000000000         4.871137887715444E-006
   92.4350000000000         4.721708284764490E-006
   92.6250000000000         4.521416571458150E-006
   92.8150000000000         4.278642465364697E-006
   93.0050000000000         4.003690338516841E-006
   93.1950000000000         3.709514560428629E-006
   93.3850000000000         3.410532692825361E-006
   93.5750000000000         3.121882534087452E-006
   93.7650000000000         2.858815738544152E-006
   93.9550000000000         2.635794371561116E-006
   94.1450000000000         2.465538223723407E-006
   94.3350000000000         2.358118838379319E-006
   94.5250000000000         2.320400876130752E-006
   94.7150000000000         2.353813146630304E-006
   94.9050000000000         2.467217676821074E-006
   95.0950000000000         2.641279263117223E-006
   95.2850000000000         2.873884980642720E-006
   95.4750000000000         3.148732227843759E-006
   95.6650000000000         3.448470939879866E-006
   95.8550000000000         3.755088537846702E-006
   96.0450000000000         4.050366885137366E-006
   96.2350000000000         4.317583450929535E-006
   96.4250000000000         4.542851430865179E-006
   96.6150000000000         4.715893414785178E-006
   96.8050000000000         4.831966325265374E-006
   96.9950000000000         4.891096096443665E-006
   97.1850000000000         4.896778635681957E-006
   97.3750000000000         4.864982318557837E-006
   97.5650000000000         4.795608129994562E-006
   97.7550000000000         4.705669130491328E-006
   97.9450000000000         4.606720608461513E-006
   98.1350000000000         4.509485211929467E-006
   98.3250000000000         4.423074741353424E-006
   98.5150000000000         4.354372250759793E-006
   98.7050000000000         4.307488726384940E-006
   98.8950000000000         4.279866688029932E-006
   99.0850000000000         4.287204853453187E-006
   99.2750000000000         4.308461349144069E-006
   99.4650000000000         4.352860883709937E-006
   99.6550000000000         4.411213435369111E-006
   99.8450000000000         4.472579675495010E-006
   100.035000000000         4.540000326398759E-006
   100.225000000000         4.596455099592923E-006
   100.415000000000         4.643656478580443E-006
   100.605000000000         4.669075117270409E-006
   100.795000000000         4.667480214475060E-006
   100.985000000000         4.631261457378835E-006
   101.175000000000         4.564192490621925E-006
   101.365000000000         4.463752009313361E-006
   101.555000000000         4.336374804453735E-006
   101.745000000000         4.189988098925536E-006
   101.935000000000         4.034150979549222E-006
   102.125000000000         3.880606163607480E-006
   102.315000000000         3.741054994261571E-006
   102.505000000000         3.626638455579862E-006
   102.695000000000         3.544020862765225E-006
   102.885000000000         3.498871553005047E-006
   103.075000000000         3.493808354369983E-006
   103.265000000000         3.528907033186130E-006
   103.455000000000         3.597174088345197E-006
   103.645000000000         3.694271784002811E-006
   103.835000000000         3.812860934336189E-006
   104.025000000000         3.940275454428868E-006
   104.215000000000         4.073975112114111E-006
   104.405000000000         4.209835723496896E-006
   104.595000000000         4.343971877423571E-006
   104.785000000000         4.473690725504324E-006
   104.975000000000         4.596256248692974E-006
   105.165000000000         4.709962151564254E-006
   105.355000000000         4.806632911422811E-006
   105.545000000000         4.883010964510330E-006
   105.735000000000         4.936221001460787E-006
   105.925000000000         4.973052021814723E-006
   106.115000000000         4.976217757075280E-006
   106.305000000000         4.950669828814564E-006
   106.495000000000         4.899780544924123E-006
   106.685000000000         4.828741769311228E-006
   106.875000000000         4.745061181763719E-006
   107.065000000000         4.657593989723802E-006
   107.255000000000         4.575654048232147E-006
   107.445000000000         4.507210675178594E-006
   107.635000000000         4.458112963794967E-006
   107.825000000000         4.432190423468814E-006
   108.015000000000         4.429278487858562E-006
   108.205000000000         4.442468174231504E-006
   108.395000000000         4.477567757397900E-006
   108.585000000000         4.525089760599633E-006
   108.775000000000         4.582230267581451E-006
   108.965000000000         4.634667475194747E-006
   109.155000000000         4.688778029330894E-006
   109.345000000000         4.741494055594992E-006
   109.535000000000         4.792530723680380E-006
   109.725000000000         4.842326283421783E-006
   109.915000000000         4.890682668956996E-006
   110.105000000000         4.937100955371952E-006