  -105.000000000000         0.000000000000000E+000
  -104.810000000000         1.241582569321206E-011
  -104.620000000000        -6.211637207449918E-012
  -104.430000000000        -1.538044752476753E-011
  -104.240000000000         4.162454235860975E-012
  -104.050000000000         4.227190960342931E-011
  -103.860000000000         4.533120266324974E-011
  -103.670000000000         1.140439170010385E-012
  -103.480000000000        -6.484139185371111E-011
  -103.290000000000        -3.941154070215689E-011
  -103.100000000000        -7.440127552708260E-011
  -102.910000000000        -5.587299426529642E-011
  -102.720000000000        -1.048201239478980E-010
  -102.530000000000         3.223766331795650E-011
  -102.340000000000         1.187767522985323E-010
  -102.150000000000         1.672791345332048E-010
  -101.960000000000         2.038126665885002E-010
  -101.770000000000         3.730107001580835E-010
  -101.580000000000         4.451465639164674E-010
  -101.390000000000         5.516708203243392E-010
  -101.200000000000         6.841813181395211E-010
  -101.010000000000         9.720688748766566E-010
  -100.820000000000         1.255540839671033E-009
  -100.630000000000         1.582007216916360E-009
  -100.440000000000         2.018423686180055E-009
  -100.250000000000         2.612870153125267E-009
  -100.060000000000         3.271766001569435E-009
  -99.8700000000000         3.968762103915055E-009
  -99.6800000000000         4.734450346646228E-009
  -99.4900000000000         5.555579506142045E-009
  -99.3000000000000         6.405901986723208E-009
  -99.1100000000000         7.291256572653358E-009
  -98.9200000000000         8.248252675385805E-009
  -98.7300000000000         9.214616845618909E-009
  -98.5400000000000         1.003768831705168E-008
  -98.3500000000000         1.083231308862923E-008
  -98.1600000000000         1.165653291013034E-008
  -97.9700000000000         1.249690876001119E-008
  -97.7800000000000         1.328335766120630E-008
  -97.5900000000000         1.400775268639982E-008
  -97.4000000000000         1.478744261803011E-008
  -97.2100000000000         1.547387908914348E-008
  -97.0200000000000         1.602445825811003E-008
  -96.8300000000000         1.640925406123163E-008
  -96.6400000000000         1.670717314806934E-008
  -96.4500000000000         1.714692302848627E-008
  -96.2600000000000         1.743727930708092E-008
  -96.0700000000000         1.796534112865730E-008
  -95.8800000000000         1.815920375219953E-008
  -95.6900000000000         1.864557730805141E-008
  -95.5000000000000         1.868646794568304E-008
  -95.3100000000000         1.875346061321489E-008
  -95.1200000000000         1.880084211847354E-008
  -94.9300000000000         1.866690333616663E-008
  -94.7400000000000         1.849196135965761E-008
  -94.5500000000000         1.824191748971120E-008
  -94.3600000000000         1.792790183454308E-008
  -94.1700000000000         1.761204716295400E-008
  -93.9800000000000         1.732533017434248E-008
  -93.7900000000000         1.703331671879808E-008
  -93.6000000000000         1.664930129440134E-008
  -93.4100000000000         1.598825217501046E-008
  -93.2200000000000         1.570817073510780E-008
  -93.0300000000000         1.514425000352806E-008
  -92.8400000000000         1.497919595215437E-008
  -92.6500000000000         1.449755161945169E-008
  -92.4600000000000         1.449132427581689E-008
  -92.2700000000000         1.364205980262966E-008
  -92.0800000000000         1.311654090778264E-008
  -91.8900000000000         1.254096379334496E-008
  -91.7000000000000         1.185970511040099E-008
  -91.5100000000000         1.111485782049361E-008
  -91.3200000000000         1.054304979060679E-008
  -91.1300000000000         1.027674110956469E-008
  -90.9400000000000         1.019754334804640E-008
  -90.7500000000000         1.058687399403509E-008
  -90.5600000000000         1.065771881006104E-008
  -90.3700000000000         1.068632580054526E-008
  -90.1800000000000         1.063921676011300E-008
  -89.9900000000000         1.047674085972538E-008
  -89.8000000000000         9.724386190402540E-009
  -89.6100000000000         9.521345934786655E-009
  -89.4200000000000         8.677808607484777E-009
  -89.2300000000000         8.253685420036480E-009
  -89.0400000000000         7.497576489704127E-009
  -88.8500000000000         6.611390466570319E-009
  -88.6600000000000         5.743659518472779E-009
  -88.4700000000000         4.970752125368529E-009
  -88.2800000000000         4.273852438866154E-009
  -88.0900000000000         3.618400547784509E-009
  -87.9000000000000         2.953970451220842E-009
  -87.7100000000000         2.353371109784268E-009
  -87.5200000000000         1.876685179646924E-009
  -87.3300000000000         2.464420247113077E-009
  -87.1400000000000         3.159513423885065E-009
  -86.9500000000000         4.019801443311800E-009
  -86.7600000000000         4.939355882350919E-009
  -86.5700000000000         5.898938693901889E-009
  -86.3800000000000         6.988921212123804E-009
  -86.1900000000000         8.292031164427615E-009
  -86.0000000000000         9.853604412461596E-009
  -85.8100000000000         1.172990505236191E-008
  -85.6200000000000         1.372699167159331E-008
  -85.4300000000000         1.541121564539912E-008
  -85.2400000000000         1.711854356584677E-008
  -85.0500000000000         1.868526233961058E-008
  -84.8600000000000         1.987332099133823E-008
  -84.6700000000000         2.161472623704203E-008
  -84.4800000000000         2.270812489571136E-008
  -84.2900000000000         2.399417891132533E-008
  -84.1000000000000         2.585708145916246E-008
  -83.9100000000000         2.697263354968104E-008
  -83.7200000000000         2.780442458487760E-008
  -83.5300000000000         2.832770003423542E-008
  -83.3400000000000         2.935310361072822E-008
  -83.1500000000000         2.902278147044430E-008
  -82.9600000000000         2.987916073192813E-008
  -82.7700000000000         2.911154582191931E-008
  -82.5800000000000         3.039872349543341E-008
  -82.3900000000000         2.991551702526603E-008
  -82.2000000000000         3.004600210559508E-008
  -82.0100000000000         3.049218691983780E-008
  -81.8200000000000         3.078065101087088E-008
  -81.6300000000000         3.115734271388570E-008
  -81.4400000000000         3.160896124325279E-008
  -81.2500000000000         3.207030766276019E-008
  -81.0600000000000         3.247362593223186E-008
  -80.8700000000000         3.275584887108026E-008
  -80.6800000000000         3.290863090250117E-008
  -80.4900000000000         3.296676370027992E-008
  -80.3000000000000         3.392654717853236E-008
  -80.1100000000000         3.333131962637029E-008
  -79.9200000000000         3.465931181051479E-008
  -79.7300000000000         3.387345022396900E-008
  -79.5400000000000         3.359777087037713E-008
  -79.3500000000000         3.361020328627792E-008
  -79.1600000000000         3.356100204058702E-008
  -78.9700000000000         3.344489721976224E-008
  -78.7800000000000         3.342024144757045E-008
  -78.5900000000000         3.348901839226058E-008
  -78.4000000000000         3.356439523720873E-008
  -78.2100000000000         3.356478963270604E-008
  -78.0200000000000         3.347625238926114E-008
  -77.8300000000000         3.332064102231770E-008
  -77.6400000000000         3.316278954200452E-008
  -77.4500000000000         3.303831716620755E-008
  -77.2600000000000         3.294609444266297E-008
  -77.0700000000000         3.310439586990501E-008
  -76.8800000000000         3.362549089635156E-008
  -76.6900000000000         3.424787087064894E-008
  -76.5000000000000         3.474719072451754E-008
  -76.3100000000000         3.533880069941081E-008
  -76.1200000000000         3.576452685920110E-008
  -75.9300000000000         3.618726805391205E-008
  -75.7400000000000         3.685861743681038E-008
  -75.5500000000000         3.775302729127371E-008
  -75.3600000000000         3.860700541715997E-008
  -75.1700000000000         3.929078700754927E-008
  -74.9800000000000         3.977862252850907E-008
  -74.7900000000000         4.015133476322869E-008
  -74.6000000000000         4.052855068104592E-008
  -74.4100000000000         4.111790517312889E-008
  -74.2200000000000         4.338762140790308E-008
  -74.0300000000000         4.383246463625734E-008
  -73.8400000000000         4.462231785210446E-008
  -73.6500000000000         4.603308066936203E-008
  -73.4600000000000         4.722067598172796E-008
  -73.2700000000000         4.826881557632477E-008
  -73.0800000000000         4.909486170082868E-008
  -72.8900000000000         4.978067301226589E-008
  -72.7000000000000         5.041893155201241E-008
  -72.5100000000000         5.105879655461950E-008
  -72.3200000000000         5.161939560212850E-008
  -72.1300000000000         5.209942792691572E-008
  -71.9400000000000         5.509160106860057E-008
  -71.7500000000000         5.476125382040399E-008
  -71.5600000000000         5.697743464463278E-008
  -71.3700000000000         5.688795715944914E-008
  -71.1800000000000         5.998373172175008E-008
  -70.9900000000000         6.029445403630685E-008
  -70.8000000000000         6.149714106607793E-008
  -70.6100000000000         6.304295916599245E-008
  -70.4200000000000         6.440753385618755E-008
  -70.2300000000000         6.577985548024974E-008
  -70.0400000000000         6.707065556617510E-008
  -69.8500000000000         6.829532855535542E-008
  -69.6600000000000         6.946885437363869E-008
  -69.4700000000000         7.048807749110445E-008
  -69.2800000000000         7.134641139978857E-008
  -69.0900000000000         7.210028923680248E-008
  -68.9000000000000         7.285374948296997E-008
  -68.7100000000000         7.370193358459062E-008
  -68.5200000000000         7.475279469877109E-008
  -68.3300000000000         7.609390885575650E-008
  -68.1400000000000         7.773508709745016E-008
  -67.9500000000000         7.875368208933932E-008
  -67.7600000000000         8.056623811734801E-008
  -67.5700000000000         8.244386272390298E-008
  -67.3800000000000         8.410402138734365E-008
  -67.1900000000000         8.567396782507260E-008
  -67.0000000000000         8.708805146181101E-008
  -66.8100000000000         8.834559646246455E-008
  -66.6200000000000         8.943472550906523E-008
  -66.4300000000000         9.037702425629766E-008
  -66.2400000000000         9.116551316529573E-008
  -66.0500000000000         9.188605769936481E-008
  -65.8600000000000         9.275528534543737E-008
  -65.6700000000000         9.397459747974425E-008
  -65.4800000000000         9.556909800257245E-008
  -65.2900000000000         9.730630995322533E-008
  -65.1000000000000         9.916736482609300E-008
  -64.9100000000000         1.011281480097253E-007
  -64.7200000000000         1.031273753195422E-007
  -64.5300000000000         1.050757563445799E-007
  -64.3400000000000         1.070277797009624E-007
  -64.1500000000000         1.086272235668018E-007
  -63.9600000000000         1.099619560461743E-007
  -63.7700000000000         1.110187104172203E-007
  -63.5800000000000         1.118384202179770E-007
  -63.3900000000000         1.124987564245504E-007
  -63.2000000000000         1.131047102750117E-007
  -63.0100000000000         1.138313619111189E-007
  -62.8200000000000         1.148366285855839E-007
  -62.6300000000000         1.160350100479027E-007
  -62.4400000000000         1.172089881797571E-007
  -62.2500000000000         1.182012505194567E-007
  -62.0600000000000         1.191398796722261E-007
  -61.8700000000000         1.200470770968165E-007
  -61.6800000000000         1.209531784058756E-007
  -61.4900000000000         1.220242209622438E-007
  -61.3000000000000         1.234250759517277E-007
  -61.1100000000000         1.250405348075207E-007
  -60.9200000000000         1.265758653816411E-007
  -60.7300000000000         1.278890552289473E-007
  -60.5400000000000         1.289623917538412E-007
  -60.3500000000000         1.298883174197431E-007
  -60.1600000000000         1.307057373535698E-007
  -59.9700000000000         1.316112239149142E-007
  -59.7800000000000         1.328029288939958E-007
  -59.5900000000000         1.343581490134680E-007
  -59.4000000000000         1.361484328143753E-007
  -59.2100000000000         1.379582607430153E-007
  -59.0200000000000         1.397768709877655E-007
  -58.8300000000000         1.415148310850211E-007
  -58.6400000000000         1.430338649367050E-007
  -58.4500000000000         1.443882891046807E-007
  -58.2600000000000         1.457723503637297E-007
  -58.0700000000000         1.471120794344014E-007
  -57.8800000000000         1.484343568567144E-007
  -57.6900000000000         1.496948756971126E-007
  -57.5000000000000         1.509973817677576E-007
  -57.3100000000000         1.525768812131270E-007
  -57.1200000000000         1.544297602461063E-007
  -56.9300000000000         1.563909030436992E-007
  -56.7400000000000         1.586789689643089E-007
  -56.5500000000000         1.615486738179733E-007
  -56.3600000000000         1.644295199763388E-007
  -56.1700000000000         1.673081636510849E-007
  -55.9800000000000         1.703349383236547E-007
  -55.7900000000000         1.734919060006294E-007
  -55.6000000000000         1.764736019374026E-007
  -55.4100000000000         1.792497731819083E-007
  -55.2200000000000         1.819197507782387E-007
  -55.0300000000000         1.845638043443106E-007
  -54.8400000000000         1.869774309565126E-007
  -54.6500000000000         1.892035076358847E-007
  -54.4600000000000         1.915279694640957E-007
  -54.2700000000000         1.939949951028226E-007
  -54.0800000000000         1.965750222557388E-007
  -53.8900000000000         1.992059702202058E-007
  -53.7000000000000         2.018925511878957E-007
  -53.5100000000000         2.046512534270570E-007
  -53.3200000000000         2.074903030715994E-007
  -53.1300000000000         2.104536702610523E-007
  -52.9400000000000         2.137147540180356E-007
  -52.7500000000000         2.169933685442660E-007
  -52.5600000000000         2.201903647764784E-007
  -52.3700000000000         2.232563299719123E-007
  -52.1800000000000         2.260367584507512E-007
  -51.9900000000000         2.285060972726238E-007
  -51.8000000000000         2.307738750818783E-007
  -51.6100000000000         2.329962052715977E-007
  -51.4200000000000         2.353578294912214E-007
  -51.2300000000000         2.380558477423386E-007
  -51.0400000000000         2.409297749113658E-007
  -50.8500000000000         2.439462350443661E-007
  -50.6600000000000         2.469842158999606E-007
  -50.4700000000000         2.499313902066424E-007
  -50.2800000000000         2.526908046678860E-007
  -50.0900000000000         2.552723107273643E-007
  -49.9000000000000         2.576937930069207E-007
  -49.7100000000000         2.600022872038182E-007
  -49.5200000000000         2.624284012614596E-007
  -49.3300000000000         2.645787387410419E-007
  -49.1400000000000         2.667354869389071E-007
  -48.9500000000000         2.689828136913324E-007
  -48.7600000000000         2.709550394437802E-007
  -48.5700000000000         2.729587142891202E-007
  -48.3800000000000         2.750167440617411E-007
  -48.1900000000000         2.771146648249128E-007
  -48.0000000000000         2.794234151567152E-007
  -47.8100000000000         2.817892934606895E-007
  -47.6200000000000         2.842479019725730E-007
  -47.4300000000000         2.867456337812056E-007
  -47.2400000000000         2.892839009782761E-007
  -47.0500000000000         2.918170968485883E-007
  -46.8600000000000         2.944156572665371E-007
  -46.6700000000000         2.970602385091042E-007
  -46.4800000000000         2.997420346445891E-007
  -46.2900000000000         3.022374929604609E-007
  -46.1000000000000         3.044271804986821E-007
  -45.9100000000000         3.063321446678261E-007
  -45.7200000000000         3.080243769285712E-007
  -45.5300000000000         3.095372810399628E-007
  -45.3400000000000         3.109472388554832E-007
  -45.1500000000000         3.124242190824591E-007
  -44.9600000000000         3.139581858848819E-007
  -44.7700000000000         3.156604548216375E-007
  -44.5800000000000         3.174100158706670E-007
  -44.3900000000000         3.194094825961139E-007
  -44.2000000000000         3.215225987011444E-007
  -44.0100000000000         3.237373597538252E-007
  -43.8200000000000         3.261121551583433E-007
  -43.6300000000000         3.286906191546399E-007
  -43.4400000000000         3.314920000059163E-007
  -43.2500000000000         3.341985657565917E-007
  -43.0600000000000         3.367816285789191E-007
  -42.8700000000000         3.397904457021373E-007
  -42.6800000000000         3.429019227924835E-007
  -42.4900000000000         3.461000703846866E-007
  -42.3000000000000         3.492484979885501E-007
  -42.1100000000000         3.523205552333977E-007
  -41.9200000000000         3.555646611112984E-007
  -41.7300000000000         3.585935754987805E-007
  -41.5400000000000         3.617907089188656E-007
  -41.3500000000000         3.652754522931845E-007
  -41.1600000000000         3.688814777916860E-007
  -40.9700000000000         3.729958651927512E-007
  -40.7800000000000         3.770586737958629E-007
  -40.5900000000000         3.810304086831658E-007
  -40.4000000000000         3.851773986662924E-007
  -40.2100000000000         3.890117442142843E-007
  -40.0200000000000         3.928015850043775E-007
  -39.8300000000000         3.965454520882032E-007
  -39.6400000000000         4.002262952174265E-007
  -39.4500000000000         4.035990472323066E-007
  -39.2600000000000         4.069311115691819E-007
  -39.0700000000000         4.100335813672049E-007
  -38.8800000000000         4.132389650225046E-007
  -38.6900000000000         4.163360546695973E-007
  -38.5000000000000         4.196503315217723E-007
  -38.3100000000000         4.232427336437513E-007
  -38.1200000000000         4.269019412101339E-007
  -37.9300000000000         4.304100229452666E-007
  -37.7400000000000         4.339001291372854E-007
  -37.5500000000000         4.371314446725192E-007
  -37.3600000000000         4.402757641370174E-007
  -37.1700000000000         4.435004243280933E-007
  -36.9800000000000         4.467172039448221E-007
  -36.7900000000000         4.498607600832577E-007
  -36.6000000000000         4.529292329946899E-007
  -36.4100000000000         4.557840018029757E-007
  -36.2200000000000         4.582879682565687E-007
  -36.0300000000000         4.607059717629689E-007
  -35.8400000000000         4.632416855234249E-007
  -35.6500000000000         4.656848043845308E-007
  -35.4600000000000         4.679992221059019E-007
  -35.2700000000000         4.705071465066704E-007
  -35.0800000000000         4.733381902525077E-007
  -34.8900000000000         4.760743033084258E-007
  -34.7000000000000         4.789004585568410E-007
  -34.5100000000000         4.820304205386505E-007
  -34.3200000000000         4.852619706453336E-007
  -34.1300000000000         4.885885033178191E-007
  -33.9400000000000         4.919925247632883E-007
  -33.7500000000000         4.954750880436781E-007
  -33.5600000000000         4.988707304618040E-007
  -33.3700000000000         5.020664700595820E-007
  -33.1800000000000         5.051280759976043E-007
  -32.9900000000000         5.079717360192420E-007
  -32.8000000000000         5.105850045011455E-007
  -32.6100000000000         5.132536880725154E-007
  -32.4200000000000         5.158920258156099E-007
  -32.2300000000000         5.186371659715184E-007
  -32.0400000000000         5.215349560759132E-007
  -31.8500000000000         5.245168709474055E-007
  -31.6600000000000         5.275833753258465E-007
  -31.4700000000000         5.307979189620523E-007
  -31.2800000000000         5.337354606116866E-007
  -31.0900000000000         5.364206416829443E-007
  -30.9000000000000         5.387975230728645E-007
  -30.7100000000000         5.409892191352325E-007
  -30.5200000000000         5.430448225800524E-007
  -30.3300000000000         5.449068758746515E-007
  -30.1400000000000         5.467174544102388E-007
  -29.9500000000000         5.485472220209638E-007
  -29.7600000000000         5.504298647239989E-007
  -29.5700000000000         5.524588772593295E-007
  -29.3800000000000         5.546328006245362E-007
  -29.1900000000000         5.566092320072647E-007
  -29.0000000000000         5.586235982708928E-007
  -28.8100000000000         5.606752081047649E-007
  -28.6200000000000         5.627136405444667E-007
  -28.4300000000000         5.647548244690153E-007
  -28.2400000000000         5.669750338616377E-007
  -28.0500000000000         5.688815266632968E-007
  -27.8600000000000         5.707622440453209E-007
  -27.6700000000000         5.726400652161162E-007
  -27.4800000000000         5.744526867953848E-007
  -27.2900000000000         5.761535849966078E-007
  -27.1000000000000         5.778460527181523E-007
  -26.9100000000000         5.794983727943724E-007
  -26.7200000000000         5.812582481296677E-007
  -26.5300000000000         5.830320750288097E-007
  -26.3400000000000         5.848904320644894E-007
  -26.1500000000000         5.868917622225281E-007
  -25.9600000000000         5.890554378222195E-007
  -25.7700000000000         5.912144428444450E-007
  -25.5800000000000         5.933965144008821E-007
  -25.3900000000000         5.956009990044703E-007
  -25.2000000000000         5.977994955062554E-007
  -25.0100000000000         5.998719708087667E-007
  -24.8200000000000         6.018291727574025E-007
  -24.6300000000000         6.037139195814823E-007
  -24.4400000000000         6.054259775162278E-007
  -24.2500000000000         6.069711220152669E-007
  -24.0600000000000         6.084456657001990E-007
  -23.8700000000000         6.099339299949442E-007
  -23.6800000000000         6.115875696483359E-007
  -23.4900000000000         6.134833040195173E-007
  -23.3000000000000         6.152840231477890E-007
  -23.1100000000000         6.173143972540464E-007
  -22.9200000000000         6.196021564545006E-007
  -22.7300000000000         6.217706061332147E-007
  -22.5400000000000         6.238849321709179E-007
  -22.3500000000000         6.260052233992535E-007
  -22.1600000000000         6.281346568871847E-007
  -21.9700000000000         6.302230391132762E-007
  -21.7800000000000         6.322038662789520E-007
  -21.5900000000000         6.339641541907701E-007
  -21.4000000000000         6.353502894455464E-007
  -21.2100000000000         6.367624427053274E-007
  -21.0200000000000         6.381128103441535E-007
  -20.8300000000000         6.393061536587391E-007
  -20.6400000000000         6.406301833726671E-007
  -20.4500000000000         6.421723789461264E-007
  -20.2600000000000         6.438699396026704E-007
  -20.0700000000000         6.455928372759629E-007
  -19.8800000000000         6.472298957548366E-007
  -19.6900000000000         6.486992759353667E-007
  -19.5000000000000         6.499830577844955E-007
  -19.3100000000000         6.511085842443479E-007
  -19.1200000000000         6.521078346941647E-007
  -18.9300000000000         6.530134736741871E-007
  -18.7400000000000         6.538532934749127E-007
  -18.5500000000000         6.546891330507079E-007
  -18.3600000000000         6.555566652423835E-007
  -18.1700000000000         6.564565478114266E-007
  -17.9800000000000         6.573782872522233E-007
  -17.7900000000000         6.583485574648556E-007
  -17.6000000000000         6.593145030243050E-007
  -17.4100000000000         6.604249427075082E-007
  -17.2200000000000         6.615473863792629E-007
  -17.0300000000000         6.627742251650491E-007
  -16.8400000000000         6.637933491202832E-007
  -16.6500000000000         6.647002007196237E-007
  -16.4600000000000         6.653611595787718E-007
  -16.2700000000000         6.659604998257590E-007
  -16.0800000000000         6.664037313191484E-007
  -15.8900000000000         6.668400843525041E-007
  -15.7000000000000         6.671880563244070E-007
  -15.5100000000000         6.675089838935528E-007
  -15.3200000000000         6.676783147370054E-007
  -15.1300000000000         6.677257734528693E-007
  -14.9400000000000         6.676483693995408E-007
  -14.7500000000000         6.675016985023360E-007
  -14.5600000000000         6.671406443835538E-007
  -14.3700000000000         6.667611480518079E-007
  -14.1800000000000         6.663383004799926E-007
  -13.9900000000000         6.658800087873046E-007
  -13.8000000000000         6.653713142070855E-007
  -13.6100000000000         6.648512384544024E-007
  -13.4200000000000         6.643101458078659E-007
  -13.2300000000000         6.637656816193417E-007
  -13.0400000000000         6.632782740885315E-007
  -12.8500000000000         6.628703563227371E-007
  -12.6600000000000         6.623902212757443E-007
  -12.4700000000000         6.620900720843882E-007
  -12.2800000000000         6.618787651167591E-007
  -12.0900000000000         6.618711753037251E-007
  -11.9000000000000         6.619197747195880E-007
  -11.7100000000000         6.621837551704383E-007
  -11.5200000000000         6.624440237174893E-007
  -11.3300000000000         6.626609223897930E-007
  -11.1400000000000         6.626339425921576E-007
  -10.9500000000000         6.623285389933245E-007
  -10.7600000000000         6.616227217179266E-007
  -10.5700000000000         6.606621170788907E-007
  -10.3800000000000         6.595200499466706E-007
  -10.1900000000000         6.582972449441083E-007
  -10.0000000000000         6.569854925339487E-007
  -9.81000000000000         6.556348412334548E-007
  -9.62000000000000         6.541391927324616E-007
  -9.42999999999999         6.525512874949297E-007
  -9.23999999999999         6.509810115942880E-007
  -9.05000000000000         6.494425129099073E-007
  -8.86000000000000         6.478840316008556E-007
  -8.67000000000000         6.464315602241099E-007
  -8.48000000000000         6.448874192328292E-007
  -8.28999999999999         6.431849479413165E-007
  -8.09999999999999         6.413965376453268E-007
  -7.91000000000000         6.394720139621602E-007
  -7.72000000000000         6.374758850241437E-007
  -7.53000000000000         6.356081930508174E-007
  -7.34000000000000         6.338343694990741E-007
  -7.15000000000001         6.320661175324430E-007
  -6.95999999999999         6.301440640556351E-007
  -6.77000000000000         6.282279874399923E-007
  -6.58000000000000         6.263265360629301E-007
  -6.39000000000000         6.242506865693132E-007
  -6.20000000000000         6.221692004968039E-007
  -6.01000000000001         6.203389553144631E-007
  -5.81999999999999         6.186981702630692E-007
  -5.63000000000000         6.172004611315841E-007
  -5.44000000000000         6.156346677961551E-007
  -5.25000000000000         6.138477984531040E-007
  -5.06000000000000         6.118138243868028E-007
  -4.87000000000000         6.095984991107466E-007
  -4.67999999999999         6.072673594634859E-007
  -4.48999999999999         6.048687577376179E-007
  -4.30000000000000         6.022175842904512E-007
  -4.11000000000000         5.995189286267138E-007
  -3.92000000000000         5.966300467473213E-007
  -3.73000000000000         5.937010333190274E-007
  -3.53999999999999         5.907448978037576E-007
  -3.34999999999999         5.877372189917436E-007
  -3.16000000000000         5.848111218445649E-007
  -2.97000000000000         5.818977942972410E-007
  -2.78000000000000         5.789025065139194E-007
  -2.59000000000000         5.758165636495719E-007
  -2.40000000000001         5.723626679302322E-007
  -2.20999999999999         5.688596627015016E-007
  -2.02000000000000         5.654100576177734E-007
  -1.83000000000000         5.619693234527701E-007
  -1.64000000000000         5.582798465695066E-007
  -1.45000000000000         5.546948053934180E-007
  -1.26000000000001         5.509807003397211E-007
  -1.06999999999999         5.474648907211390E-007
 -0.879999999999995         5.437999479017479E-007
 -0.689999999999998         5.403855490920773E-007
 -0.500000000000000         5.370149011673397E-007
 -0.310000000000002         5.338746708971631E-007
 -0.120000000000005         5.306820959953954E-007
  7.000000000000739E-002    5.272887976266259E-007
  0.260000000000005         5.237566846670851E-007
  0.450000000000003         5.205007452361742E-007
  0.640000000000001         5.174058481251688E-007
  0.829999999999998         5.144674971336050E-007
   1.02000000000000         5.118431344514301E-007
   1.21000000000001         5.095755199286194E-007
   1.40000000000001         5.072316621374208E-007
   1.59000000000000         5.051958090545072E-007
   1.78000000000000         5.032493479882626E-007
   1.97000000000000         5.014560831674994E-007
   2.16000000000000         4.997984254401783E-007
   2.34999999999999         4.983427482026124E-007
   2.54000000000001         4.971399464305643E-007
   2.73000000000000         4.960219798674275E-007
   2.92000000000000         4.949446748131459E-007
   3.11000000000000         4.937890390253278E-007
   3.30000000000000         4.925744986603881E-007
   3.48999999999999         4.909696556047383E-007
   3.68000000000001         4.897599713840120E-007
   3.87000000000000         4.882612939278086E-007
   4.06000000000000         4.871505946050275E-007
   4.25000000000000         4.859586967852925E-007
   4.44000000000000         4.844704833477411E-007
   4.63000000000000         4.828946277767211E-007
   4.82000000000001         4.811780143261771E-007
   5.01000000000001         4.795910882573149E-007
   5.20000000000000         4.772072575569318E-007
   5.39000000000000         4.752793762839035E-007
   5.58000000000000         4.727954023613353E-007
   5.77000000000000         4.703795849687824E-007
   5.96000000000001         4.684213112186109E-007
   6.15000000000001         4.654938785286247E-007
   6.34000000000000         4.628891213971133E-007
   6.53000000000000         4.600155958624547E-007