  -1.42500000000000         0.000000000000000E+000
  -1.23500000000000        -1.355082639229765E-014
  -1.04500000000000        -3.457587272450824E-013
 -0.855000000000000        -2.591888646673081E-012
 -0.665000000000000        -1.361392854222379E-011
 -0.475000000000000        -5.690171124036567E-011
 -0.285000000000000        -2.015566182768140E-010
 -9.499999999999975E-002   -6.164680419053157E-010
  9.500000000000020E-002   -1.652922028637041E-009
  0.285000000000000        -3.949798691075525E-009
  0.475000000000000        -8.487974397063707E-009
  0.665000000000000        -1.663041614529549E-008
  0.855000000000000        -2.988818114002886E-008
   1.04500000000000        -4.981315109093647E-008
   1.23500000000000        -7.758354106878947E-008
   1.42500000000000        -1.136186471056783E-007
   1.61500000000000        -1.573192395582873E-007
   1.80500000000000        -2.067165442641016E-007
   1.99500000000000        -2.584704084822346E-007
   2.18500000000000        -3.078383398797715E-007
   2.37500000000000        -3.491224044021156E-007
   2.56500000000000        -3.756240176858347E-007
   2.75500000000000        -3.812721799962849E-007
   2.94500000000000        -3.595754790415189E-007
   3.13500000000000        -3.080831740272194E-007
   3.32500000000000        -2.256251992570628E-007
   3.51500000000000        -1.138651743020237E-007
   3.70500000000000         2.279815592003384E-008
   3.89500000000000         1.773772099105105E-007
   4.08500000000000         3.409812413578082E-007
   4.27500000000000         5.035596891091849E-007
   4.46500000000000         6.547592618877230E-007
   4.65500000000000         7.848695059839562E-007
   4.84500000000000         8.854781641545459E-007
   5.03500000000000         9.499147556611403E-007
   5.22500000000000         9.746177295148976E-007
   5.41500000000000         9.566374684748241E-007
   5.60500000000000         8.973862594376851E-007
   5.79500000000000         8.007885773144122E-007
   5.98500000000000         6.718144190259321E-007
   6.17500000000000         5.184240320146543E-007
   6.36500000000000         3.516330773565067E-007
   6.55500000000000         1.827486276492467E-007
   6.74500000000000         2.464343606570406E-008
   6.93500000000000        -1.083935068228863E-007
   7.12500000000000        -2.054089029731829E-007
   7.31500000000000        -2.565384484648559E-007
   7.50500000000000        -2.556041545476467E-007
   7.69500000000000        -1.998703237400753E-007
   7.88500000000000        -9.119677099443417E-008
   8.07500000000000         6.440676479050070E-008
   8.26500000000000         2.596228506684479E-007
   8.45500000000000         4.741761878353100E-007
   8.64500000000000         6.973755108037616E-007
   8.83500000000000         9.085343673837236E-007
   9.02500000000000         1.094007889379062E-006
   9.21500000000000         1.242799515996407E-006
   9.40500000000000         1.345157134292718E-006
   9.59500000000000         1.396279163893933E-006
   9.78500000000000         1.397169239201000E-006
   9.97500000000000         1.347254049292440E-006
   10.1650000000000         1.256317881046255E-006
   10.3550000000000         1.132369008616372E-006
   10.5450000000000         9.853579558415674E-007
   10.7350000000000         8.268727825222127E-007
   10.9250000000000         6.670097456831732E-007
   11.1150000000000         5.120634731141292E-007
   11.3050000000000         3.737337508486568E-007
   11.4950000000000         2.602532555082219E-007
   11.6850000000000         1.795520289834021E-007
   11.8750000000000         1.363032338039061E-007
   12.0650000000000         1.310844225882420E-007
   12.2550000000000         1.649623284695378E-007
   12.4450000000000         2.320657549770091E-007
   12.6350000000000         3.234732214858553E-007
   12.8250000000000         4.263168038000020E-007
   13.0150000000000         5.273297977204105E-007
   13.2050000000000         6.026220498241006E-007
   13.3950000000000         6.416058492116182E-007
   13.5850000000000         6.189439026919350E-007
   13.7750000000000         5.319608383832865E-007
   13.9650000000000         3.715260044706961E-007
   14.1550000000000         1.388168399024564E-007
   14.3450000000000        -1.538284284519022E-007
   14.5350000000000        -4.908426200230270E-007
   14.7250000000000        -8.512401324798653E-007
   14.9150000000000        -1.211553654351832E-006
   15.1050000000000        -1.546560126335594E-006
   15.2950000000000        -1.838258337741771E-006
   15.4850000000000        -2.066722163867049E-006
   15.6750000000000        -2.214668723572918E-006
   15.8650000000000        -2.271928284058589E-006
   16.0550000000000        -2.232126786416488E-006
   16.2450000000000        -2.094591337576843E-006
   16.4350000000000        -1.866474691213281E-006
   16.6250000000000        -1.555147958628901E-006
   16.8150000000000        -1.173673593783339E-006
   17.0050000000000        -7.401033506757702E-007
   17.1950000000000        -2.766943463540712E-007
   17.3850000000000         1.899823844320654E-007
   17.5750000000000         6.317736159720598E-007
   17.7650000000000         1.020242001624301E-006
   17.9550000000000         1.323142506021741E-006
   18.1450000000000         1.515126023180430E-006
   18.3350000000000         1.580131726925900E-006
   18.5250000000000         1.510320519352000E-006
   18.7150000000000         1.301501971813211E-006
   18.9050000000000         9.704470410095631E-007
   19.0950000000000         5.422407744067812E-007
   19.2850000000000         5.002050353576105E-008
   19.4750000000000        -4.678509643323733E-007
   19.6650000000000        -9.712037682067637E-007
   19.8550000000000        -1.421824864320211E-006
   20.0450000000000        -1.786310015637353E-006
   20.2350000000000        -2.043434526722243E-006
   20.4250000000000        -2.175741511267629E-006
   20.6150000000000        -2.176903132743064E-006
   20.8050000000000        -2.045121995533518E-006
   20.9950000000000        -1.795889519672041E-006
   21.1850000000000        -1.442715172948866E-006
   21.3750000000000        -1.010070736462445E-006
   21.5650000000000        -5.226290091052849E-007
   21.7550000000000        -8.647413139912008E-009
   21.9450000000000         5.033338893163445E-007
   22.1350000000000         9.830407456602072E-007
   22.3250000000000         1.401641892583518E-006
   22.5150000000000         1.731430402866899E-006
   22.7050000000000         1.948585796967812E-006
   22.8950000000000         2.041485081661293E-006
   23.0850000000000         1.993042806394397E-006
   23.2750000000000         1.811381881193855E-006
   23.4650000000000         1.510053792999054E-006
   23.6550000000000         1.113727673019691E-006
   23.8450000000000         6.484193415086847E-007
   24.0350000000000         1.669465200392576E-007
   24.2250000000000        -2.872993927586057E-007
   24.4150000000000        -6.724528123700936E-007
   24.6050000000000        -9.510329171309066E-007
   24.7950000000000        -1.087733138104344E-006
   24.9850000000000        -1.070486428867323E-006
   25.1750000000000        -8.975699156319058E-007
   25.3650000000000        -5.827816518524428E-007
   25.5550000000000        -1.508066262110024E-007
   25.7450000000000         3.652066326195905E-007
   25.9350000000000         9.249149867175324E-007
   26.1250000000000         1.485216984869437E-006
   26.3150000000000         2.002084125752699E-006
   26.5050000000000         2.441841414662994E-006
   26.6950000000000         2.767744895774593E-006
   26.8850000000000         2.951111122392849E-006
   27.0750000000000         2.971713959269391E-006
   27.2650000000000         2.820475765988521E-006
   27.4550000000000         2.500151501368886E-006
   27.6450000000000         2.020732421310420E-006
   27.8350000000000         1.405862378618639E-006
   28.0250000000000         6.890893714683742E-007
   28.2150000000000        -8.743476100105630E-008
   28.4050000000000        -8.736368286166812E-007
   28.5950000000000        -1.610723679302896E-006
   28.7850000000000        -2.246190151446931E-006
   28.9750000000000        -2.728040924583174E-006
   29.1650000000000        -3.022951423969966E-006
   29.3550000000000        -3.105707458751917E-006
   29.5450000000000        -2.958691982980566E-006
   29.7350000000000        -2.605381314017301E-006
   29.9250000000000        -2.076424847943810E-006
   30.1150000000000        -1.418989356425992E-006
   30.3050000000000        -6.917105225614819E-007
   30.4950000000000         4.081685171114639E-008
   30.6850000000000         7.142549302046544E-007
   30.8750000000000         1.275963912866684E-006
   31.0650000000000         1.679949867903714E-006
   31.2550000000000         1.888558219727772E-006
   31.4450000000000         1.895989586700347E-006
   31.6350000000000         1.701313691614041E-006
   31.8250000000000         1.325869567542503E-006
   32.0150000000000         7.981855312838294E-007
   32.2050000000000         1.582276687945238E-007
   32.3950000000000        -5.464456066517151E-007
   32.5850000000000        -1.268058017788577E-006
   32.7750000000000        -1.955755464152962E-006
   32.9650000000000        -2.560631131455912E-006
   33.1550000000000        -3.039321381171377E-006
   33.3450000000000        -3.357796070160795E-006
   33.5350000000000        -3.491294896400121E-006
   33.7250000000000        -3.428630599663688E-006
   33.9150000000000        -3.174830352835777E-006
   34.1050000000000        -2.747967560649430E-006
   34.2950000000000        -2.174576657634851E-006
   34.4850000000000        -1.502018573706832E-006
   34.6750000000000        -7.872905794675400E-007
   34.8650000000000        -8.919418692788993E-008
   35.0550000000000         5.336890827788181E-007
   35.2450000000000         1.029443580741250E-006
   35.4350000000000         1.356762537766832E-006
   35.6250000000000         1.493583741268338E-006
   35.8150000000000         1.432150937171317E-006
   36.0050000000000         1.176305269911288E-006
   36.1950000000000         7.575349887976445E-007
   36.3850000000000         2.128353055125478E-007
   36.5750000000000        -4.112188248312290E-007
   36.7650000000000        -1.065657827168921E-006
   36.9550000000000        -1.702588974118241E-006
   37.1450000000000        -2.283989873063904E-006
   37.3350000000000        -2.774483364372624E-006
   37.5250000000000        -3.149455043174873E-006
   37.7150000000000        -3.395211403692370E-006
   37.9050000000000        -3.504976020099758E-006
   38.0950000000000        -3.482836769293673E-006
   38.2850000000000        -3.347856760597134E-006
   38.4750000000000        -3.112284057592333E-006
   38.6650000000000        -2.796434423069819E-006
   38.8550000000000        -2.427634831834877E-006
   39.0450000000000        -2.033633982105121E-006
   39.2350000000000        -1.644604791326605E-006
   39.4250000000000        -1.289365085526778E-006
   39.6150000000000        -9.939065501988513E-007
   39.8050000000000        -7.781809973220952E-007
   39.9950000000000        -6.542187700841404E-007
   40.1850000000000        -6.300724732016892E-007
   40.3750000000000        -6.999975158823577E-007
   40.5650000000000        -8.573368853590732E-007
   40.7550000000000        -1.072528220103716E-006
   40.9450000000000        -1.319069772450737E-006
   41.1350000000000        -1.565866916010335E-006
   41.3250000000000        -1.782508775901202E-006
   41.5150000000000        -1.940209589275081E-006
   41.7050000000000        -2.026008246848958E-006
   41.8950000000000        -2.025910589227475E-006
   42.0850000000000        -1.928598114943870E-006
   42.2750000000000        -1.743491875527257E-006
   42.4650000000000        -1.480443050290407E-006
   42.6550000000000        -1.152525534936157E-006
   42.8450000000000        -7.753355436519176E-007
   43.0350000000000        -3.648569158125820E-007
   43.2250000000000         6.324439334269273E-008
   43.4150000000000         4.953587138733276E-007
   43.6050000000000         9.175920032166382E-007
   43.7950000000000         1.314799255730804E-006
   43.9850000000000         1.673116462898901E-006
   44.1750000000000         1.977445294071219E-006
   44.3650000000000         2.212954757052357E-006
   44.5550000000000         2.365651380234641E-006
   44.7450000000000         2.422620150675327E-006
   44.9350000000000         2.384515567871876E-006
   45.1250000000000         2.249696314495923E-006
   45.3150000000000         2.012376774966058E-006
   45.5050000000000         1.695603049742848E-006
   45.6950000000000         1.314783936819670E-006
   45.8850000000000         8.921941955560800E-007
   46.0750000000000         4.508770683152663E-007
   46.2650000000000         1.282607774918164E-008
   46.4550000000000        -4.023990085828345E-007
   46.6450000000000        -7.811173014409512E-007
   46.8350000000000        -1.116561172753110E-006
   47.0250000000000        -1.400823811749933E-006
   47.2150000000000        -1.629164123184888E-006
   47.4050000000000        -1.810085041326435E-006
   47.5950000000000        -1.945057596009284E-006
   47.7850000000000        -2.035261174290535E-006
   47.9750000000000        -2.085033849706298E-006
   48.1650000000000        -2.096266255082442E-006
   48.3550000000000        -2.071795647961595E-006
   48.5450000000000        -2.020474318033839E-006
   48.7350000000000        -1.948621760909356E-006
   48.9250000000000        -1.866105621083562E-006
   49.1150000000000        -1.781127229260420E-006
   49.3050000000000        -1.713596669106416E-006
   49.4950000000000        -1.669017428857185E-006
   49.6850000000000        -1.666191081898836E-006
   49.8750000000000        -1.707403894010257E-006
   50.0650000000000        -1.794428564563603E-006
   50.2550000000000        -1.931205792512812E-006
   50.4450000000000        -2.099809228947615E-006
   50.6350000000000        -2.288803993440456E-006
   50.8250000000000        -2.481240189547129E-006
   51.0150000000000        -2.659710754612952E-006
   51.2050000000000        -2.816206897000929E-006
   51.3950000000000        -2.939124993444609E-006
   51.5850000000000        -3.016096177655772E-006
   51.7750000000000        -3.053959032759683E-006
   51.9650000000000        -3.055685797521568E-006
   52.1550000000000        -3.027629452727893E-006
   52.3450000000000        -2.978456392420098E-006
   52.5350000000000        -2.916106977690718E-006
   52.7250000000000        -2.840897777895676E-006
   52.9150000000000        -2.759562841983250E-006
   53.1050000000000        -2.678110119244176E-006
   53.2950000000000        -2.598980737916206E-006
   53.4850000000000        -2.521604139536610E-006
   53.6750000000000        -2.448637884008750E-006
   53.8650000000000        -2.387999596677763E-006
   54.0550000000000        -2.343098419398388E-006
   54.2450000000000        -2.317129793250329E-006
   54.4350000000000        -2.313209919997559E-006
   54.6250000000000        -2.333202512934912E-006
   54.8150000000000        -2.375257689454202E-006
   55.0050000000000        -2.434424993429884E-006
   55.1950000000000        -2.503072269092295E-006
   55.3850000000000        -2.571204859380668E-006
   55.5750000000000        -2.626716926052706E-006
   55.7650000000000        -2.660200927550551E-006
   55.9550000000000        -2.656937395148885E-006
   56.1450000000000        -2.614592994324606E-006
   56.3350000000000        -2.535688544288582E-006
   56.5250000000000        -2.423896099792299E-006
   56.7150000000000        -2.286847490114931E-006
   56.9050000000000        -2.133380112697463E-006
   57.0950000000000        -1.970796853702986E-006
   57.2850000000000        -1.805169372395632E-006
   57.4750000000000        -1.635662571461189E-006
   57.6650000000000        -1.466344047680535E-006
   57.8550000000000        -1.299548104611182E-006
   58.0450000000000        -1.126485419020746E-006
   58.2350000000000        -9.479262092425015E-007
   58.4250000000000        -7.668246144682450E-007
   58.6150000000000        -5.869415749291687E-007
   58.8050000000000        -4.258209851991749E-007
   58.9950000000000        -2.945097741954542E-007
   59.1850000000000        -2.038489111310824E-007
   59.3750000000000        -1.764539439971274E-007
   59.5650000000000        -2.211840372037689E-007
   59.7550000000000        -3.459256377561907E-007
   59.9450000000000        -5.526043771894919E-007
   60.1350000000000        -8.423227816766205E-007
   60.3250000000000        -1.196007072474445E-006
   60.5150000000000        -1.596088408557620E-006
   60.7050000000000        -2.019340887607349E-006
   60.8950000000000        -2.440405384600958E-006
   61.0850000000000        -2.836893976605067E-006
   61.2750000000000        -3.186825238004408E-006
   61.4650000000000        -3.469770412479303E-006
   61.6550000000000        -3.670354525701041E-006
   61.8450000000000        -3.777161565581069E-006
   62.0350000000000        -3.783350761164594E-006
   62.2250000000000        -3.688368362187216E-006
   62.4150000000000        -3.504167913875681E-006
   62.6050000000000        -3.231023707787284E-006
   62.7950000000000        -2.886754881024346E-006
   62.9850000000000        -2.491614820987258E-006
   63.1750000000000        -2.073630195165375E-006
   63.3650000000000        -1.662830223477093E-006
   63.5550000000000        -1.290822043957575E-006
   63.7450000000000        -9.851955007152936E-007
   63.9350000000000        -7.819010666713135E-007
   64.1250000000000        -7.017075375158992E-007
   64.3150000000000        -7.559497629162327E-007
   64.5050000000000        -9.486347588313205E-007
   64.6950000000000        -1.261086752960196E-006
   64.8850000000000        -1.667876064535564E-006
   65.0750000000000        -2.141351128635002E-006
   65.2650000000000        -2.633317800083109E-006
   65.4550000000000        -3.098521573186875E-006
   65.6450000000000        -3.493573877020001E-006
   65.8350000000000        -3.780940400639048E-006
   66.0250000000000        -3.936452802603121E-006
   66.2150000000000        -3.946095383656080E-006
   66.4050000000000        -3.809529936982913E-006
   66.5950000000000        -3.542589387435330E-006
   66.7850000000000        -3.169223718119443E-006
   66.9750000000000        -2.723266603358777E-006
   67.1650000000000        -2.246375017002036E-006
   67.3550000000000        -1.783363324761606E-006
   67.5450000000000        -1.377944004816742E-006
   67.7350000000000        -1.068737189940079E-006
   67.9250000000000        -8.868690649081410E-007
   68.1150000000000        -8.594919955565558E-007
   68.3050000000000        -9.973740355932008E-007
   68.4950000000000        -1.305692793635303E-006
   68.6850000000000        -1.773955221673950E-006
   68.8750000000000        -2.378630660144239E-006
   69.0650000000000        -3.085570261079072E-006
   69.2550000000000        -3.853133163433641E-006
   69.4450000000000        -4.628760425240889E-006
   69.6350000000000        -5.356858694396852E-006
   69.8250000000000        -5.983298378735357E-006
   70.0150000000000        -6.459952956501885E-006
   70.2050000000000        -6.747625177059500E-006
   70.3950000000000        -6.823597196611266E-006
   70.5850000000000        -6.681372017992890E-006
   70.7750000000000        -6.327339284418100E-006
   70.9650000000000        -5.790144767855913E-006
   71.1550000000000        -5.113344431120346E-006
   71.3450000000000        -4.350290411028934E-006
   71.5350000000000        -3.560556121611790E-006
   71.7250000000000        -2.803969321361787E-006
   71.9150000000000        -2.135886498785182E-006
   72.1050000000000        -1.602562166536732E-006
   72.2950000000000        -1.237746650803755E-006
   72.4850000000000        -1.060086662444628E-006
   72.6750000000000        -1.073741473725961E-006
   72.8650000000000        -1.265611846625867E-006
   73.0550000000000        -1.614916765213138E-006
   73.2450000000000        -2.089330710262092E-006
   73.4350000000000        -2.647501337377809E-006
   73.6250000000000        -3.244841039831785E-006
   73.8150000000000        -3.835418883581166E-006
   74.0050000000000        -4.375024315591023E-006
   74.1950000000000        -4.824444945456894E-006
   74.3850000000000        -5.151514857491177E-006
   74.5750000000000        -5.339777278644717E-006
   74.7650000000000        -5.367418762092457E-006
   74.9550000000000        -5.246802795201595E-006
   75.1450000000000        -4.981191031561903E-006
   75.3350000000000        -4.603569309071334E-006
   75.5250000000000        -4.148935311625629E-006
   75.7150000000000        -3.656773556740444E-006
   75.9050000000000        -3.175069333075153E-006
   76.0950000000000        -2.752337621497058E-006
   76.2850000000000        -2.429807650875395E-006
   76.4750000000000        -2.239966943320232E-006
   76.6650000000000        -2.204661564123903E-006
   76.8550000000000        -2.332553255088948E-006
   77.0450000000000        -2.607412512913988E-006
   77.2350000000000        -3.010247253515701E-006
   77.4250000000000        -3.510809765118971E-006
   77.6150000000000        -4.069102827522005E-006
   77.8050000000000        -4.633668485649548E-006
   77.9950000000000        -5.158874002555232E-006
   78.1850000000000        -5.601668363803196E-006
   78.3750000000000        -5.927156064717876E-006
   78.5650000000000        -6.106505473910081E-006
   78.7550000000000        -6.132656697946225E-006
   78.9450000000000        -5.989435566505201E-006
   79.1350000000000        -5.697950003683613E-006
   79.3250000000000        -5.272782479828913E-006
   79.5150000000000        -4.744168825643172E-006
   79.7050000000000        -4.148240764075275E-006
   79.8950000000000        -3.525995196275638E-006
   80.0850000000000        -2.920234429030342E-006
   80.2750000000000        -2.369505496245370E-006
   80.4650000000000        -1.915689524931144E-006
   80.6550000000000        -1.589547602755277E-006
   80.8450000000000        -1.413231447486205E-006
   81.0350000000000        -1.399234157258757E-006
   81.2250000000000        -1.549946021170648E-006
   81.4150000000000        -1.848941022419044E-006
   81.6050000000000        -2.273023349095429E-006
   81.7950000000000        -2.790625760373457E-006
   81.9850000000000        -3.365459708268409E-006
   82.1750000000000        -3.960208021250329E-006
   82.3650000000000        -4.528434795815795E-006
   82.5550000000000        -5.034737962659381E-006
   82.7450000000000        -5.449905442069985E-006
   82.9350000000000        -5.752195041637947E-006
   83.1250000000000        -5.932459446576172E-006
   83.3150000000000        -5.988524417802318E-006
   83.5050000000000        -5.926719478368937E-006
   83.6950000000000        -5.765258093118317E-006
   83.8850000000000        -5.524996053014883E-006
   84.0750000000000        -5.226800431427271E-006
   84.2650000000000        -4.897350335685416E-006
   84.4550000000000        -4.559482310181117E-006
   84.6450000000000        -4.235078653885586E-006
   84.8350000000000        -3.941751201832691E-006
   85.0250000000000        -3.693845752168025E-006
   85.2150000000000        -3.501165039714277E-006
   85.4050000000000        -3.369161692481594E-006
   85.5950000000000        -3.300319790510147E-006
   85.7850000000000        -3.291483114600952E-006
   85.9750000000000        -3.338835522810777E-006
   86.1650000000000        -3.433591827583987E-006
   86.3550000000000        -3.565749658673075E-006
   86.5450000000000        -3.724539222636549E-006
   86.7350000000000        -3.898767422277153E-006
   86.9250000000000        -4.077649815419383E-006
   87.1150000000000        -4.251744016241440E-006
   87.3050000000000        -4.413043325346157E-006
   87.4950000000000        -4.556321118078662E-006
   87.6850000000000        -4.678346424515708E-006
   87.8750000000000        -4.777589905371575E-006
   88.0650000000000        -4.857039994208759E-006
   88.2550000000000        -4.925386654373663E-006
   88.4450000000000        -4.985845056593450E-006
   88.6350000000000        -5.046139425035885E-006
   88.8250000000000        -5.109505417303896E-006
   89.0150000000000        -5.185362439957602E-006
   89.2050000000000        -5.272333156152550E-006
   89.3950000000000        -5.374718335046913E-006
   89.5850000000000        -5.495353575016071E-006
   89.7750000000000        -5.635505318329747E-006
   89.9650000000000        -5.795201433710864E-006
   90.1550000000000        -5.972913151974478E-006
   90.3450000000000        -6.165792045275519E-006
   90.5350000000000        -6.365034331046152E-006
   90.7250000000000        -6.572576997243797E-006
   90.9150000000000        -6.778856247702189E-006
   91.1050000000000        -6.975028565508329E-006
   91.2950000000000        -7.149780688530476E-006
   91.4850000000000        -7.291878582277020E-006
   91.6750000000000        -7.385582311278596E-006
   91.8650000000000        -7.417186957451731E-006
   92.0550000000000        -7.378842246739105E-006
   92.2450000000000        -7.255094954164010E-006
   92.4350000000000        -7.045132826287724E-006
   92.6250000000000        -6.750860244653308E-006
   92.8150000000000        -6.379164612858422E-006
   93.0050000000000        -5.943556371163086E-006
   93.1950000000000        -5.464215078151678E-006
   93.3850000000000        -4.966481448745500E-006
   93.5750000000000        -4.479115408463945E-006
   93.7650000000000        -4.032291060637941E-006
   93.9550000000000        -3.655191545867048E-006
   94.1450000000000        -3.374025129498040E-006
   94.3350000000000        -3.209792237516210E-006
   94.5250000000000        -3.177092528350086E-006
   94.7150000000000        -3.280651022104288E-006
   94.9050000000000        -3.510260458427977E-006
   95.0950000000000        -3.864044397363555E-006
   95.2850000000000        -4.314551327505824E-006
   95.4750000000000        -4.839469707752940E-006
   95.6650000000000        -5.408577266870193E-006
   95.8550000000000        -5.988522360287243E-006
   96.0450000000000        -6.546350509657129E-006
   96.2350000000000        -7.051319250718561E-006
   96.4250000000000        -7.476641933969179E-006
   96.6150000000000        -7.802124660477256E-006
   96.8050000000000        -8.012653526004770E-006
   96.9950000000000        -8.103275790855987E-006
   97.1850000000000        -8.076520099460795E-006
   97.3750000000000        -7.937701981667208E-006
   97.5650000000000        -7.712913714080285E-006
   97.7550000000000        -7.422980190672044E-006
   97.9450000000000        -7.096280624863728E-006
   98.1350000000000        -6.762814758925429E-006
   98.3250000000000        -6.451666443147228E-006
   98.5150000000000        -6.188484737495626E-006
   98.7050000000000        -5.993662350692311E-006
   98.8950000000000        -5.882893137945355E-006
   99.0850000000000        -5.850018428659451E-006
   99.2750000000000        -5.902872445962515E-006
   99.4650000000000        -6.022152484776758E-006
   99.6550000000000        -6.192577054069393E-006
   99.8450000000000        -6.396896059191308E-006
   100.035000000000        -6.602523239698668E-006
   100.225000000000        -6.794249051898131E-006
   100.415000000000        -6.944894980639903E-006
   100.605000000000        -7.042928334744611E-006
   100.795000000000        -7.079559344961946E-006
   100.985000000000        -7.049302082026625E-006
   101.175000000000        -6.955897162036826E-006
   101.365000000000        -6.807665535475475E-006
   101.555000000000        -6.614094195093736E-006
   101.745000000000        -6.389357665498408E-006
   101.935000000000        -6.149668006523936E-006
   102.125000000000        -5.910939912065946E-006
   102.315000000000        -5.689373805956379E-006
   102.505000000000        -5.499936703023360E-006
   102.695000000000        -5.357606399620495E-006
   102.885000000000        -5.274759465413254E-006
   103.075000000000        -5.259296316066031E-006
   103.265000000000        -5.315037164525994E-006
   103.455000000000        -5.444577549158641E-006
   103.645000000000        -5.645549122601889E-006
   103.835000000000        -5.910345738824869E-006
   104.025000000000        -6.232305292429207E-006
   104.215000000000        -6.591575479242233E-006
   104.405000000000        -6.968429632349374E-006
   104.595000000000        -7.342090309188796E-006
   104.785000000000        -7.691567246469988E-006
   104.975000000000        -7.997992451037130E-006
   105.165000000000        -8.245365990065350E-006
   105.355000000000        -8.426305011568821E-006
   105.545000000000        -8.535089829033052E-006
   105.735000000000        -8.569342354270637E-006
   105.925000000000        -8.526041035351740E-006
   106.115000000000        -8.424837944454342E-006
   106.305000000000        -8.271778545082972E-006
   106.495000000000        -8.079222937132745E-006
   106.685000000000        -7.859380860065091E-006
   106.875000000000        -7.624208313781654E-006
   107.065000000000        -7.385361839553491E-006
   107.255000000000        -7.153949787528149E-006
   107.445000000000        -6.941169383809621E-006
   107.635000000000        -6.758028388492030E-006
   107.825000000000        -6.614436406951031E-006
   108.015000000000        -6.519779517566927E-006
   108.205000000000        -6.482934374890449E-006
   108.395000000000        -6.504612331841273E-006
   108.585000000000        -6.585226450910910E-006
   108.775000000000        -6.721664378864382E-006
   108.965000000000        -6.913215191290339E-006
   109.155000000000        -7.142644743580347E-006
   109.345000000000        -7.395645486517042E-006
   109.535000000000        -7.655812719273780E-006
   109.725000000000        -7.906931691119493E-006
   109.915000000000        -8.135095927401563E-006
   110.105000000000        -8.329398570005782E-006