  -105.000000000000         0.000000000000000E+000
  -104.810000000000         2.268443205329721E-011
  -104.620000000000         1.693839140760664E-011
  -104.430000000000         1.568515288680057E-011
  -104.240000000000         2.932993176995601E-011
  -104.050000000000         5.766325850628380E-011
  -103.860000000000         6.130694076597527E-011
  -103.670000000000         3.742520369077671E-011
  -103.480000000000         6.179948926115936E-012
  -103.290000000000         6.437596264284910E-011
  -103.100000000000         5.184949086134932E-011
  -102.910000000000         5.729795213284623E-011
  -102.720000000000        -2.460638452273984E-011
  -102.530000000000         4.947099092124991E-011
  -102.340000000000         8.685890411371090E-011
  -102.150000000000         1.050045096222486E-010
  -101.960000000000         1.342584154854746E-010
  -101.770000000000         3.032216949216642E-010
  -101.580000000000         3.597579332396455E-010
  -101.390000000000         4.389996922481508E-010
  -101.200000000000         5.339523757091679E-010
  -101.010000000000         8.033352644615948E-010
  -100.820000000000         1.075894416908377E-009
  -100.630000000000         1.425395076319023E-009
  -100.440000000000         1.907441629317761E-009
  -100.250000000000         2.545971118222307E-009
  -100.060000000000         3.249141486526542E-009
  -99.8700000000000         3.966769715286123E-009
  -99.6800000000000         4.737453743033924E-009
  -99.4900000000000         5.564277207251722E-009
  -99.3000000000000         6.423954509473473E-009
  -99.1100000000000         7.328230567136194E-009
  -98.9200000000000         8.295057533188949E-009
  -98.7300000000000         9.250892599022350E-009
  -98.5400000000000         1.002900567848788E-008
  -98.3500000000000         1.074972215826769E-008
  -98.1600000000000         1.148271169666941E-008
  -97.9700000000000         1.223738723653406E-008
  -97.7800000000000         1.296092671643257E-008
  -97.5900000000000         1.366564767952841E-008
  -97.4000000000000         1.443918258454918E-008
  -97.2100000000000         1.512408906766510E-008
  -97.0200000000000         1.567227622464012E-008
  -96.8300000000000         1.604179249409226E-008
  -96.6400000000000         1.627393950848004E-008
  -96.4500000000000         1.670416639909102E-008
  -96.2600000000000         1.696240345778313E-008
  -96.0700000000000         1.747670562669885E-008
  -95.8800000000000         1.767547442194736E-008
  -95.6900000000000         1.814197516022577E-008
  -95.5000000000000         1.817998912897060E-008
  -95.3100000000000         1.821217933396892E-008
  -95.1200000000000         1.819065303230776E-008
  -94.9300000000000         1.802946692739011E-008
  -94.7400000000000         1.788758175405660E-008
  -94.5500000000000         1.771458434578948E-008
  -94.3600000000000         1.751402053935063E-008
  -94.1700000000000         1.733264061548128E-008
  -93.9800000000000         1.717591040785637E-008
  -93.7900000000000         1.699682825181402E-008
  -93.6000000000000         1.673325874305524E-008
  -93.4100000000000         1.614588036576733E-008
  -93.2200000000000         1.597839468916169E-008
  -93.0300000000000         1.542797732322832E-008
  -92.8400000000000         1.534227307903080E-008
  -92.6500000000000         1.484640851882246E-008
  -92.4600000000000         1.482298353137227E-008
  -92.2700000000000         1.393806010928026E-008
  -92.0800000000000         1.335345704944664E-008
  -91.8900000000000         1.269563088509067E-008
  -91.7000000000000         1.190872708009019E-008
  -91.5100000000000         1.102906908686786E-008
  -91.3200000000000         1.030549645094653E-008
  -91.1300000000000         9.879456879645964E-009
  -90.9400000000000         9.642522049896088E-009
  -90.7500000000000         9.870323050431303E-009
  -90.5600000000000         9.845969998142083E-009
  -90.3700000000000         9.799151762407982E-009
  -90.1800000000000         9.710554240717834E-009
  -89.9900000000000         9.492295827057397E-009
  -89.8000000000000         8.762336436283893E-009
  -89.6100000000000         8.464850530463850E-009
  -89.4200000000000         7.676466381225422E-009
  -89.2300000000000         7.304526336826874E-009
  -89.0400000000000         6.725578741657211E-009
  -88.8500000000000         6.089550179270225E-009
  -88.6600000000000         5.485684078169861E-009
  -88.4700000000000         4.942932914207813E-009
  -88.2800000000000         4.419692191212725E-009
  -88.0900000000000         3.890367129613891E-009
  -87.9000000000000         3.329532642035586E-009
  -87.7100000000000         2.828027351823658E-009
  -87.5200000000000         2.472285587833205E-009
  -87.3300000000000         3.190285626285538E-009
  -87.1400000000000         4.016973141205344E-009
  -86.9500000000000         5.003574268792339E-009
  -86.7600000000000         6.051062567207944E-009
  -86.5700000000000         7.152729464066155E-009
  -86.3800000000000         8.404232507506289E-009
  -86.1900000000000         9.877269040204704E-009
  -86.0000000000000         1.159721901665287E-008
  -85.8100000000000         1.360387229168242E-008
  -85.6200000000000         1.564616515521835E-008
  -85.4300000000000         1.732747590947348E-008
  -85.2400000000000         1.889459807660731E-008
  -85.0500000000000         2.024806289834553E-008
  -84.8600000000000         2.111528902816352E-008
  -84.6700000000000         2.262701179077833E-008
  -84.4800000000000         2.337005331896828E-008
  -84.2900000000000         2.425941356009251E-008
  -84.1000000000000         2.582771153599126E-008
  -83.9100000000000         2.655180595260384E-008
  -83.7200000000000         2.711902024955293E-008
  -83.5300000000000         2.751883380865398E-008
  -83.3400000000000         2.862667478632892E-008
  -83.1500000000000         2.840804451871554E-008
  -82.9600000000000         2.943555957587298E-008
  -82.7700000000000         2.893551483183412E-008
  -82.5800000000000         3.032895972903171E-008
  -82.3900000000000         2.997851734812102E-008
  -82.2000000000000         3.015823561711511E-008
  -82.0100000000000         3.057145442345789E-008
  -81.8200000000000         3.082260273105952E-008
  -81.6300000000000         3.108612668023319E-008
  -81.4400000000000         3.136584522971219E-008
  -81.2500000000000         3.162693663366675E-008
  -81.0600000000000         3.185366116876455E-008
  -80.8700000000000         3.203114975673597E-008
  -80.6800000000000         3.217580034997975E-008
  -80.4900000000000         3.235402436474916E-008
  -80.3000000000000         3.351036947625312E-008
  -80.1100000000000         3.343327623682063E-008
  -79.9200000000000         3.506182400713215E-008
  -79.7300000000000         3.466173358729462E-008
  -79.5400000000000         3.470237781063205E-008
  -79.3500000000000         3.485088575904416E-008
  -79.1600000000000         3.488812688381804E-008
  -78.9700000000000         3.486568349181969E-008
  -78.7800000000000         3.487003805292235E-008
  -78.5900000000000         3.486640960691683E-008
  -78.4000000000000         3.481729386331066E-008
  -78.2100000000000         3.470972855240890E-008
  -78.0200000000000         3.456418248654806E-008
  -77.8300000000000         3.440794912799716E-008
  -77.6400000000000         3.428351047642562E-008
  -77.4500000000000         3.420727412576390E-008
  -77.2600000000000         3.424403943613152E-008
  -77.0700000000000         3.458900328209874E-008
  -76.8800000000000         3.525728929799010E-008
  -76.6900000000000         3.594759558642795E-008
  -76.5000000000000         3.655834640876981E-008
  -76.3100000000000         3.724339476460735E-008
  -76.1200000000000         3.760632989023551E-008
  -75.9300000000000         3.803176712017103E-008
  -75.7400000000000         3.855584303316413E-008
  -75.5500000000000         3.913726617960679E-008
  -75.3600000000000         3.963985560804130E-008
  -75.1700000000000         4.001634024825763E-008
  -74.9800000000000         4.030040317748244E-008
  -74.7900000000000         4.057205395142153E-008
  -74.6000000000000         4.090695795067414E-008
  -74.4100000000000         4.150901424382251E-008
  -74.2200000000000         4.367775702414432E-008
  -74.0300000000000         4.421451411946670E-008
  -73.8400000000000         4.496290839301491E-008
  -73.6500000000000         4.623413352883973E-008
  -73.4600000000000         4.742044186128517E-008
  -73.2700000000000         4.850209198535023E-008
  -73.0800000000000         4.940679049066345E-008
  -72.8900000000000         5.018799522628983E-008
  -72.7000000000000         5.095670703407139E-008
  -72.5100000000000         5.173827811740131E-008
  -72.3200000000000         5.246200105793696E-008
  -72.1300000000000         5.314774298258275E-008
  -71.9400000000000         5.630517799639684E-008
  -71.7500000000000         5.625755237444639E-008
  -71.5600000000000         5.856122002097535E-008
  -71.3700000000000         5.900903270023430E-008
  -71.1800000000000         6.203958673146852E-008
  -70.9900000000000         6.265985161759913E-008
  -70.8000000000000         6.391801993398737E-008
  -70.6100000000000         6.538781282321811E-008
  -70.4200000000000         6.661658496805399E-008
  -70.2300000000000         6.783439672667562E-008
  -70.0400000000000         6.899502966506108E-008
  -69.8500000000000         7.013495401855521E-008
  -69.6600000000000         7.126506301104171E-008
  -69.4700000000000         7.231523473989054E-008
  -69.2800000000000         7.327637746811223E-008
  -69.0900000000000         7.418292290386766E-008
  -68.9000000000000         7.511952571942698E-008
  -68.7100000000000         7.613699740844190E-008
  -68.5200000000000         7.729076695442224E-008
  -68.3300000000000         7.864130187496954E-008
  -68.1400000000000         8.018853536812295E-008
  -67.9500000000000         8.112684362876438E-008
  -67.7600000000000         8.267916594327951E-008
  -67.5700000000000         8.432672292916531E-008
  -67.3800000000000         8.576161193650994E-008
  -67.1900000000000         8.709945403887758E-008
  -67.0000000000000         8.830960992816138E-008
  -66.8100000000000         8.942056015481684E-008
  -66.6200000000000         9.045021640004936E-008
  -66.4300000000000         9.143352263878665E-008
  -66.2400000000000         9.240975288625078E-008
  -66.0500000000000         9.344379042899314E-008
  -65.8600000000000         9.466687420095343E-008
  -65.6700000000000         9.615840862350166E-008
  -65.4800000000000         9.788277539405582E-008
  -65.2900000000000         9.962244559599425E-008
  -65.1000000000000         1.013912984237069E-007
  -64.9100000000000         1.032085716095303E-007
  -64.7200000000000         1.050482598685182E-007
  -64.5300000000000         1.068702265048122E-007
  -64.3400000000000         1.086945594906153E-007
  -64.1500000000000         1.102859274148777E-007
  -63.9600000000000         1.116068048605243E-007
  -63.7700000000000         1.127087412106597E-007
  -63.5800000000000         1.136480295677293E-007
  -63.3900000000000         1.145000178360924E-007
  -63.2000000000000         1.153647431950905E-007
  -63.0100000000000         1.163779121550370E-007
  -62.8200000000000         1.176336696971997E-007
  -62.6300000000000         1.190213210521636E-007
  -62.4400000000000         1.203322602833318E-007
  -62.2500000000000         1.214361639216656E-007
  -62.0600000000000         1.224665863593283E-007
  -61.8700000000000         1.234227536938225E-007
  -61.6800000000000         1.243669973704610E-007
  -61.4900000000000         1.254541977155659E-007
  -61.3000000000000         1.268431366188411E-007
  -61.1100000000000         1.283866964500537E-007
  -60.9200000000000         1.298599040826385E-007
  -60.7300000000000         1.311811260654859E-007
  -60.5400000000000         1.324184181034387E-007
  -60.3500000000000         1.335796259168182E-007
  -60.1600000000000         1.346711731205450E-007
  -59.9700000000000         1.358215177944536E-007
  -59.7800000000000         1.371793995758871E-007
  -59.5900000000000         1.387693186996870E-007
  -59.4000000000000         1.405017339647385E-007
  -59.2100000000000         1.422101362850220E-007
  -59.0200000000000         1.439682913242775E-007
  -58.8300000000000         1.457036954273941E-007
  -58.6400000000000         1.472459537770099E-007
  -58.4500000000000         1.487482934112689E-007
  -58.2600000000000         1.502921835755564E-007
  -58.0700000000000         1.518469897748086E-007
  -57.8800000000000         1.534169174883610E-007
  -57.6900000000000         1.549772731630983E-007
  -57.5000000000000         1.566586155482561E-007
  -57.3100000000000         1.586088262830962E-007
  -57.1200000000000         1.607498884679811E-007
  -56.9300000000000         1.629261888847811E-007
  -56.7400000000000         1.653695721112159E-007
  -56.5500000000000         1.682850964237562E-007
  -56.3600000000000         1.712062267898769E-007
  -56.1700000000000         1.740847634631619E-007
  -55.9800000000000         1.771235505497282E-007
  -55.7900000000000         1.803087912622860E-007
  -55.6000000000000         1.833735329358900E-007
  -55.4100000000000         1.862742020077785E-007
  -55.2200000000000         1.891161293049544E-007
  -55.0300000000000         1.919540255496887E-007
  -54.8400000000000         1.945718803006636E-007
  -54.6500000000000         1.969743326530560E-007
  -54.4600000000000         1.994294474927698E-007
  -54.2700000000000         2.019621952669258E-007
  -54.0800000000000         2.045523492483515E-007
  -53.8900000000000         2.071715727214877E-007
  -53.7000000000000         2.098533588453178E-007
  -53.5100000000000         2.126223551489212E-007
  -53.3200000000000         2.154848990537375E-007
  -53.1300000000000         2.184819418470816E-007
  -52.9400000000000         2.217656523367246E-007
  -52.7500000000000         2.251159108160895E-007
  -52.5600000000000         2.284059163411722E-007
  -52.3700000000000         2.316466462781346E-007
  -52.1800000000000         2.347052344815304E-007
  -51.9900000000000         2.375372007837370E-007
  -51.8000000000000         2.402198111262476E-007
  -51.6100000000000         2.428482180203218E-007
  -51.4200000000000         2.455957685031744E-007
  -51.2300000000000         2.485822285681655E-007
  -51.0400000000000         2.516701191827679E-007
  -50.8500000000000         2.548483156476496E-007
  -50.6600000000000         2.580303063280329E-007
  -50.4700000000000         2.611273616081367E-007
  -50.2800000000000         2.640607162079603E-007
  -50.0900000000000         2.668506879132250E-007
  -49.9000000000000         2.694581603674629E-007
  -49.7100000000000         2.721478263402771E-007
  -49.5200000000000         2.748211994320955E-007
  -49.3300000000000         2.773270161159216E-007
  -49.1400000000000         2.799637705253931E-007
  -48.9500000000000         2.825137823503140E-007
  -48.7600000000000         2.848578523913345E-007
  -48.5700000000000         2.871859423279676E-007
  -48.3800000000000         2.894175365562791E-007
  -48.1900000000000         2.916613324812914E-007
  -48.0000000000000         2.939664133099495E-007
  -47.8100000000000         2.962883786391181E-007
  -47.6200000000000         2.986493318745546E-007
  -47.4300000000000         3.010861033688126E-007
  -47.2400000000000         3.035917335351075E-007
  -47.0500000000000         3.061832203989618E-007
  -46.8600000000000         3.088641764975518E-007
  -46.6700000000000         3.116349402951120E-007
  -46.4800000000000         3.144106234187718E-007
  -46.2900000000000         3.169563148591336E-007
  -46.1000000000000         3.191848927359839E-007
  -45.9100000000000         3.211625477200638E-007
  -45.7200000000000         3.229418359866647E-007
  -45.5300000000000         3.245480726914031E-007
  -45.3400000000000         3.261062656871659E-007
  -45.1500000000000         3.277471977493422E-007
  -44.9600000000000         3.295164525830352E-007
  -44.7700000000000         3.314342033946178E-007
  -44.5800000000000         3.335039868928541E-007
  -44.3900000000000         3.358363639494008E-007
  -44.2000000000000         3.383206234172377E-007
  -44.0100000000000         3.409613442858602E-007
  -43.8200000000000         3.438251454246062E-007
  -43.6300000000000         3.469963568608502E-007
  -43.4400000000000         3.503133641496794E-007
  -43.2500000000000         3.534324136699861E-007
  -43.0600000000000         3.565979674176005E-007
  -42.8700000000000         3.600357406179375E-007
  -42.6800000000000         3.635047263737530E-007
  -42.4900000000000         3.669616315882952E-007
  -42.3000000000000         3.702897325398011E-007
  -42.1100000000000         3.736684558720765E-007
  -41.9200000000000         3.770951583913563E-007
  -41.7300000000000         3.804104782390992E-007
  -41.5400000000000         3.839872613464295E-007
  -41.3500000000000         3.877489303144513E-007
  -41.1600000000000         3.917969924668071E-007
  -40.9700000000000         3.962104951150503E-007
  -40.7800000000000         4.004482217983279E-007
  -40.5900000000000         4.047384846591720E-007
  -40.4000000000000         4.090040380740960E-007
  -40.2100000000000         4.129773019965630E-007
  -40.0200000000000         4.168710300151091E-007
  -39.8300000000000         4.207373334239088E-007
  -39.6400000000000         4.244330552275106E-007
  -39.4500000000000         4.279447988233017E-007
  -39.2600000000000         4.313683342807643E-007
  -39.0700000000000         4.347244493724280E-007
  -38.8800000000000         4.381411547682094E-007
  -38.6900000000000         4.416049998096970E-007
  -38.5000000000000         4.454105536200098E-007
  -38.3100000000000         4.495339648809961E-007
  -38.1200000000000         4.537129149893433E-007
  -37.9300000000000         4.578527158590699E-007
  -37.7400000000000         4.618812284622531E-007
  -37.5500000000000         4.656307636340882E-007
  -37.3600000000000         4.693060986749337E-007
  -37.1700000000000         4.729664561846219E-007
  -36.9800000000000         4.765119075040487E-007
  -36.7900000000000         4.799621583030047E-007
  -36.6000000000000         4.833229724756826E-007
  -36.4100000000000         4.864184236459290E-007
  -36.2200000000000         4.893004592303049E-007
  -36.0300000000000         4.922587155318838E-007
  -35.8400000000000         4.952965345991500E-007
  -35.6500000000000         4.982008864574174E-007
  -35.4600000000000         5.011106473635549E-007
  -35.2700000000000         5.043269630602202E-007
  -35.0800000000000         5.076855780118824E-007
  -34.8900000000000         5.109443661072176E-007
  -34.7000000000000         5.144035089645132E-007
  -34.5100000000000         5.180445713044168E-007
  -34.3200000000000         5.217526293626108E-007
  -34.1300000000000         5.255000260559874E-007
  -33.9400000000000         5.293237412693386E-007
  -33.7500000000000         5.331927470586463E-007
  -33.5600000000000         5.369390433600804E-007
  -33.3700000000000         5.405540471406596E-007
  -33.1800000000000         5.440882756185340E-007
  -32.9900000000000         5.473717188146744E-007
  -32.8000000000000         5.506459313620641E-007
  -32.6100000000000         5.539669014744180E-007
  -32.4200000000000         5.573142318660337E-007
  -32.2300000000000         5.607853075727692E-007
  -32.0400000000000         5.643928143508842E-007
  -31.8500000000000         5.679474820229091E-007
  -31.6600000000000         5.716733465490676E-007
  -31.4700000000000         5.753124268272813E-007
  -31.2800000000000         5.787006440819343E-007
  -31.0900000000000         5.817988831211805E-007
  -30.9000000000000         5.846393695201107E-007
  -30.7100000000000         5.873638510487882E-007
  -30.5200000000000         5.899109700888523E-007
  -30.3300000000000         5.923060472293874E-007
  -30.1400000000000         5.946757207892575E-007
  -29.9500000000000         5.970788753808909E-007
  -29.7600000000000         5.996102054225194E-007
  -29.5700000000000         6.024003149649449E-007
  -29.3800000000000         6.051914633339072E-007
  -29.1900000000000         6.078906326885611E-007
  -29.0000000000000         6.106141723913221E-007
  -28.8100000000000         6.133335317400483E-007
  -28.6200000000000         6.159545156843837E-007
  -28.4300000000000         6.187133209417520E-007
  -28.2400000000000         6.213689658889596E-007
  -28.0500000000000         6.238015510613945E-007
  -27.8600000000000         6.262144024040133E-007
  -27.6700000000000         6.286298214422630E-007
  -27.4800000000000         6.309353747836339E-007
  -27.2900000000000         6.332341024921530E-007
  -27.1000000000000         6.354880461562178E-007
  -26.9100000000000         6.378284651986443E-007
  -26.7200000000000         6.402232025509739E-007
  -26.5300000000000         6.426713560493066E-007
  -26.3400000000000         6.451309840402802E-007
  -26.1500000000000         6.477567795120040E-007
  -25.9600000000000         6.504013150001250E-007
  -25.7700000000000         6.530351390783297E-007
  -25.5800000000000         6.556704128539042E-007
  -25.3900000000000         6.583296528556565E-007
  -25.2000000000000         6.609743516745513E-007
  -25.0100000000000         6.634696386273757E-007
  -24.8200000000000         6.659436660361481E-007
  -24.6300000000000         6.683415807715396E-007
  -24.4400000000000         6.706121261729875E-007
  -24.2500000000000         6.727913085416443E-007
  -24.0600000000000         6.749541629984645E-007
  -23.8700000000000         6.771398182363466E-007
  -23.6800000000000         6.795897490788061E-007
  -23.4900000000000         6.822112037928993E-007
  -23.3000000000000         6.846402318320181E-007
  -23.1100000000000         6.875872256574995E-007
  -22.9200000000000         6.905954265664954E-007
  -22.7300000000000         6.935416875145287E-007
  -22.5400000000000         6.964442104209408E-007
  -22.3500000000000         6.993537682654173E-007
  -22.1600000000000         7.022699852558991E-007
  -21.9700000000000         7.051392998149761E-007
  -21.7800000000000         7.079094669028201E-007
  -21.5900000000000         7.104294823525581E-007
  -21.4000000000000         7.125666262192594E-007
  -21.2100000000000         7.150183200526569E-007
  -21.0200000000000         7.170622036692214E-007
  -20.8300000000000         7.191427311851777E-007
  -20.6400000000000         7.213322464727744E-007
  -20.4500000000000         7.237017302927733E-007
  -20.2600000000000         7.261909187506163E-007
  -20.0700000000000         7.286525914603657E-007
  -19.8800000000000         7.310223392897448E-007
  -19.6900000000000         7.332419260475153E-007
  -19.5000000000000         7.353200552734329E-007
  -19.3100000000000         7.372996077834690E-007
  -19.1200000000000         7.392128843555560E-007
  -18.9300000000000         7.410864199382687E-007
  -18.7400000000000         7.429215087746875E-007
  -18.5500000000000         7.447751677342295E-007
  -18.3600000000000         7.466644718573355E-007
  -18.1700000000000         7.485958987830298E-007
  -17.9800000000000         7.505601893481015E-007
  -17.7900000000000         7.525872879135342E-007
  -17.6000000000000         7.545799649069383E-007
  -17.4100000000000         7.567611384943979E-007
  -17.2200000000000         7.588668040046036E-007
  -17.0300000000000         7.611248500255336E-007
  -16.8400000000000         7.630761611928333E-007
  -16.6500000000000         7.649967666722895E-007
  -16.4600000000000         7.666430149191964E-007
  -16.2700000000000         7.682807613068072E-007
  -16.0800000000000         7.697016802939186E-007
  -15.8900000000000         7.711187910423157E-007
  -15.7000000000000         7.723625574988375E-007
  -15.5100000000000         7.735646206317162E-007
  -15.3200000000000         7.745842498506492E-007
  -15.1300000000000         7.755117710284538E-007
  -14.9400000000000         7.763402548633282E-007
  -14.7500000000000         7.771286804394173E-007
  -14.5600000000000         7.777123797156880E-007
  -14.3700000000000         7.783212307612354E-007
  -14.1800000000000         7.788893010202618E-007
  -13.9900000000000         7.794750667232077E-007
  -13.8000000000000         7.800698104181514E-007
  -13.6100000000000         7.807025903419537E-007
  -13.4200000000000         7.813531319497314E-007
  -13.2300000000000         7.820013400664041E-007
  -13.0400000000000         7.826780545909526E-007
  -12.8500000000000         7.833954426922514E-007
  -12.6600000000000         7.839938866356578E-007
  -12.4700000000000         7.847533125054563E-007
  -12.2800000000000         7.855425927197618E-007
  -12.0900000000000         7.865073231394824E-007
  -11.9000000000000         7.874632997182881E-007
  -11.7100000000000         7.885741220498620E-007
  -11.5200000000000         7.896480693907641E-007
  -11.3300000000000         7.906951653923325E-007
  -11.1400000000000         7.915614344965756E-007
  -10.9500000000000         7.922535809413216E-007
  -10.7600000000000         7.926381384079229E-007
  -10.5700000000000         7.928172977952293E-007
  -10.3800000000000         7.928047846157629E-007
  -10.1900000000000         7.926611031227394E-007
  -10.0000000000000         7.923477981395547E-007
  -9.81000000000000         7.919365911727036E-007
  -9.62000000000000         7.913561121397064E-007
  -9.42999999999999         7.906334933800200E-007
  -9.23999999999999         7.899115277467156E-007
  -9.05000000000000         7.891888396776906E-007
  -8.86000000000000         7.883747917474258E-007
  -8.67000000000000         7.876675413667421E-007
  -8.48000000000000         7.868998774578800E-007
  -8.28999999999999         7.860236563089444E-007
  -8.09999999999999         7.851939281008069E-007
  -7.91000000000000         7.843041951381348E-007
  -7.72000000000000         7.833797992629921E-007
  -7.53000000000000         7.825759855702760E-007
  -7.34000000000000         7.818445151615796E-007
  -7.15000000000001         7.811127821144609E-007
  -6.95999999999999         7.802030588262345E-007
  -6.77000000000000         7.793315266752519E-007
  -6.58000000000000         7.785548692708806E-007
  -6.39000000000000         7.775642037348100E-007
  -6.20000000000000         7.764918779969551E-007
  -6.01000000000001         7.755720054081473E-007
  -5.81999999999999         7.747400281964734E-007
  -5.63000000000000         7.740143145316728E-007
  -5.44000000000000         7.732393291284958E-007
  -5.25000000000000         7.723093859155824E-007
  -5.06000000000000         7.712049015027140E-007
  -4.87000000000000         7.699748354300763E-007
  -4.67999999999999         7.686546245331605E-007
  -4.48999999999999         7.672966449777798E-007
  -4.30000000000000         7.656506984945286E-007
  -4.11000000000000         7.639962309577940E-007
  -3.92000000000000         7.621467776059437E-007
  -3.73000000000000         7.602969241506374E-007
  -3.53999999999999         7.584149050137920E-007
  -3.34999999999999         7.564410216712572E-007
  -3.16000000000000         7.545193688410891E-007
  -2.97000000000000         7.525945548105972E-007
  -2.78000000000000         7.505995623831589E-007
  -2.59000000000000         7.485743381920131E-007
  -2.40000000000001         7.461952129071102E-007
  -2.20999999999999         7.438254423748083E-007
  -2.02000000000000         7.415548287684561E-007
  -1.83000000000000         7.393271585107089E-007
  -1.64000000000000         7.368186557930569E-007
  -1.45000000000000         7.344443361708515E-007
  -1.26000000000001         7.319063950343973E-007
  -1.06999999999999         7.295812808149623E-007
 -0.879999999999995         7.270195166416172E-007
 -0.689999999999998         7.246683044594457E-007
 -0.500000000000000         7.222802169406567E-007
 -0.310000000000002         7.201179359677679E-007
 -0.120000000000005         7.179081340678046E-007
  7.000000000000739E-002    7.155305343314174E-007
  0.260000000000005         7.130515046333380E-007
  0.450000000000003         7.109166230614506E-007
  0.640000000000001         7.089381587077277E-007
  0.829999999999998         7.070610470001253E-007
   1.02000000000000         7.054262922523863E-007
   1.21000000000001         7.040917276374473E-007
   1.40000000000001         7.025915260838373E-007
   1.59000000000000         7.013971395694664E-007
   1.78000000000000         7.002804156168697E-007
   1.97000000000000         6.993013631727816E-007
   2.16000000000000         6.984227384365334E-007
   2.34999999999999         6.977007779646979E-007
   2.54000000000001         6.971962720007696E-007
   2.73000000000000         6.967528244607116E-007
   2.92000000000000         6.963709967449513E-007
   3.11000000000000         6.959719205416896E-007
   3.30000000000000         6.955900709695725E-007
   3.48999999999999         6.948495747269547E-007
   3.68000000000001         6.945295295680807E-007
   3.87000000000000         6.938964796204586E-007
   4.06000000000000         6.936019502034540E-007
   4.25000000000000         6.931846603395272E-007
   4.44000000000000         6.924234545647662E-007
   4.63000000000000         6.915754065480974E-007
   4.82000000000001         6.905979847666770E-007
   5.01000000000001         6.897614514841815E-007
   5.20000000000000         6.881336195165765E-007
   5.39000000000000         6.869464226263807E-007
   5.58000000000000         6.852340509918881E-007
   5.77000000000000         6.835981045061032E-007
   5.96000000000001         6.825011470199984E-007
   6.15000000000001         6.805286747576228E-007
   6.34000000000000         6.789272806488899E-007
   6.53000000000000         6.771144897015565E-007