  -105.000000000000         0.000000000000000E+000
  -104.810000000000         3.223993589780517E-011
  -104.620000000000         3.730430274845828E-011
  -104.430000000000         4.337874234637353E-011
  -104.240000000000         5.328248580376948E-011
  -104.050000000000         7.215005358762306E-011
  -103.860000000000         7.743929399962220E-011
  -103.670000000000         7.052017873312010E-011
  -103.480000000000         7.341957857642690E-011
  -103.290000000000         1.606716702654556E-010
  -103.100000000000         1.659216330282785E-010
  -102.910000000000         1.588628673770938E-010
  -102.720000000000         4.275751718962623E-011
  -102.530000000000         6.294523394017264E-011
  -102.340000000000         5.826257269281927E-011
  -102.150000000000         5.448609074958887E-011
  -101.960000000000         8.266500628182863E-011
  -101.770000000000         2.572970173675883E-010
  -101.580000000000         3.040817137758919E-010
  -101.390000000000         3.628644809024650E-010
  -101.200000000000         4.297658390176010E-010
  -101.010000000000         6.796687191042191E-010
  -100.820000000000         9.591466350697335E-010
  -100.630000000000         1.340691031799350E-009
  -100.440000000000         1.869871825212982E-009
  -100.250000000000         2.577180319818856E-009
  -100.060000000000         3.321355790834269E-009
  -99.8700000000000         4.061483034535413E-009
  -99.6800000000000         4.852262795377206E-009
  -99.4900000000000         5.696244375817989E-009
  -99.3000000000000         6.581413703172737E-009
  -99.1100000000000         7.515724249472201E-009
  -98.9200000000000         8.504734664035820E-009
  -98.7300000000000         9.471309654203040E-009
  -98.5400000000000         1.021768168388517E-008
  -98.3500000000000         1.087248997993861E-008
  -98.1600000000000         1.153574772907734E-008
  -97.9700000000000         1.222853346302403E-008
  -97.7800000000000         1.291946423709288E-008
  -97.5900000000000         1.363192400757024E-008
  -97.4000000000000         1.438480569241865E-008
  -97.2100000000000         1.509160026163911E-008
  -97.0200000000000         1.563851173984550E-008
  -96.8300000000000         1.602007286882142E-008
  -96.6400000000000         1.617503354347514E-008
  -96.4500000000000         1.662788556192495E-008
  -96.2600000000000         1.682514555467936E-008
  -96.0700000000000         1.734396783100248E-008
  -95.8800000000000         1.753622537397950E-008
  -95.6900000000000         1.800315842500887E-008
  -95.5000000000000         1.802554065184094E-008
  -95.3100000000000         1.802773524339903E-008
  -95.1200000000000         1.794384210363107E-008
  -94.9300000000000         1.774417758473092E-008
  -94.7400000000000         1.763152627211156E-008
  -94.5500000000000         1.751589974610900E-008
  -94.3600000000000         1.741573688207680E-008
  -94.1700000000000         1.735702644716604E-008
  -93.9800000000000         1.731790681720633E-008
  -93.7900000000000         1.723662172094307E-008
  -93.6000000000000         1.708244103925526E-008
  -93.4100000000000         1.657436139671285E-008
  -93.2200000000000         1.650195658428715E-008
  -93.0300000000000         1.596112288608446E-008
  -92.8400000000000         1.596978124984089E-008
  -92.6500000000000         1.548369010647239E-008
  -92.4600000000000         1.542678720651385E-008
  -92.2700000000000         1.451086340005291E-008
  -92.0800000000000         1.386735060251015E-008
  -91.8900000000000         1.313714890296270E-008
  -91.7000000000000         1.225972854346719E-008
  -91.5100000000000         1.127027949256292E-008
  -91.3200000000000         1.040901738724875E-008
  -91.1300000000000         9.828484749032419E-009
  -90.9400000000000         9.444351550062479E-009
  -90.7500000000000         9.533973798670760E-009
  -90.5600000000000         9.434402073368073E-009
  -90.3700000000000         9.360325432988918E-009
  -90.1800000000000         9.243675876631905E-009
  -89.9900000000000         8.975078076721731E-009
  -89.8000000000000         8.275156994541356E-009
  -89.6100000000000         7.878657032878057E-009
  -89.4200000000000         7.100109368370298E-009
  -89.2300000000000         6.772789496516730E-009
  -89.0400000000000         6.352089107141983E-009
  -88.8500000000000         5.968276331784814E-009
  -88.6600000000000         5.627458502792440E-009
  -88.4700000000000         5.275775223542590E-009
  -88.2800000000000         4.879835399408210E-009
  -88.0900000000000         4.447300509959461E-009
  -87.9000000000000         3.982532960547558E-009
  -87.7100000000000         3.579826787417722E-009
  -87.5200000000000         3.358539895226319E-009
  -87.3300000000000         4.210310151572550E-009
  -87.1400000000000         5.213364198824982E-009
  -86.9500000000000         6.361070155829664E-009
  -86.7600000000000         7.560982570847871E-009
  -86.5700000000000         8.818086415236918E-009
  -86.3800000000000         1.026846828767565E-008
  -86.1900000000000         1.196620641850903E-008
  -86.0000000000000         1.388721511187874E-008
  -85.8100000000000         1.602758554186950E-008
  -85.6200000000000         1.806168733858918E-008
  -85.4300000000000         1.986337914185570E-008
  -85.2400000000000         2.139834045007989E-008
  -85.0500000000000         2.259755539149967E-008
  -84.8600000000000         2.311949867675445E-008
  -84.6700000000000         2.450939522899926E-008
  -84.4800000000000         2.490627747950254E-008
  -84.2900000000000         2.543514480723743E-008
  -84.1000000000000         2.677580265965205E-008
  -83.9100000000000         2.716547690101742E-008
  -83.7200000000000         2.751300635781793E-008
  -83.5300000000000         2.781694489955382E-008
  -83.3400000000000         2.894548300381876E-008
  -83.1500000000000         2.887442652906323E-008
  -82.9600000000000         2.998889784088872E-008
  -82.7700000000000         2.988503390326674E-008
  -82.5800000000000         3.123077788957333E-008
  -82.3900000000000         3.108891439681302E-008
  -82.2000000000000         3.132824996426039E-008
  -82.0100000000000         3.171519587036370E-008
  -81.8200000000000         3.196439792217015E-008
  -81.6300000000000         3.215263156307654E-008
  -81.4400000000000         3.230139230679455E-008
  -81.2500000000000         3.239617783537226E-008
  -81.0600000000000         3.247334865230368E-008
  -80.8700000000000         3.255736161096246E-008
  -80.6800000000000         3.268102497445700E-008
  -80.4900000000000         3.296010489054969E-008
  -80.3000000000000         3.429360437357328E-008
  -80.1100000000000         3.477692673031211E-008
  -79.9200000000000         3.656016428611081E-008
  -79.7300000000000         3.664930560172583E-008
  -79.5400000000000         3.700247244446581E-008
  -79.3500000000000         3.725611445556360E-008
  -79.1600000000000         3.742098365356653E-008
  -78.9700000000000         3.751025505238829E-008
  -78.7800000000000         3.754958109562402E-008
  -78.5900000000000         3.750708920978334E-008
  -78.4000000000000         3.736611394719142E-008
  -78.2100000000000         3.717793205628525E-008
  -78.0200000000000         3.699192673163348E-008
  -77.8300000000000         3.683926620193485E-008
  -77.6400000000000         3.675392428160233E-008
  -77.4500000000000         3.675588472792002E-008
  -77.2600000000000         3.691598162825162E-008
  -77.0700000000000         3.748347037597973E-008
  -76.8800000000000         3.833806184557688E-008
  -76.6900000000000         3.906769180666281E-008
  -76.5000000000000         3.979791478054594E-008
  -76.3100000000000         4.059418130060137E-008
  -76.1200000000000         4.096929237095667E-008
  -75.9300000000000         4.140907703173916E-008
  -75.7400000000000         4.184175604687142E-008
  -75.5500000000000         4.218439601764773E-008
  -75.3600000000000         4.239127534293266E-008
  -75.1700000000000         4.250661324303948E-008
  -74.9800000000000         4.262061630242692E-008
  -74.7900000000000         4.279417495975971E-008
  -74.6000000000000         4.309674616601832E-008
  -74.4100000000000         4.376087131600213E-008
  -74.2200000000000         4.608437741367659E-008
  -74.0300000000000         4.655630783362692E-008
  -73.8400000000000         4.729741777183426E-008
  -73.6500000000000         4.850418476032952E-008
  -73.4600000000000         4.969971531152108E-008
  -73.2700000000000         5.082464224993127E-008
  -73.0800000000000         5.181286687442365E-008
  -72.8900000000000         5.272271105064611E-008
  -72.7000000000000         5.368033082796717E-008
  -72.5100000000000         5.465535696328952E-008
  -72.3200000000000         5.558542607967309E-008
  -72.1300000000000         5.652912477781853E-008
  -71.9400000000000         5.969659640193291E-008
  -71.7500000000000         6.007462625905533E-008
  -71.5600000000000         6.272911797150791E-008
  -71.3700000000000         6.353674330758191E-008
  -71.1800000000000         6.681615043609270E-008
  -70.9900000000000         6.752146187036615E-008
  -70.8000000000000         6.894705152943918E-008
  -70.6100000000000         7.033321175019570E-008
  -70.4200000000000         7.150834917964549E-008
  -70.2300000000000         7.263611110420726E-008
  -70.0400000000000         7.370836414919852E-008
  -69.8500000000000         7.478859887842786E-008
  -69.6600000000000         7.593140799369271E-008
  -69.4700000000000         7.707537428190355E-008
  -69.2800000000000         7.818071304687799E-008
  -69.0900000000000         7.929393263082713E-008
  -68.9000000000000         8.045889717659564E-008
  -68.7100000000000         8.168740644881788E-008
  -68.5200000000000         8.297838779147466E-008
  -68.3300000000000         8.438287613066168E-008
  -68.1400000000000         8.589340190187260E-008
  -67.9500000000000         8.687303917559363E-008
  -67.7600000000000         8.820803351998503E-008
  -67.5700000000000         8.969553723451539E-008
  -67.3800000000000         9.097939469142243E-008
  -67.1900000000000         9.215074151873047E-008
  -67.0000000000000         9.321152594850369E-008
  -66.8100000000000         9.421364111455831E-008
  -66.6200000000000         9.521694530422134E-008
  -66.4300000000000         9.631419120760705E-008
  -66.2400000000000         9.754934705359500E-008
  -66.0500000000000         9.898162531390314E-008
  -65.8600000000000         1.006623619945032E-007
  -65.6700000000000         1.025534871902924E-007
  -65.4800000000000         1.044730253866194E-007
  -65.2900000000000         1.063200125409557E-007
  -65.1000000000000         1.081216696125261E-007
  -64.9100000000000         1.099047589496939E-007
  -64.7200000000000         1.116749485227549E-007
  -64.5300000000000         1.134280535402578E-007
  -64.3400000000000         1.152072951273450E-007
  -64.1500000000000         1.168001566062615E-007
  -63.9600000000000         1.181671551545447E-007
  -63.7700000000000         1.193712411665345E-007
  -63.5800000000000         1.204760698346800E-007
  -63.3900000000000         1.215682134316428E-007
  -63.2000000000000         1.227522800875571E-007
  -63.0100000000000         1.241391083720888E-007
  -62.8200000000000         1.257262771446567E-007
  -62.6300000000000         1.273865919428319E-007
  -62.4400000000000         1.288746303188656E-007
  -62.2500000000000         1.301688871793022E-007
  -62.0600000000000         1.313715097670550E-007
  -61.8700000000000         1.324827842198103E-007
  -61.6800000000000         1.335602521916879E-007
  -61.4900000000000         1.347474447917701E-007
  -61.3000000000000         1.361874090890559E-007
  -61.1100000000000         1.377475809005554E-007
  -60.9200000000000         1.392394196281473E-007
  -60.7300000000000         1.406280052497263E-007
  -60.5400000000000         1.420355976091637E-007
  -60.3500000000000         1.434704226312081E-007
  -60.1600000000000         1.448961415367222E-007
  -59.9700000000000         1.463724793202819E-007
  -59.7800000000000         1.479995665974465E-007
  -59.5900000000000         1.497538005004221E-007
  -59.4000000000000         1.515633357610979E-007
  -59.2100000000000         1.533039269443386E-007
  -59.0200000000000         1.550787867679797E-007
  -58.8300000000000         1.568789102711243E-007
  -58.6400000000000         1.585487605841501E-007
  -58.4500000000000         1.602410077738656E-007
  -58.2600000000000         1.620135168926909E-007
  -58.0700000000000         1.638468386201994E-007
  -57.8800000000000         1.657368408434657E-007
  -57.6900000000000         1.676677908356762E-007
  -57.5000000000000         1.698107330880766E-007
  -57.3100000000000         1.722447782439929E-007
  -57.1200000000000         1.747388939130609E-007
  -56.9300000000000         1.772327312834795E-007
  -56.7400000000000         1.799692111844798E-007
  -56.5500000000000         1.831322233065526E-007
  -56.3600000000000         1.861863182501748E-007
  -56.1700000000000         1.892111035637236E-007
  -55.9800000000000         1.923981927471699E-007
  -55.7900000000000         1.957667820688268E-007
  -55.6000000000000         1.990296569208870E-007
  -55.4100000000000         2.021818698872209E-007
  -55.2200000000000         2.053285204323026E-007
  -55.0300000000000         2.085333220275527E-007
  -54.8400000000000         2.114326809841192E-007
  -54.6500000000000         2.141687863132933E-007
  -54.4600000000000         2.169047369252781E-007
  -54.2700000000000         2.196712286249854E-007
  -54.0800000000000         2.224476375631281E-007
  -53.8900000000000         2.252269945735252E-007
  -53.7000000000000         2.280667438637461E-007
  -53.5100000000000         2.310098192665650E-007
  -53.3200000000000         2.340643731743295E-007
  -53.1300000000000         2.372607748584526E-007
  -52.9400000000000         2.407660436362562E-007
  -52.7500000000000         2.443109725322087E-007
  -52.5600000000000         2.478660557138850E-007
  -52.3700000000000         2.514535442474408E-007
  -52.1800000000000         2.549274897526974E-007
  -51.9900000000000         2.582626633541067E-007
  -51.8000000000000         2.615097560412821E-007
  -51.6100000000000         2.646849742554849E-007
  -51.4200000000000         2.680127549085219E-007
  -51.2300000000000         2.714571124240948E-007
  -51.0400000000000         2.749625059726345E-007
  -50.8500000000000         2.784929954134736E-007
  -50.6600000000000         2.820077041271531E-007
  -50.4700000000000         2.854321737756891E-007
  -50.2800000000000         2.887199282844102E-007
  -50.0900000000000         2.918986176135186E-007
  -49.9000000000000         2.949259172572091E-007
  -49.7100000000000         2.980950522619675E-007
  -49.5200000000000         3.012484049140104E-007
  -49.3300000000000         3.042813676887038E-007
  -49.1400000000000         3.074847659969891E-007
  -48.9500000000000         3.105759542697484E-007
  -48.7600000000000         3.134757046114258E-007
  -48.5700000000000         3.163186047397612E-007
  -48.3800000000000         3.189807710415670E-007
  -48.1900000000000         3.215780181310971E-007
  -48.0000000000000         3.241424277619107E-007
  -47.8100000000000         3.266339298891927E-007
  -47.6200000000000         3.291269338323743E-007
  -47.4300000000000         3.316798781371012E-007
  -47.2400000000000         3.343474449447135E-007
  -47.0500000000000         3.371485670776420E-007
  -46.8600000000000         3.400995187096200E-007
  -46.6700000000000         3.431752674747625E-007
  -46.4800000000000         3.462618584689663E-007
  -46.2900000000000         3.491060657332203E-007
  -46.1000000000000         3.516279933003944E-007
  -45.9100000000000         3.538881493217770E-007
  -45.7200000000000         3.559578990460141E-007
  -45.5300000000000         3.578791397957919E-007
  -45.3400000000000         3.597759910958246E-007
  -45.1500000000000         3.617959074295156E-007
  -44.9600000000000         3.639823030673178E-007
  -44.7700000000000         3.663597067392708E-007
  -44.5800000000000         3.689363959352809E-007
  -44.3900000000000         3.718162618364880E-007
  -44.2000000000000         3.748889842602903E-007
  -44.0100000000000         3.781617324625918E-007
  -43.8200000000000         3.817043039476133E-007
  -43.6300000000000         3.856118441502712E-007
  -43.4400000000000         3.896667238016557E-007
  -43.2500000000000         3.935083636397092E-007
  -43.0600000000000         3.974285540827144E-007
  -42.8700000000000         4.015465255915476E-007
  -42.6800000000000         4.056373411368306E-007
  -42.4900000000000         4.096499375454397E-007
  -42.3000000000000         4.134847350670075E-007
  -42.1100000000000         4.173875344005834E-007
  -41.9200000000000         4.213240320069482E-007
  -41.7300000000000         4.251962550267013E-007
  -41.5400000000000         4.293716499711116E-007
  -41.3500000000000         4.337230993218657E-007
  -41.1600000000000         4.383956854305073E-007
  -40.9700000000000         4.433901003675344E-007
  -40.7800000000000         4.481760173502272E-007
  -40.5900000000000         4.530226476969063E-007
  -40.4000000000000         4.577846847254822E-007
  -40.2100000000000         4.622387684793945E-007
  -40.0200000000000         4.665830948461375E-007
  -39.8300000000000         4.708722030511550E-007
  -39.6400000000000         4.749847745014907E-007
  -39.4500000000000         4.789066649925072E-007
  -39.2600000000000         4.827929596656471E-007
  -39.0700000000000         4.866574455318765E-007
  -38.8800000000000         4.906638741512665E-007
  -38.6900000000000         4.947823763267719E-007
  -38.5000000000000         4.993212092468963E-007
  -38.3100000000000         5.042492433363892E-007
  -38.1200000000000         5.092791424111949E-007
  -37.9300000000000         5.143321155386057E-007
  -37.7400000000000         5.192695339509528E-007
  -37.5500000000000         5.239286889035746E-007
  -37.3600000000000         5.284595929135067E-007
  -37.1700000000000         5.328991261915253E-007
  -36.9800000000000         5.371515960058667E-007
  -36.7900000000000         5.412467520410202E-007
  -36.6000000000000         5.452396479200681E-007
  -36.4100000000000         5.490187246775122E-007
  -36.2200000000000         5.526137314042001E-007
  -36.0300000000000         5.563295159079421E-007
  -35.8400000000000         5.602116254710444E-007
  -35.6500000000000         5.640271720086618E-007
  -35.4600000000000         5.678606031310254E-007
  -35.2700000000000         5.720129851132813E-007
  -35.0800000000000         5.763683325482237E-007
  -34.8900000000000         5.806204301975736E-007
  -34.7000000000000         5.850126892746214E-007
  -34.5100000000000         5.895575407366792E-007
  -34.3200000000000         5.941006946032658E-007
  -34.1300000000000         5.986304097829129E-007
  -33.9400000000000         6.031930884767411E-007
  -33.7500000000000         6.078057709478211E-007
  -33.5600000000000         6.123302189458891E-007
  -33.3700000000000         6.167407668146440E-007
  -33.1800000000000         6.211067886093146E-007
  -32.9900000000000         6.252941723418014E-007
  -32.8000000000000         6.294759250643033E-007
  -32.6100000000000         6.337921119263921E-007
  -32.4200000000000         6.381904523806695E-007
  -32.2300000000000         6.427503611903591E-007
  -32.0400000000000         6.474412116348942E-007
  -31.8500000000000         6.520561386067190E-007
  -31.6600000000000         6.567146526825011E-007
  -31.4700000000000         6.612713464911633E-007
  -31.2800000000000         6.655020633504966E-007
  -31.0900000000000         6.694506090651695E-007
  -30.9000000000000         6.731507781559363E-007
  -30.7100000000000         6.767569181390252E-007
  -30.5200000000000         6.802435454592986E-007
  -30.3300000000000         6.835856226662901E-007
  -30.1400000000000         6.869184094758871E-007
  -29.9500000000000         6.903200249978182E-007
  -29.7600000000000         6.938856030895455E-007
  -29.5700000000000         6.977506860812347E-007
  -29.3800000000000         7.017143385442382E-007
  -29.1900000000000         7.055700268063151E-007
  -29.0000000000000         7.094379877597527E-007
  -28.8100000000000         7.132649247668001E-007
  -28.6200000000000         7.169671455693637E-007
  -28.4300000000000         7.207109786581721E-007
  -28.2400000000000         7.244372002351471E-007
  -28.0500000000000         7.278872776916514E-007
  -27.8600000000000         7.313148189273829E-007
  -27.6700000000000         7.347401950177504E-007
  -27.4800000000000         7.380881440879480E-007
  -27.2900000000000         7.414121703385429E-007
  -27.1000000000000         7.447738422133947E-007
  -26.9100000000000         7.482260099905655E-007
  -26.7200000000000         7.518072735839900E-007
  -26.5300000000000         7.554209644767150E-007
  -26.3400000000000         7.590372769856540E-007
  -26.1500000000000         7.627165163406109E-007
  -25.9600000000000         7.664101813592464E-007
  -25.7700000000000         7.700223031837776E-007
  -25.5800000000000         7.736169894920441E-007
  -25.3900000000000         7.772272278697871E-007
  -25.2000000000000         7.808359335109076E-007
  -25.0100000000000         7.843247816951691E-007
  -24.8200000000000         7.877538507972146E-007
  -24.6300000000000         7.911684751735087E-007
  -24.4400000000000         7.945102190207646E-007
  -24.2500000000000         7.978236080383871E-007
  -24.0600000000000         8.011963291357012E-007
  -23.8700000000000         8.046649654201693E-007
  -23.6800000000000         8.083783053252594E-007
  -23.4900000000000         8.123121704253493E-007
  -23.3000000000000         8.160986955749341E-007
  -23.1100000000000         8.202178489889165E-007
  -22.9200000000000         8.245500779253645E-007
  -22.7300000000000         8.287981726268265E-007
  -22.5400000000000         8.330261539658544E-007
  -22.3500000000000         8.372749541078443E-007
  -22.1600000000000         8.415340426327565E-007
  -21.9700000000000         8.457512912109717E-007
  -21.7800000000000         8.498783581242069E-007
  -21.5900000000000         8.538083103778093E-007
  -21.4000000000000         8.574053702367324E-007
  -21.2100000000000         8.611951999776294E-007
  -21.0200000000000         8.648292618749082E-007
  -20.8300000000000         8.683501018891887E-007
  -20.6400000000000         8.719851428655436E-007
  -20.4500000000000         8.757595522616408E-007
  -20.2600000000000         8.796025129685358E-007
  -20.0700000000000         8.833914678085055E-007
  -19.8800000000000         8.870678436351738E-007
  -19.6900000000000         8.906110723090988E-007
  -19.5000000000000         8.940578338620746E-007
  -19.3100000000000         8.974698052702511E-007
  -19.1200000000000         9.008825098414606E-007
  -18.9300000000000         9.043075456952469E-007
  -18.7400000000000         9.077305993606114E-007
  -18.5500000000000         9.111856711906127E-007
  -18.3600000000000         9.146891754525292E-007
  -18.1700000000000         9.182444854747529E-007
  -17.9800000000000         9.218477779218803E-007
  -17.7900000000000         9.255251276531514E-007
  -17.6000000000000         9.291820723186925E-007
  -17.4100000000000         9.329908421941025E-007
  -17.2200000000000         9.367341018510460E-007
  -17.0300000000000         9.405666219425734E-007
  -16.8400000000000         9.441270028171092E-007
  -16.6500000000000         9.476218379847193E-007
  -16.4600000000000         9.508882701111340E-007
  -16.2700000000000         9.541353050346893E-007
  -16.0800000000000         9.571770712613616E-007
  -15.8900000000000         9.601617191057030E-007
  -15.7000000000000         9.629483433622735E-007
  -15.5100000000000         9.656400717985870E-007
  -15.3200000000000         9.681405380115580E-007
  -15.1300000000000         9.705536342055872E-007
  -14.9400000000000         9.729052760142485E-007
  -14.7500000000000         9.752441657884587E-007
  -14.5600000000000         9.773656605509811E-007
  -14.3700000000000         9.795747564266888E-007
  -14.1800000000000         9.817738048845185E-007
  -13.9900000000000         9.840039010469814E-007
  -13.8000000000000         9.863355357262346E-007
  -13.6100000000000         9.887681094023267E-007
  -13.4200000000000         9.912516866754048E-007
  -13.2300000000000         9.937518410785058E-007
  -13.0400000000000         9.962658305559594E-007
  -12.8500000000000         9.987846319491812E-007
  -12.6600000000000         1.001108371086347E-006
  -12.4700000000000         1.003613347414574E-006
  -12.2800000000000         1.006094870386896E-006
  -12.0900000000000         1.008683906768004E-006
  -11.9000000000000         1.011212556886974E-006
  -11.7100000000000         1.013869819742792E-006
  -11.5200000000000         1.016429983061209E-006
  -11.3300000000000         1.018985740545129E-006
  -11.1400000000000         1.021428503169202E-006
  -10.9500000000000         1.023777678191144E-006
  -10.7600000000000         1.025885611766696E-006
  -10.5700000000000         1.027885215465573E-006
  -10.3800000000000         1.029669391913383E-006
  -10.1900000000000         1.031261353583108E-006
  -10.0000000000000         1.032636076131669E-006
  -9.81000000000000         1.033847460041657E-006
  -9.62000000000000         1.034791414377321E-006
  -9.42999999999999         1.035659647571191E-006
  -9.23999999999999         1.036449067850755E-006
  -9.05000000000000         1.037184770558006E-006
  -8.86000000000000         1.037878784496946E-006
  -8.67000000000000         1.038613602747764E-006
  -8.48000000000000         1.039300727388630E-006
  -8.28999999999999         1.040047455057574E-006
  -8.09999999999999         1.040842404021780E-006
  -7.91000000000000         1.041688670452018E-006
  -7.72000000000000         1.042553358525208E-006
  -7.53000000000000         1.043564094654653E-006
  -7.34000000000000         1.044595689308149E-006
  -7.15000000000001         1.045550738871064E-006
  -6.95999999999999         1.046440925169510E-006
  -6.77000000000000         1.047436350841839E-006
  -6.58000000000000         1.048371142257022E-006
  -6.39000000000000         1.049111846528294E-006
  -6.20000000000000         1.049755745230319E-006
  -6.01000000000001         1.050467847739136E-006
  -5.81999999999999         1.051217457391226E-006
  -5.63000000000000         1.052010184594507E-006
  -5.44000000000000         1.052758197983551E-006
  -5.25000000000000         1.053408496926971E-006
  -5.06000000000000         1.053968804063596E-006
  -4.87000000000000         1.054465486822234E-006
  -4.67999999999999         1.054901642344878E-006
  -4.48999999999999         1.055236865413107E-006
  -4.30000000000000         1.055376313091850E-006
  -4.11000000000000         1.055468817400845E-006
  -3.92000000000000         1.055443775355197E-006
  -3.73000000000000         1.055392442874824E-006
  -3.53999999999999         1.055282982399666E-006
  -3.34999999999999         1.055098222876579E-006
  -3.16000000000000         1.054930147721599E-006
  -2.97000000000000         1.054735259429660E-006
  -2.78000000000000         1.054476911067447E-006
  -2.59000000000000         1.054155793520767E-006
  -2.40000000000001         1.053639398111140E-006
  -2.20999999999999         1.053196158716044E-006
  -2.02000000000000         1.052843753500439E-006
  -1.83000000000000         1.052480030174772E-006
  -1.64000000000000         1.051946141422944E-006
  -1.45000000000000         1.051482269864879E-006
  -1.26000000000001         1.050907658334067E-006
  -1.06999999999999         1.050409935256662E-006
 -0.879999999999995         1.049731208498104E-006
 -0.689999999999998         1.049178109202206E-006
 -0.500000000000000         1.048605767941203E-006
 -0.310000000000002         1.048169657750917E-006
 -0.120000000000005         1.047673699543157E-006
  7.000000000000739E-002    1.047096431144389E-006
  0.260000000000005         1.046560794071989E-006
  0.450000000000003         1.046330283985777E-006
  0.640000000000001         1.046233521687112E-006
  0.829999999999998         1.046243369180549E-006
   1.02000000000000         1.046434325915657E-006
   1.21000000000001         1.046774319349879E-006
   1.40000000000001         1.047014518564964E-006
   1.59000000000000         1.047470900777137E-006
   1.78000000000000         1.047978595476836E-006
   1.97000000000000         1.048599009938334E-006
   2.16000000000000         1.049321672149160E-006
   2.34999999999999         1.050205271747912E-006
   2.54000000000001         1.051256977757341E-006
   2.73000000000000         1.052364242537521E-006
   2.92000000000000         1.053533909341499E-006
   3.11000000000000         1.054714309795507E-006
   3.30000000000000         1.055901277571962E-006
   3.48999999999999         1.056912625841894E-006
   3.68000000000001         1.058235906401218E-006
   3.87000000000000         1.059343163737833E-006
   4.06000000000000         1.060668397478989E-006
   4.25000000000000         1.061765168136004E-006
   4.44000000000000         1.062573741745840E-006
   4.63000000000000         1.063281979290726E-006
   4.82000000000001         1.063867761581197E-006
   5.01000000000001         1.064467616076971E-006
   5.20000000000000         1.064446868207816E-006
   5.39000000000000         1.064792267766824E-006
   5.58000000000000         1.064691186849783E-006
   5.77000000000000         1.064800450522251E-006
   5.96000000000001         1.065253408708599E-006
   6.15000000000001         1.065072033964084E-006
   6.34000000000000         1.065262301152823E-006
   6.53000000000000         1.065200660100758E-006