  -105.000000000000         0.000000000000000E+000
  -104.810000000000         4.183934364189558E-011
  -104.620000000000         5.844819111995893E-011
  -104.430000000000         7.055686843772545E-011
  -104.240000000000         7.754251962978180E-011
  -104.050000000000         8.827491121503337E-011
  -103.860000000000         9.534584239610381E-011
  -103.670000000000         1.038488469997211E-010
  -103.480000000000         1.387882337930687E-010
  -103.290000000000         2.610988259258781E-010
  -103.100000000000         2.815406656842617E-010
  -102.910000000000         2.602621881162849E-010
  -102.720000000000         1.115555755767216E-010
  -102.530000000000         8.380050998434072E-011
  -102.340000000000         3.938552954931542E-011
  -102.150000000000         1.491768456725354E-011
  -101.960000000000         4.380557913444606E-011
  -101.770000000000         2.284343549696483E-010
  -101.580000000000         2.730118758876258E-010
  -101.390000000000         3.171843346642211E-010
  -101.200000000000         3.642002468948744E-010
  -101.010000000000         6.009521859516385E-010
  -100.820000000000         8.916631219458630E-010
  -100.630000000000         1.310920836206475E-009
  -100.440000000000         1.923308832495429E-009
  -100.250000000000         2.681395813003889E-009
  -100.060000000000         3.495956668854490E-009
  -99.8700000000000         4.287105086249323E-009
  -99.6800000000000         5.087826178413622E-009
  -99.4900000000000         5.964648299513430E-009
  -99.3000000000000         6.899582423033585E-009
  -99.1100000000000         7.892103005554267E-009
  -98.9200000000000         8.917465360408352E-009
  -98.7300000000000         9.883884350004657E-009
  -98.5400000000000         1.062873939324952E-008
  -98.3500000000000         1.123690744082954E-008
  -98.1600000000000         1.184360898543410E-008
  -97.9700000000000         1.249005432564432E-008
  -97.7800000000000         1.316929026380126E-008
  -97.5900000000000         1.389666699814083E-008
  -97.4000000000000         1.464413363130427E-008
  -97.2100000000000         1.536121763529148E-008
  -97.0200000000000         1.593546118489205E-008
  -96.8300000000000         1.631991156364538E-008
  -96.6400000000000         1.640754571767923E-008
  -96.4500000000000         1.687145348397909E-008
  -96.2600000000000         1.701502422140621E-008
  -96.0700000000000         1.754445701903278E-008
  -95.8800000000000         1.771601729573853E-008
  -95.6900000000000         1.819325374761405E-008
  -95.5000000000000         1.819714954049664E-008
  -95.3100000000000         1.816579231692862E-008
  -95.1200000000000         1.801325084375536E-008
  -94.9300000000000         1.777404704851060E-008
  -94.7400000000000         1.769698990805544E-008
  -94.5500000000000         1.764393442446929E-008
  -94.3600000000000         1.764208057297579E-008
  -94.1700000000000         1.770747189268203E-008
  -93.9800000000000         1.779152807293320E-008
  -93.7900000000000         1.781443652557684E-008
  -93.6000000000000         1.776965366652813E-008
  -93.4100000000000         1.737047200771911E-008
  -93.2200000000000         1.736576325799227E-008
  -93.0300000000000         1.685732448305195E-008
  -92.8400000000000         1.692989730589757E-008
  -92.6500000000000         1.646067510392352E-008
  -92.4600000000000         1.638094313127383E-008
  -92.2700000000000         1.541792856061311E-008
  -92.0800000000000         1.472957634530059E-008
  -91.8900000000000         1.392353919262632E-008
  -91.7000000000000         1.294649891245651E-008
  -91.5100000000000         1.183554803592728E-008
  -91.3200000000000         1.083273459250851E-008
  -91.1300000000000         1.011592824042279E-008
  -90.9400000000000         9.626387986605531E-009
  -90.7500000000000         9.584845807295013E-009
  -90.5600000000000         9.417171649428835E-009
  -90.3700000000000         9.325308386257441E-009
  -90.1800000000000         9.188086534109830E-009
  -89.9900000000000         8.878017059600696E-009
  -89.8000000000000         8.162668820355646E-009
  -89.6100000000000         7.711129327501446E-009
  -89.4200000000000         6.934340103695905E-009
  -89.2300000000000         6.643791232456057E-009
  -89.0400000000000         6.396444708913770E-009
  -88.8500000000000         6.271832751078119E-009
  -88.6600000000000         6.195094080802370E-009
  -88.4700000000000         6.042495104608128E-009
  -88.2800000000000         5.771349327160667E-009
  -88.0900000000000         5.420897376971373E-009
  -87.9000000000000         5.049030122434151E-009
  -87.7100000000000         4.756970846399636E-009
  -87.5200000000000         4.702930052474418E-009
  -87.3300000000000         5.717249428323692E-009
  -87.1400000000000         6.885782405810599E-009
  -86.9500000000000         8.221714512415590E-009
  -86.7600000000000         9.622395081757364E-009
  -86.5700000000000         1.108442183511732E-008
  -86.3800000000000         1.273240202726767E-008
  -86.1900000000000         1.466669450679239E-008
  -86.0000000000000         1.690084904019080E-008
  -85.8100000000000         1.916414606875207E-008
  -85.6200000000000         2.135310736012343E-008
  -85.4300000000000         2.328994196627826E-008
  -85.2400000000000         2.482386608619396E-008
  -85.0500000000000         2.591887918334358E-008
  -84.8600000000000         2.613939814642482E-008
  -84.6700000000000         2.747467888674856E-008
  -84.4800000000000         2.747935119152859E-008
  -84.2900000000000         2.769668664892052E-008
  -84.1000000000000         2.890482433270719E-008
  -83.9100000000000         2.888983319402021E-008
  -83.7200000000000         2.904375850359595E-008
  -83.5300000000000         2.927582789545139E-008
  -83.3400000000000         3.045181775076220E-008
  -83.1500000000000         3.054312476770192E-008
  -82.9600000000000         3.178760700036006E-008
  -82.7700000000000         3.204406266735929E-008
  -82.5800000000000         3.338794487641536E-008
  -82.3900000000000         3.343126035762738E-008
  -82.2000000000000         3.373538138609405E-008
  -82.0100000000000         3.406855989853368E-008
  -81.8200000000000         3.433714699614807E-008
  -81.6300000000000         3.445087976435045E-008
  -81.4400000000000         3.447011564677399E-008
  -81.2500000000000         3.441044507116136E-008
  -81.0600000000000         3.435663734297445E-008
  -80.8700000000000         3.437520435831747E-008
  -80.6800000000000         3.451621371879198E-008
  -80.4900000000000         3.495153143522808E-008
  -80.3000000000000         3.667577728922778E-008
  -80.1100000000000         3.758361606439471E-008
  -79.9200000000000         3.956449100053292E-008
  -79.7300000000000         4.016418680708335E-008
  -79.5400000000000         4.084972562039294E-008
  -79.3500000000000         4.122483306639771E-008
  -79.1600000000000         4.149102850726242E-008
  -78.9700000000000         4.169955349211825E-008
  -78.7800000000000         4.178556620854483E-008
  -78.5900000000000         4.171033409113002E-008
  -78.4000000000000         4.149636062968544E-008
  -78.2100000000000         4.125493393427108E-008
  -78.0200000000000         4.105786740088540E-008
  -77.8300000000000         4.094047875202271E-008
  -77.6400000000000         4.092400926300708E-008
  -77.4500000000000         4.103030233083103E-008
  -77.2600000000000         4.135197500600584E-008
  -77.0700000000000         4.221108434980427E-008
  -76.8800000000000         4.328970446889177E-008
  -76.6900000000000         4.406947555197513E-008
  -76.5000000000000         4.494651654346240E-008
  -76.3100000000000         4.587957641836083E-008
  -76.1200000000000         4.625031807815341E-008
  -75.9300000000000         4.671713769501268E-008
  -75.7400000000000         4.705044870968552E-008
  -75.5500000000000         4.715627669036847E-008
  -75.3600000000000         4.710406015862706E-008
  -75.1700000000000         4.699355088932627E-008
  -74.9800000000000         4.696184887175034E-008
  -74.7900000000000         4.707851929095518E-008
  -74.6000000000000         4.740025598732871E-008
  -74.4100000000000         4.820802190648044E-008
  -74.2200000000000         5.073928858143780E-008
  -74.0300000000000         5.114937476324331E-008
  -73.8400000000000         5.191526542705597E-008
  -73.6500000000000         5.319925780215547E-008
  -73.4600000000000         5.435199092790881E-008
  -73.2700000000000         5.556555551328746E-008
  -73.0800000000000         5.667989934188732E-008
  -72.8900000000000         5.778363499157837E-008
  -72.7000000000000         5.902560638918853E-008
  -72.5100000000000         6.027373835922604E-008
  -72.3200000000000         6.148467424233170E-008
  -72.1300000000000         6.277576257971097E-008
  -71.9400000000000         6.617901150933764E-008
  -71.7500000000000         6.683784427136548E-008
  -71.5600000000000         7.006663701142578E-008
  -71.3700000000000         7.118062209669758E-008
  -71.1800000000000         7.483442906343851E-008
  -70.9900000000000         7.554330012821926E-008
  -70.8000000000000         7.724840665895505E-008
  -70.6100000000000         7.848734318746044E-008
  -70.4200000000000         7.964524705626667E-008
  -70.2300000000000         8.073198771847437E-008
  -70.0400000000000         8.176929028696015E-008
  -69.8500000000000         8.284162231973632E-008
  -69.6600000000000         8.407555613235560E-008
  -69.4700000000000         8.541285103409588E-008
  -69.2800000000000         8.674738798500304E-008
  -69.0900000000000         8.816245714382336E-008
  -68.9000000000000         8.964604680444576E-008
  -68.7100000000000         9.116005243929156E-008
  -68.5200000000000         9.262463499045120E-008
  -68.3300000000000         9.409987751211527E-008
  -68.1400000000000         9.556923864387967E-008
  -67.9500000000000         9.665285567817878E-008
  -67.7600000000000         9.774938732188452E-008
  -67.5700000000000         9.911666365689423E-008
  -67.3800000000000         1.003213698736609E-007
  -67.1900000000000         1.013918004244920E-007
  -67.0000000000000         1.023630385839915E-007
  -66.8100000000000         1.033168051990092E-007
  -66.6200000000000         1.043811774173226E-007
  -66.4300000000000         1.057182295586667E-007
  -66.2400000000000         1.073603167002521E-007
  -66.0500000000000         1.093606338076037E-007
  -65.8600000000000         1.116742555551190E-007
  -65.6700000000000         1.141180595324634E-007
  -65.4800000000000         1.163238726854113E-007
  -65.2900000000000         1.183329636617595E-007
  -65.1000000000000         1.202199194882057E-007
  -64.9100000000000         1.220256286748142E-007
  -64.7200000000000         1.237960186583633E-007
  -64.5300000000000         1.255472320038505E-007
  -64.3400000000000         1.273823497428169E-007
  -64.1500000000000         1.290351307559910E-007
  -63.9600000000000         1.305459385596501E-007
  -63.7700000000000         1.319527534784835E-007
  -63.5800000000000         1.333255184925204E-007
  -63.3900000000000         1.347694061418325E-007
  -63.2000000000000         1.364021648269076E-007
  -63.0100000000000         1.382994011707502E-007
  -62.8200000000000         1.403283482945211E-007
  -62.6300000000000         1.423588856211702E-007
  -62.4400000000000         1.440738421916693E-007
  -62.2500000000000         1.456461656995665E-007
  -62.0600000000000         1.471045075716567E-007
  -61.8700000000000         1.484506476590741E-007
  -61.6800000000000         1.497465393607966E-007
  -61.4900000000000         1.511144514036849E-007
  -61.3000000000000         1.526785045023470E-007
  -61.1100000000000         1.543403641937121E-007
  -60.9200000000000         1.559477779437924E-007
  -60.7300000000000         1.575052116844307E-007
  -60.5400000000000         1.592032073814210E-007
  -60.3500000000000         1.610331022370117E-007
  -60.1600000000000         1.629069733011838E-007
  -59.9700000000000         1.648082547348405E-007
  -59.7800000000000         1.668005772049471E-007
  -59.5900000000000         1.688107287176604E-007
  -59.4000000000000         1.708011389390391E-007
  -59.2100000000000         1.726892886003215E-007
  -59.0200000000000         1.745854729903992E-007
  -58.8300000000000         1.765642992117481E-007
  -58.6400000000000         1.784771776531842E-007
  -58.4500000000000         1.804784485481324E-007
  -58.2600000000000         1.825963328255186E-007
  -58.0700000000000         1.848420178545802E-007
  -57.8800000000000         1.871904890416199E-007
  -57.6900000000000         1.896339089814285E-007
  -57.5000000000000         1.924102434320793E-007
  -57.3100000000000         1.955095199120788E-007
  -57.1200000000000         1.984572864739705E-007
  -56.9300000000000         2.013691941945880E-007
  -56.7400000000000         2.045350775447536E-007
  -56.5500000000000         2.081225320884166E-007
  -56.3600000000000         2.114314928621895E-007
  -56.1700000000000         2.147598602670170E-007
  -55.9800000000000         2.182554714129221E-007
  -55.7900000000000         2.219821577991926E-007
  -55.6000000000000         2.256160472342849E-007
  -55.4100000000000         2.291997470035773E-007
  -55.2200000000000         2.328378044926616E-007
  -55.0300000000000         2.366302850774224E-007
  -54.8400000000000         2.399502300040959E-007
  -54.6500000000000         2.431945096352592E-007
  -54.4600000000000         2.463740731115659E-007
  -54.2700000000000         2.495434145360385E-007
  -54.0800000000000         2.526862601977875E-007
  -53.8900000000000         2.558141911573108E-007
  -53.7000000000000         2.590062804181691E-007
  -53.5100000000000         2.623256290384500E-007
  -53.3200000000000         2.657777862111743E-007
  -53.1300000000000         2.693737440474348E-007
  -52.9400000000000         2.733085306885379E-007
  -52.7500000000000         2.772439835457530E-007
  -52.5600000000000         2.812876846974973E-007
  -52.3700000000000         2.854627134178653E-007
  -52.1800000000000         2.895896708382844E-007
  -51.9900000000000         2.936679633873082E-007
  -51.8000000000000         2.977161911663569E-007
  -51.6100000000000         3.016510011714777E-007
  -51.4200000000000         3.057913524086944E-007
  -51.2300000000000         3.099020958626280E-007
  -51.0400000000000         3.140469148776825E-007
  -50.8500000000000         3.181487443211695E-007
  -50.6600000000000         3.222208382620049E-007
  -50.4700000000000         3.261974086890438E-007
  -50.2800000000000         3.300674347912533E-007
  -50.0900000000000         3.338601940655799E-007
  -49.9000000000000         3.375219348313775E-007
  -49.7100000000000         3.414267870940640E-007
  -49.5200000000000         3.452745423725111E-007
  -49.3300000000000         3.490724919192325E-007
  -49.1400000000000         3.530999205798481E-007
  -48.9500000000000         3.569375282159753E-007
  -48.7600000000000         3.606281005531675E-007
  -48.5700000000000         3.642160257007858E-007
  -48.3800000000000         3.675322367033853E-007
  -48.1900000000000         3.707151472230838E-007
  -48.0000000000000         3.737517414777912E-007
  -47.8100000000000         3.766387630598704E-007
  -47.6200000000000         3.794771934325078E-007
  -47.4300000000000         3.823740541293657E-007
  -47.2400000000000         3.854300149924539E-007
  -47.0500000000000         3.886883863739077E-007
  -46.8600000000000         3.921517843898571E-007
  -46.6700000000000         3.957903565653054E-007
  -46.4800000000000         3.994458716484678E-007
  -46.2900000000000         4.028399021096307E-007
  -46.1000000000000         4.058941109316295E-007
  -45.9100000000000         4.086871803843241E-007
  -45.7200000000000         4.112977477801836E-007
  -45.5300000000000         4.137802994188818E-007
  -45.3400000000000         4.162840880955667E-007
  -45.1500000000000         4.189584894465971E-007
  -44.9600000000000         4.218669514526548E-007
  -44.7700000000000         4.249890849441697E-007
  -44.5800000000000         4.283817443616942E-007
  -44.3900000000000         4.321046916571188E-007
  -44.2000000000000         4.360640223154989E-007
  -44.0100000000000         4.402701942669994E-007
  -43.8200000000000         4.447998217899035E-007
  -43.6300000000000         4.497626146855917E-007
  -43.4400000000000         4.548746103852029E-007
  -43.2500000000000         4.597528766317261E-007
  -43.0600000000000         4.647547982290668E-007
  -42.8700000000000         4.698671449277199E-007
  -42.6800000000000         4.749047388798341E-007
  -42.4900000000000         4.798008411564946E-007
  -42.3000000000000         4.844758924463611E-007
  -42.1100000000000         4.892456546272141E-007
  -41.9200000000000         4.940323414751264E-007
  -41.7300000000000         4.988111795558031E-007
  -41.5400000000000         5.039320410354620E-007
  -41.3500000000000         5.092165255336383E-007
  -41.1600000000000         5.148708709422671E-007
  -40.9700000000000         5.207992323092507E-007
  -40.7800000000000         5.265019125205157E-007
  -40.5900000000000         5.322731769549640E-007
  -40.4000000000000         5.378975338195981E-007
  -40.2100000000000         5.432027720278758E-007
  -40.0200000000000         5.483619836353259E-007
  -39.8300000000000         5.534573745317114E-007
  -39.6400000000000         5.583396859435438E-007
  -39.4500000000000         5.630810849876545E-007
  -39.2600000000000         5.677966580863959E-007
  -39.0700000000000         5.725922811878756E-007
  -38.8800000000000         5.775646317144781E-007
  -38.6900000000000         5.827595878513443E-007
  -38.5000000000000         5.884664331040600E-007
  -38.3100000000000         5.946213514441762E-007
  -38.1200000000000         6.009213555475957E-007
  -37.9300000000000         6.073209566083250E-007
  -37.7400000000000         6.135689014376140E-007
  -37.5500000000000         6.195328286953546E-007
  -37.3600000000000         6.253387225214232E-007
  -37.1700000000000         6.309681843619240E-007
  -36.9800000000000         6.363282042503806E-007
  -36.7900000000000         6.414866411697853E-007
  -36.6000000000000         6.465354518937605E-007
  -36.4100000000000         6.514042927214798E-007
  -36.2200000000000         6.561435283157131E-007
  -36.0300000000000         6.610764341244601E-007
  -35.8400000000000         6.662416671945053E-007
  -35.6500000000000         6.713967349539847E-007
  -35.4600000000000         6.766122669750986E-007
  -35.2700000000000         6.821882906620789E-007
  -35.0800000000000         6.879784134712564E-007
  -34.8900000000000         6.936830306782541E-007
  -34.7000000000000         6.994600370885071E-007
  -34.5100000000000         7.053556380310350E-007
  -34.3200000000000         7.111778515196644E-007
  -34.1300000000000         7.169359872795039E-007
  -33.9400000000000         7.226899757633202E-007
  -33.7500000000000         7.285111841190693E-007
  -33.5600000000000         7.342865176158162E-007
  -33.3700000000000         7.399635603809972E-007
  -33.1800000000000         7.456276169405104E-007
  -32.9900000000000         7.511953502258268E-007
  -32.8000000000000         7.567348026921382E-007
  -32.6100000000000         7.625173503813831E-007
  -32.4200000000000         7.684447358107731E-007
  -32.2300000000000         7.745824348193718E-007
  -32.0400000000000         7.808507957869886E-007
  -31.8500000000000         7.870315929028242E-007
  -31.6600000000000         7.930999120943983E-007
  -31.4700000000000         7.990792587860939E-007
  -31.2800000000000         8.046437841760767E-007
  -31.0900000000000         8.099487762558957E-007
  -30.9000000000000         8.150139213226264E-007
  -30.7100000000000         8.200112859701016E-007
  -30.5200000000000         8.249669564141398E-007
  -30.3300000000000         8.297822735780948E-007
  -30.1400000000000         8.346120713109343E-007
  -29.9500000000000         8.395599811246158E-007
  -29.7600000000000         8.447148497299983E-007
  -29.5700000000000         8.502186376032880E-007
  -29.3800000000000         8.559396914532437E-007
  -29.1900000000000         8.615195902288407E-007
  -29.0000000000000         8.671022857535009E-007
  -28.8100000000000         8.726073257394968E-007
  -28.6200000000000         8.779704190971363E-007
  -28.4300000000000         8.832658670102517E-007
  -28.2400000000000         8.886700610334953E-007
  -28.0500000000000         8.937319256081544E-007
  -27.8600000000000         8.987764387972652E-007
  -27.6700000000000         9.038148080295853E-007
  -27.4800000000000         9.088207012930749E-007
  -27.2900000000000         9.137707009537465E-007
  -27.1000000000000         9.188672217804052E-007
  -26.9100000000000         9.240411608923317E-007
  -26.7200000000000         9.294462643293816E-007
  -26.5300000000000         9.348450370160104E-007
  -26.3400000000000         9.402467900047348E-007
  -26.1500000000000         9.455808629526910E-007
  -25.9600000000000         9.509584608606339E-007
  -25.7700000000000         9.561657040047141E-007
  -25.5800000000000         9.613432321615211E-007
  -25.3900000000000         9.665285321997206E-007
  -25.2000000000000         9.717327477967324E-007
  -25.0100000000000         9.768563676479479E-007
  -24.8200000000000         9.818491776922195E-007
  -24.6300000000000         9.869166972517690E-007
  -24.4400000000000         9.919723896972770E-007
  -24.2500000000000         9.970704628466130E-007
  -24.0600000000000         1.002317585136123E-006
  -23.8700000000000         1.007753891992133E-006
  -23.6800000000000         1.013391695650711E-006
  -23.4900000000000         1.019333267538990E-006
  -23.3000000000000         1.025226492150013E-006
  -23.1100000000000         1.031086056161085E-006
  -22.9200000000000         1.037462644086219E-006
  -22.7300000000000         1.043693953608946E-006
  -22.5400000000000         1.049946252814087E-006
  -22.3500000000000         1.056245512619021E-006
  -22.1600000000000         1.062568752513639E-006
  -21.9700000000000         1.068863048100713E-006
  -21.7800000000000         1.075079171161938E-006
  -21.5900000000000         1.081175515019589E-006
  -21.4000000000000         1.087028654829043E-006
  -21.2100000000000         1.092790098499980E-006
  -21.0200000000000         1.098920000470817E-006
  -20.8300000000000         1.104579424880687E-006
  -20.6400000000000         1.110394658024184E-006
  -20.4500000000000         1.116308108986084E-006
  -20.2600000000000         1.122220075100815E-006
  -20.0700000000000         1.128079619145884E-006
  -19.8800000000000         1.133792646184069E-006
  -19.6900000000000         1.139396617356169E-006
  -19.5000000000000         1.144956645794623E-006
  -19.3100000000000         1.150553885303663E-006
  -19.1200000000000         1.156230188211300E-006
  -18.9300000000000         1.161972498362116E-006
  -18.7400000000000         1.167762802255113E-006
  -18.5500000000000         1.173588010499289E-006
  -18.3600000000000         1.179487112253565E-006
  -18.1700000000000         1.185451983680514E-006
  -17.9800000000000         1.191485820694364E-006
  -17.7900000000000         1.197598990404322E-006
  -17.6000000000000         1.203764988578583E-006
  -17.4100000000000         1.209922608920229E-006
  -17.2200000000000         1.216173514840907E-006
  -17.0300000000000         1.222280103865773E-006
  -16.8400000000000         1.228376663194408E-006
  -16.6500000000000         1.234160439953021E-006
  -16.4600000000000         1.239919307274851E-006
  -16.2700000000000         1.245496865218085E-006
  -16.0800000000000         1.251033568771530E-006
  -15.8900000000000         1.256322836010726E-006
  -15.7000000000000         1.261528000209178E-006
  -15.5100000000000         1.266490203813068E-006
  -15.3200000000000         1.271341282382250E-006
  -15.1300000000000         1.276026584148053E-006
  -14.9400000000000         1.280704340891332E-006
  -14.7500000000000         1.285392969214189E-006
  -14.5600000000000         1.289976472221830E-006
  -14.3700000000000         1.294447731579110E-006
  -14.1800000000000         1.299152674330064E-006
  -13.9900000000000         1.303847458428909E-006
  -13.8000000000000         1.308679013125854E-006
  -13.6100000000000         1.313762728381154E-006
  -13.4200000000000         1.318934227674122E-006
  -13.2300000000000         1.324151368185345E-006
  -13.0400000000000         1.329387916831435E-006
  -12.8500000000000         1.334596050560314E-006
  -12.6600000000000         1.339658735819553E-006
  -12.4700000000000         1.344642793955326E-006
  -12.2800000000000         1.349845455618837E-006
  -12.0900000000000         1.354916612098239E-006
  -11.9000000000000         1.359944313732965E-006
  -11.7100000000000         1.364941510272809E-006
  -11.5200000000000         1.369915811313117E-006
  -11.3300000000000         1.374768628524665E-006
  -11.1400000000000         1.379661450539686E-006
  -10.9500000000000         1.384531647062771E-006
  -10.7600000000000         1.389302029317006E-006
  -10.5700000000000         1.393935088568524E-006
  -10.3800000000000         1.398477633272919E-006
  -10.1900000000000         1.402684311271295E-006
  -10.0000000000000         1.406630245233599E-006
  -9.81000000000000         1.410349308078571E-006
  -9.62000000000000         1.413792046630966E-006
  -9.42999999999999         1.417003991960561E-006
  -9.23999999999999         1.420320501517477E-006
  -9.05000000000000         1.423369149166924E-006
  -8.86000000000000         1.426392203437782E-006
  -8.67000000000000         1.429510549350097E-006
  -8.48000000000000         1.432530187902010E-006
  -8.28999999999999         1.435681984018300E-006
  -8.09999999999999         1.439147585776020E-006
  -7.91000000000000         1.442573615639811E-006
  -7.72000000000000         1.446222304823823E-006
  -7.53000000000000         1.449932946279028E-006
  -7.34000000000000         1.453733583986392E-006
  -7.15000000000001         1.457376914685669E-006
  -6.95999999999999         1.460942624051607E-006
  -6.77000000000000         1.464741906716712E-006
  -6.58000000000000         1.468508746048754E-006
  -6.39000000000000         1.471907068152840E-006
  -6.20000000000000         1.475263824878816E-006
  -6.01000000000001         1.478552968721989E-006
  -5.81999999999999         1.481815196166605E-006
  -5.63000000000000         1.485068089250003E-006
  -5.44000000000000         1.488266153313824E-006
  -5.25000000000000         1.491430439776467E-006
  -5.06000000000000         1.494585218747131E-006
  -4.87000000000000         1.497750993847814E-006
  -4.67999999999999         1.500886975321842E-006
  -4.48999999999999         1.503902148277349E-006
  -4.30000000000000         1.506733626596740E-006
  -4.11000000000000         1.509579349396105E-006
  -3.92000000000000         1.512293325983598E-006
  -3.73000000000000         1.515046576171143E-006
  -3.53999999999999         1.517666829759930E-006
  -3.34999999999999         1.520230909255178E-006
  -3.16000000000000         1.522778143910831E-006
  -2.97000000000000         1.525264291381106E-006
  -2.78000000000000         1.527694340736036E-006
  -2.59000000000000         1.530053144196646E-006
  -2.40000000000001         1.532322024095027E-006
  -2.20999999999999         1.534788554449289E-006
  -2.02000000000000         1.537325179356372E-006
  -1.83000000000000         1.539820685693457E-006
  -1.64000000000000         1.542198885454263E-006
  -1.45000000000000         1.544661058162491E-006
  -1.26000000000001         1.546989433889518E-006
  -1.06999999999999         1.549345840524221E-006
 -0.879999999999995         1.551495103575507E-006
 -0.689999999999998         1.553759466894705E-006
 -0.500000000000000         1.555963648997719E-006
 -0.310000000000002         1.558271995504945E-006
 -0.120000000000005         1.560465404482185E-006
  7.000000000000739E-002    1.562689377554747E-006
  0.260000000000005         1.565098984987350E-006
  0.450000000000003         1.567820663718434E-006
  0.640000000000001         1.570624818322005E-006
  0.829999999999998         1.573558103930153E-006
   1.02000000000000         1.576614942498939E-006
   1.21000000000001         1.579664531033540E-006
   1.40000000000001         1.582669905254585E-006
   1.59000000000000         1.585835296296495E-006
   1.78000000000000         1.588988634785241E-006
   1.97000000000000         1.592241160110173E-006
   2.16000000000000         1.595593456244639E-006
   2.34999999999999         1.599125962596719E-006
   2.54000000000001         1.602767469636879E-006
   2.73000000000000         1.606459118095280E-006
   2.92000000000000         1.610211958121641E-006
   3.11000000000000         1.613994277214601E-006
   3.30000000000000         1.617748687200539E-006
   3.48999999999999         1.621553523568916E-006
   3.68000000000001         1.625532205311484E-006
   3.87000000000000         1.629418059950840E-006
   4.06000000000000         1.633386172270515E-006
   4.25000000000000         1.636977667139173E-006
   4.44000000000000         1.640378102722226E-006
   4.63000000000000         1.643656780685293E-006
   4.82000000000001         1.646814924310313E-006
   5.01000000000001         1.649780536319296E-006
   5.20000000000000         1.652398521445025E-006
   5.39000000000000         1.655251014359076E-006
   5.58000000000000         1.657792793265057E-006
   5.77000000000000         1.660725801269922E-006
   5.96000000000001         1.663673399641455E-006
   6.15000000000001         1.666331414710313E-006
   6.34000000000000         1.669315268646397E-006
   6.53000000000000         1.671976752918664E-006