  -105.000000000000        -3.151268115738487E-021
  -104.810000000000        -8.689343948132341E-021
  -104.620000000000        -1.219104025493724E-020
  -104.430000000000        -1.299789270270395E-020
  -104.240000000000        -1.120402764795055E-020
  -104.050000000000        -7.621434408238896E-021
  -103.860000000000        -3.538727602020810E-021
  -103.670000000000        -3.436018894804648E-022
  -103.480000000000         8.812579422204269E-022
  -103.290000000000        -3.285335570862476E-022
  -103.100000000000        -3.687300957558358E-021
  -102.910000000000        -8.246862994880133E-021
  -102.720000000000        -1.267740483034721E-020
  -102.530000000000        -1.565951646042701E-020
  -102.340000000000        -1.627315883437812E-020
  -102.150000000000        -1.427075052693365E-020
  -101.960000000000        -1.015552623157413E-020
  -101.770000000000        -5.042076864841339E-021
  -101.580000000000        -3.379853667667072E-022
  -101.390000000000         2.662210714131656E-021
  -101.200000000000         3.151668064735791E-021
  -101.010000000000         1.042981711142504E-021
  -100.820000000000        -3.011180747596965E-021
  -100.630000000000        -7.811763021072906E-021
  -100.440000000000        -1.196086043782503E-020
  -100.250000000000        -1.426081415192266E-020
  -100.060000000000        -1.405244512775476E-020
  -99.8700000000000        -1.140021625551903E-020
  -99.6800000000000        -7.074309724984351E-021
  -99.4900000000000        -2.333575069523733E-021
  -99.3000000000000         1.432051143530741E-021
  -99.1100000000000         3.099879645237924E-021
  -98.9200000000000         2.140823248104492E-021
  -98.7300000000000        -1.218141767715485E-021
  -98.5400000000000        -6.041755245921700E-021
  -98.3500000000000        -1.093599481523732E-020
  -98.1600000000000        -1.443793248491497E-020
  -97.9700000000000        -1.544215113055607E-020
  -97.7800000000000        -1.354103309908569E-020
  -97.5900000000000        -9.173443064322688E-021
  -97.4000000000000        -3.529152760912091E-021
  -97.2100000000000         1.772215400073671E-021
  -97.0200000000000         5.142214963487187E-021
  -96.8300000000000         5.495769827995121E-021
  -96.6400000000000         2.596890759614458E-021
  -96.4500000000000        -2.830179480996457E-021
  -96.2600000000000        -9.268641781845720E-021
  -96.0700000000000        -1.481710781471736E-020
  -95.8800000000000        -1.772446233178855E-020
  -95.6900000000000        -1.689950356069610E-020
  -95.5000000000000        -1.225292781882620E-020
  -95.3100000000000        -4.776768041187477E-021
  -95.1200000000000         3.668216467295656E-021
  -94.9300000000000         1.081671934030693E-020
  -94.7400000000000         1.460741337030999E-020
  -94.5500000000000         1.377884196071743E-020
  -94.3600000000000         8.282506699441056E-021
  -94.1700000000000        -6.209118091885502E-022
  -93.9800000000000        -1.063495464272467E-020
  -93.7900000000000        -1.901772091100620E-020
  -93.6000000000000        -2.333827467212569E-020
  -93.4100000000000        -2.218809315121504E-020
  -93.2200000000000        -1.563429468288055E-020
  -93.0300000000000        -5.262896635156334E-021
  -92.8400000000000         6.223816682038061E-021
  -92.6500000000000         1.575196233425617E-020
  -92.4600000000000         2.074487761589839E-020
  -92.2700000000000         1.985575314729006E-020
  -92.0800000000000         1.334680071346160E-020
  -91.8900000000000         3.005297471779541E-021
  -91.7000000000000        -8.377116838816528E-021
  -91.5100000000000        -1.780798201644852E-020
  -91.3200000000000        -2.294285130414940E-020
  -91.1300000000000        -2.272947735170757E-020
  -90.9400000000000        -1.766196355093506E-020
  -90.7500000000000        -9.579275722498803E-021
  -90.5600000000000        -1.077339280685175E-021
  -90.3700000000000         5.287753327315629E-021
  -90.1800000000000         7.773017827866861E-021
  -89.9900000000000         5.971773919687502E-021
  -89.8000000000000         9.239806938028902E-022
  -89.6100000000000        -5.233499458358581E-021
  -89.4200000000000        -9.977931610691610E-021
  -89.2300000000000        -1.124599566658070E-020
  -89.0400000000000        -8.131915659776096E-021
  -88.8500000000000        -1.203374776296020E-021
  -88.6600000000000         7.670715823168017E-021
  -88.4700000000000         1.592198924676324E-020
  -88.2800000000000         2.111092717328177E-020
  -88.0900000000000         2.170343270003289E-020
  -87.9000000000000         1.753836425911347E-020
  -87.7100000000000         9.838521860736702E-021
  -87.5200000000000         7.764789096616567E-022
  -87.3300000000000        -7.242896037765116E-021
  -87.1400000000000        -1.233452401628107E-020
  -86.9500000000000        -1.367646731663962E-020
  -86.7600000000000        -1.168624755762588E-020
  -86.5700000000000        -7.795979306934198E-021
  -86.3800000000000        -3.915283013346407E-021
  -86.1900000000000        -1.763904589557973E-021
  -86.0000000000000        -2.293587033759831E-021
  -85.8100000000000        -5.384733656260780E-021
  -85.6200000000000        -9.908161613469077E-021
  -85.4300000000000        -1.412266966650506E-020
  -85.2400000000000        -1.627588037264288E-020
  -85.0500000000000        -1.521575751111746E-020
  -84.8600000000000        -1.081585994054493E-020
  -84.6700000000000        -4.069719177995414E-021
  -84.4800000000000         3.191900647203610E-021
  -84.2900000000000         8.884759524762940E-021
  -84.1000000000000         1.136880384627985E-020
  -83.9100000000000         1.001851210211734E-020
  -83.7200000000000         5.460668928665476E-021
  -83.5300000000000        -6.083475757541398E-022
  -83.3400000000000        -5.965052865603348E-021
  -83.1500000000000        -8.578625777529414E-021
  -82.9600000000000        -7.269279879858915E-021
  -82.7700000000000        -2.091453197727085E-021
  -82.5800000000000         5.674403894536386E-021
  -82.3900000000000         1.390373475034160E-020
  -82.2000000000000         2.024758227720346E-020
  -82.0100000000000         2.279245796737185E-020
  -81.8200000000000         2.056998423043002E-020
  -81.6300000000000         1.378878761996033E-020
  -81.4400000000000         3.750351579831964E-021
  -81.2500000000000        -7.505002764527392E-021
  -81.0600000000000        -1.771486387491363E-020
  -80.8700000000000        -2.493564887361209E-020
  -80.6800000000000        -2.797201784115980E-020
  -80.4900000000000        -2.659847230433659E-020
  -80.3000000000000        -2.153915774747797E-020
  -80.1100000000000        -1.423210399909098E-020
  -79.9200000000000        -6.447472173773431E-021
  -79.7300000000000         1.435936281523498E-022
  -79.5400000000000         4.343331594817039E-021
  -79.3500000000000         5.655124007963279E-021
  -79.1600000000000         4.318388105498377E-021
  -78.9700000000000         1.161539071870261E-021
  -78.7800000000000        -2.665097927688755E-021
  -78.5900000000000        -5.988299408780948E-021
  -78.4000000000000        -7.864116485556063E-021
  -78.2100000000000        -7.742102413318864E-021
  -78.0200000000000        -5.540339046198404E-021
  -77.8300000000000        -1.648203536300538E-021
  -77.6400000000000         3.132114469398942E-021
  -77.4500000000000         7.709754289506853E-021
  -77.2600000000000         1.090594788388549E-020
  -77.0700000000000         1.172541459088937E-020
  -76.8800000000000         9.651042921233561E-021
  -76.6900000000000         4.871519164997109E-021
  -76.5000000000000        -1.658866508098075E-021
  -76.3100000000000        -8.390018944470560E-021
  -76.1200000000000        -1.356112703108537E-020
  -75.9300000000000        -1.570297104343541E-020
  -75.7400000000000        -1.410166436303315E-020
  -75.5500000000000        -9.064833033397259E-021
  -75.3600000000000        -1.889527912472095E-021
  -75.1700000000000         5.472251193544048E-021
  -74.9800000000000         1.095732196071145E-020
  -74.7900000000000         1.298402465680352E-020
  -74.6000000000000         1.091534811825335E-020
  -74.4100000000000         5.252608598497646E-021
  -74.2200000000000        -2.497019665247444E-021
  -74.0300000000000        -1.023941083089462E-020
  -73.8400000000000        -1.588006893948119E-020
  -73.6500000000000        -1.791481963845812E-020
  -73.4600000000000        -1.585884290887692E-020
  -73.2700000000000        -1.039061543986791E-020
  -73.0800000000000        -3.163007175234344E-021
  -72.8900000000000         3.677286100339249E-021
  -72.7000000000000         8.135492071809989E-021
  -72.5100000000000         8.989070118724901E-021
  -72.3200000000000         6.177181207473363E-021
  -72.1300000000000         8.131953632810056E-022
  -71.9400000000000        -5.200320261971325E-021
  -71.7500000000000        -9.828527187502235E-021
  -71.5600000000000        -1.160112585798308E-020
  -71.3700000000000        -1.009737333247621E-020
  -71.1800000000000        -6.047220332412695E-021
  -70.9900000000000        -1.022838506843719E-021
  -70.8000000000000         3.154800714112975E-021
  -70.6100000000000         5.073148007365674E-021
  -70.4200000000000         4.214727004642352E-021
  -70.2300000000000         1.108858595537167E-021
  -70.0400000000000        -2.889663383415374E-021
  -69.8500000000000        -6.101322117611714E-021
  -69.6600000000000        -7.122450747041286E-021
  -69.4700000000000        -5.327409557800824E-021
  -69.2800000000000        -1.113520653476687E-021
  -69.0900000000000         4.190299291665768E-021
  -68.9000000000000         8.727411215225149E-021
  -68.7100000000000         1.070670256279811E-020
  -68.5200000000000         8.999553408408636E-021
  -68.3300000000000         3.551068234886747E-021
  -68.1400000000000        -4.528471108516658E-021
  -67.9500000000000        -1.322956455871466E-020
  -67.7600000000000        -2.019761619214456E-020
  -67.5700000000000        -2.342017503952071E-020
  -67.3800000000000        -2.184721906229591E-020
  -67.1900000000000        -1.574955761108073E-020
  -67.0000000000000        -6.684330424618624E-021
  -66.8100000000000         2.943396103279867E-021
  -66.6200000000000         1.059360620791108E-020
  -66.4300000000000         1.434951895218553E-020
  -66.2400000000000         1.347625789060636E-020
  -66.0500000000000         8.606396769263109E-021
  -65.8600000000000         1.505095460089592E-021
  -65.6700000000000        -5.496038789838059E-021
  -65.4800000000000        -1.020734938061943E-020
  -65.2900000000000        -1.121193793020892E-020
  -65.1000000000000        -8.240506802734289E-021
  -64.9100000000000        -2.202357595089454E-021
  -64.7200000000000         5.110308641896234E-021
  -64.5300000000000         1.154177619560210E-020
  -64.3400000000000         1.516812048293357E-020
  -64.1500000000000         1.481709289641648E-020
  -63.9600000000000         1.038484777472100E-020
  -63.7700000000000         2.866587537585555E-021
  -63.5800000000000        -5.912032496987458E-021
  -63.3900000000000        -1.379137763010149E-020
  -63.2000000000000        -1.886321379072995E-020
  -63.0100000000000        -1.998293587556994E-020
  -62.8200000000000        -1.707048352484477E-020
  -62.6300000000000        -1.111892080651866E-020
  -62.4400000000000        -3.905880676941971E-021
  -62.2500000000000         2.515803391620658E-021
  -62.0600000000000         6.404976360118266E-021
  -61.8700000000000         6.822611458818094E-021
  -61.6800000000000         3.876163864927484E-021
  -61.4900000000000        -1.351295562608772E-021
  -61.3000000000000        -7.149042644071657E-021
  -61.1100000000000        -1.168108791103950E-020
  -60.9200000000000        -1.349071992794277E-020
  -60.7300000000000        -1.187522345501300E-020
  -60.5400000000000        -7.046639881041985E-021
  -60.3500000000000        -5.432687268287662E-023
  -60.1600000000000         7.495167190926997E-021
  -59.9700000000000         1.384222216117923E-020
  -59.7800000000000         1.750582823869048E-020
  -59.5900000000000         1.764700196934528E-020
  -59.4000000000000         1.427879721249079E-020
  -59.2100000000000         8.262872716204959E-021
  -59.0200000000000         1.079845229121184E-021
  -58.8300000000000        -5.574497100536442E-021
  -58.6400000000000        -1.025321664507212E-020
  -58.4500000000000        -1.213944759945055E-020
  -58.2600000000000        -1.122739292313544E-020
  -58.0700000000000        -8.258446155480685E-021
  -57.8800000000000        -4.449861971832257E-021
  -57.6900000000000        -1.108864529700776E-021
  -57.5000000000000         7.535432151490014E-022
  -57.3100000000000         6.995777277962344E-022
  -57.1200000000000        -1.046177787522778E-021
  -56.9300000000000        -3.716216460478032E-021
  -56.7400000000000        -6.280672001067254E-021
  -56.5500000000000        -7.791719469933478E-021
  -56.3600000000000        -7.681905223054253E-021
  -56.1700000000000        -5.931228011412700E-021
  -55.9800000000000        -3.065676027662228E-021
  -55.7900000000000         3.035452313466048E-025
  -55.6000000000000         2.229019826045908E-021
  -55.4100000000000         2.763057816688996E-021
  -55.2200000000000         1.187929152267323E-021
  -55.0300000000000        -2.318687111575832E-021
  -54.8400000000000        -6.995441435171006E-021
  -54.6500000000000        -1.166772942258095E-020
  -54.4600000000000        -1.504593775902622E-020
  -54.2700000000000        -1.608246039682619E-020
  -54.0800000000000        -1.428808719506998E-020
  -53.8900000000000        -9.902181409313203E-021
  -53.7000000000000        -3.849658557466836E-021
  -53.5100000000000         2.508353047739255E-021
  -53.3200000000000         7.750703457839604E-021
  -53.1300000000000         1.078119974285828E-020
  -52.9400000000000         1.111017909736209E-020
  -52.7500000000000         8.960932810536963E-021
  -52.5600000000000         5.182702554854277E-021
  -52.3700000000000         9.997319205082116E-022
  -52.1800000000000        -2.336451465618848E-021
  -51.9900000000000        -3.896868903190224E-021
  -51.8000000000000        -3.327355851461705E-021
  -51.6100000000000        -9.335748637965730E-022
  -51.4200000000000         2.417396550870462E-021
  -51.2300000000000         5.545642688643583E-021
  -51.0400000000000         7.292135688411380E-021
  -50.8500000000000         6.854855005883053E-021
  -50.6600000000000         4.040549826355359E-021
  -50.4700000000000        -6.389822208373917E-022
  -50.2800000000000        -6.063305247353052E-021
  -50.0900000000000        -1.078444757672562E-020
  -49.9000000000000        -1.343283920495273E-020
  -49.7100000000000        -1.313980610365424E-020
  -49.5200000000000        -9.844999436889862E-021
  -49.3300000000000        -4.376630003979267E-021
  -49.1400000000000         1.745589711031095E-021
  -48.9500000000000         6.744907102753340E-021
  -48.7600000000000         9.128957952750333E-021
  -48.5700000000000         8.158366281966936E-021
  -48.3800000000000         4.086528699271429E-021
  -48.1900000000000        -1.900595952898087E-021
  -48.0000000000000        -8.017704811969992E-021
  -47.8100000000000        -1.238584806326664E-020
  -47.6200000000000        -1.357055822060428E-020
  -47.4300000000000        -1.100647553787073E-020
  -47.2400000000000        -5.190835330978480E-021
  -47.0500000000000         2.415293025160959E-021
  -46.8600000000000         9.765498069492508E-021
  -46.6700000000000         1.479418158369753E-020
  -46.4800000000000         1.601316703632022E-020
  -46.2900000000000         1.296069886759003E-020
  -46.1000000000000         6.362600644680363E-021
  -45.9100000000000        -2.053072758669573E-021
  -45.7200000000000        -1.004657018054690E-020
  -45.5300000000000        -1.552473392567327E-020
  -45.3400000000000        -1.716688211402036E-020
  -45.1500000000000        -1.482009493273905E-020
  -44.9600000000000        -9.536218817453295E-021
  -44.7700000000000        -3.233336326057158E-021
  -44.5800000000000         1.919255481337359E-021
  -44.3900000000000         4.200308150772419E-021
  -44.2000000000000         2.891267092875329E-021
  -44.0100000000000        -1.498000432455721E-021
  -43.8200000000000        -7.404005995345059E-021
  -43.6300000000000        -1.272177231913267E-020
  -43.4400000000000        -1.548225242594602E-020
  -43.2500000000000        -1.447504032001383E-020
  -43.0600000000000        -9.625714858648998E-021
  -42.8700000000000        -2.027172777291947E-021
  -42.6800000000000         6.369547538439085E-021
  -42.4900000000000         1.331231744027260E-020
  -42.3000000000000         1.689959699798442E-020
  -42.1100000000000         1.614374488520186E-020
  -41.9200000000000         1.127945366448048E-020
  -41.7300000000000         3.717892634565833E-021
  -41.5400000000000        -4.353491311679553E-021
  -41.3500000000000        -1.061868776704934E-020
  -41.1600000000000        -1.333442717211827E-020
  -40.9700000000000        -1.186125759531823E-020
  -40.7800000000000        -6.852795111633593E-021
  -40.5900000000000        -4.586382311829464E-023
  -40.4000000000000         6.279564029472562E-021
  -40.2100000000000         1.000322112501635E-020
  -40.0200000000000         9.814055061517365E-021
  -39.8300000000000         5.607808982540162E-021
  -39.6400000000000        -1.484136745628728E-021
  -39.4500000000000        -9.437574326344616E-021
  -39.2600000000000        -1.594485952791228E-020
  -39.0700000000000        -1.910709561147187E-020
  -38.8800000000000        -1.799697852562565E-020
  -38.6900000000000        -1.292182747576345E-020
  -38.5000000000000        -5.316838328933153E-021
  -38.3100000000000         2.686797546267326E-021
  -38.1200000000000         8.885278308143891E-021
  -37.9300000000000         1.163590050127189E-020
  -37.7400000000000         1.032209287140234E-020
  -37.5500000000000         5.523926503528976E-021
  -37.3600000000000        -1.148680423394924E-021
  -37.1700000000000        -7.518034633394041E-021
  -36.9800000000000        -1.147763943878755E-020
  -36.7900000000000        -1.162939312565205E-020
  -36.6000000000000        -7.723764238543979E-021
  -36.4100000000000        -7.583608671400526E-022
  -36.2200000000000         7.305073646203834E-021
  -36.0300000000000         1.412386865735559E-020
  -35.8400000000000         1.767543291006751E-020
  -35.6500000000000         1.685091423128126E-020
  -35.4600000000000         1.175873301376041E-020
  -35.2700000000000         3.663270429007494E-021
  -35.0800000000000        -5.400290981981335E-021
  -34.8900000000000        -1.321143618835037E-020
  -34.7000000000000        -1.798152270575796E-020
  -34.5100000000000        -1.882854031776244E-020
  -34.3200000000000        -1.597863347353461E-020
  -34.1300000000000        -1.064577972364935E-020
  -33.9400000000000        -4.632271574533660E-021
  -33.7500000000000         2.291036695291039E-022
  -33.5600000000000         2.621218284366804E-021
  -33.3700000000000         2.110446322796197E-021
  -33.1800000000000        -7.676696478661489E-022
  -32.9900000000000        -4.716345875986956E-021
  -32.8000000000000        -8.105923920083502E-021
  -32.6100000000000        -9.489260525689419E-021
  -32.4200000000000        -8.046461517538415E-021
  -32.2300000000000        -3.828528078080145E-021
  -32.0400000000000         2.260893138441612E-021
  -31.8500000000000         8.729985426457375E-021
  -31.6600000000000         1.393139060232489E-020
  -31.4700000000000         1.653608997240259E-020
  -31.2800000000000         1.590093722492021E-020
  -31.0900000000000         1.221615409961484E-020
  -30.9000000000000         6.400588181484841E-021
  -30.7100000000000        -2.009296153109850E-022
  -30.5200000000000        -6.206853926303098E-021
  -30.3300000000000        -1.054907069865373E-020
  -30.1400000000000        -1.268958409418562E-020
  -29.9500000000000        -1.267042811308635E-020
  -29.7600000000000        -1.101583921556014E-020
  -29.5700000000000        -8.529741506510493E-021
  -29.3800000000000        -6.044906259661561E-021
  -29.1900000000000        -4.193981864749566E-021
  -29.0000000000000        -3.267209969365625E-021
  -28.8100000000000        -3.187280623736143E-021
  -28.6200000000000        -3.591664552179076E-021
  -28.4300000000000        -3.985899203070920E-021
  -28.2400000000000        -3.914380940244293E-021
  -28.0500000000000        -3.092068037963955E-021
  -27.8600000000000        -1.463641027643244E-021
  -27.6700000000000         8.066882582634522E-022
  -27.4800000000000         3.391005109474855E-021
  -27.2900000000000         5.875721349409230E-021
  -27.1000000000000         7.843667608507676E-021
  -26.9100000000000         8.948796936473830E-021
  -26.7200000000000         8.980409821600953E-021
  -26.5300000000000         7.911322966238383E-021
  -26.3400000000000         5.912008246812360E-021
  -26.1500000000000         3.316181457284468E-021
  -25.9600000000000         5.479646848165549E-022
  -25.7700000000000        -1.965314726174883E-021
  -25.5800000000000        -3.881840083704196E-021
  -25.3900000000000        -5.030728287288810E-021
  -25.2000000000000        -5.475660263344792E-021
  -25.0100000000000        -5.524105710807315E-021
  -24.8200000000000        -5.656232411787168E-021
  -24.6300000000000        -6.371849483730094E-021
  -24.4400000000000        -7.989452482822485E-021
  -24.2500000000000        -1.046953898106446E-020
  -24.0600000000000        -1.334512765930287E-020
  -23.8700000000000        -1.580489093089791E-020
  -23.6800000000000        -1.691311926215190E-020
  -23.4900000000000        -1.590411287444209E-020
  -23.3000000000000        -1.246331663612645E-020
  -23.1100000000000        -6.900404652476335E-021
  -22.9200000000000        -1.449096816023321E-022
  -22.7300000000000         6.447601912143963E-021
  -22.5400000000000         1.143461030043401E-020
  -22.3500000000000         1.369127474379561E-020
  -22.1600000000000         1.277301871139681E-020
  -21.9700000000000         9.111984811418556E-021
  -21.7800000000000         3.952496839691983E-021
  -21.5900000000000        -9.863251233668860E-022
  -21.4000000000000        -4.034197003901625E-021
  -21.2100000000000        -4.118748689317075E-021
  -21.0200000000000        -1.151973623864091E-021
  -20.8300000000000         3.892733079522253E-021
  -20.6400000000000         9.252052164636267E-021
  -20.4500000000000         1.291035978941847E-020
  -20.2600000000000         1.324217971478174E-020
  -20.0700000000000         9.568943260362282E-021
  -19.8800000000000         2.450021525498866E-021
  -19.6900000000000        -6.407441558659290E-021
  -19.5000000000000        -1.461541727672541E-020
  -19.3100000000000        -1.981631264026669E-020
  -19.1200000000000        -2.042347687161789E-020
  -18.9300000000000        -1.615569877084901E-020
  -18.7400000000000        -8.180903084581946E-021
  -18.5500000000000         1.192867322141538E-021
  -18.3600000000000         9.187094320056213E-021
  -18.1700000000000         1.337701772740348E-020
  -17.9800000000000         1.242509036454791E-020
  -17.7900000000000         6.504455031845477E-021
  -17.6000000000000        -2.721806108488016E-021
  -17.4100000000000        -1.256645066646359E-020
  -17.2200000000000        -2.009448606589516E-020
  -17.0300000000000        -2.298907413599541E-020
  -16.8400000000000        -2.025631013312025E-020
  -16.6500000000000        -1.254505780502588E-020
  -16.4600000000000        -1.961298418093360E-021
  -16.2700000000000         8.574170048225699E-021
  -16.0800000000000         1.621563685769106E-020
  -15.8900000000000         1.904419356726825E-020
  -15.7000000000000         1.661642992031156E-020
  -15.5100000000000         1.004609074164830E-020
  -15.3200000000000         1.609908490339148E-021
  -15.1300000000000        -5.977265739199148E-021
  -14.9400000000000        -1.038606160565276E-020
  -14.7500000000000        -1.035662816843122E-020
  -14.5600000000000        -6.050416805573124E-021
  -14.3700000000000         1.034011954968106E-021
  -14.1800000000000         8.552339217484544E-021
  -13.9900000000000         1.405196700425291E-020
  -13.8000000000000         1.572309864289152E-020
  -13.6100000000000         1.293523218001633E-020
  -13.4200000000000         6.396777620539909E-021
  -13.2300000000000        -2.104590177429825E-021
  -13.0400000000000        -1.028019199035572E-020
  -12.8500000000000        -1.603865332542942E-020
  -12.6600000000000        -1.809177045761325E-020
  -12.4700000000000        -1.630040707047771E-020
  -12.2800000000000        -1.166699820722167E-020
  -12.0900000000000        -5.981929048253739E-021
  -11.9000000000000        -1.237575735460186E-021
  -11.7100000000000         1.009192438183163E-021
  -11.5200000000000         1.338253221123286E-022
  -11.3300000000000        -3.359315482015897E-021
  -11.1400000000000        -8.016313637316372E-021
  -10.9500000000000        -1.193085043901663E-020
  -10.7600000000000        -1.337858885463443E-020
  -10.5700000000000        -1.137037947269500E-020
  -10.3800000000000        -5.955215574827588E-021
  -10.1900000000000         1.804463399107701E-021
  -10.0000000000000         1.015750874692001E-020
  -9.81000000000000         1.716845141465955E-020
  -9.62000000000000         2.124180176001064E-020
  -9.42999999999999         2.152888228402405E-020
  -9.23999999999999         1.812392406245598E-020
  -9.05000000000000         1.200128510446230E-020
  -8.86000000000000         4.710675260011433E-021
  -8.67000000000000        -2.075380575662051E-021
  -8.48000000000000        -7.023883315138815E-021
  -8.28999999999999        -9.482241220828304E-021
  -8.09999999999999        -9.602631136482458E-021
  -7.91000000000000        -8.215651545602579E-021
  -7.72000000000000        -6.504330289104970E-021
  -7.53000000000000        -5.597438523269197E-021
  -7.34000000000000        -6.209663978863722E-021
  -7.15000000000001        -8.424438814753772E-021
  -6.95999999999999        -1.167856369947254E-020
  -6.77000000000000        -1.495748420599982E-020
  -6.58000000000000        -1.713739274474295E-020
  -6.39000000000000        -1.735494570480334E-020
  -6.20000000000000        -1.528269335009250E-020
  -6.01000000000001        -1.122469996632976E-020
  -5.81999999999999        -6.004461411330362E-021
  -5.63000000000000        -6.944467922154585E-022
  -5.44000000000000         3.699656533497745E-021
  -5.25000000000000         6.488248328229267E-021
  -5.06000000000000         7.426493052149167E-021
  -4.87000000000000         6.721341068394862E-021
  -4.67999999999999         4.939854690844540E-021
  -4.48999999999999         2.854318402745237E-021
  -4.30000000000000         1.261507102302511E-021
  -4.11000000000000         8.001830134706658E-022
  -3.92000000000000         1.789720510659875E-021
  -3.73000000000000         4.135406753364345E-021
  -3.53999999999999         7.348048179280693E-021
  -3.34999999999999         1.067858748105839E-020
  -3.16000000000000         1.331621655310638E-020
  -2.97000000000000         1.458627852942391E-020
  -2.78000000000000         1.409836952109201E-020
  -2.59000000000000         1.181399042076779E-020
  -2.40000000000001         8.032801534436080E-021
  -2.20999999999999         3.324235207713030E-021
  -2.02000000000000        -1.573713727050105E-021
  -1.83000000000000        -5.888174716708591E-021
  -1.64000000000000        -8.970177306477706E-021
  -1.45000000000000        -1.044343297534149E-020
  -1.26000000000001        -1.030282093390547E-020
  -1.06999999999999        -8.937329776391408E-021
 -0.879999999999995        -7.059471243702023E-021
 -0.689999999999998        -5.535092476093685E-021
 -0.500000000000000        -5.144020891032108E-021
 -0.310000000000002        -6.335538936273005E-021
 -0.120000000000005        -9.046206837696435E-021
  7.000000000000739E-002   -1.264080109347629E-020
  0.260000000000005        -1.602865128430938E-020
  0.450000000000003        -1.796258791039528E-020
  0.640000000000001        -1.744352981368401E-020
  0.829999999999998        -1.409096716658983E-020
   1.02000000000000        -8.340214594513831E-021
   1.21000000000001        -1.377791476224464E-021
   1.40000000000001         5.188474331760222E-021
   1.59000000000000         9.821589309053954E-021
   1.78000000000000         1.153579272679809E-020
   1.97000000000000         1.020817430174738E-020
   2.16000000000000         6.638128469608859E-021
   2.34999999999999         2.337710639537004E-021
   2.54000000000001        -9.068825425835140E-022
   2.73000000000000        -1.591992063102002E-021
   2.92000000000000         9.934147847516368E-022
   3.11000000000000         6.465964898069552E-021
   3.30000000000000         1.336614122457075E-020
   3.48999999999999         1.952928077280744E-020
   3.68000000000001         2.272803794834461E-020
   3.87000000000000         2.138793158702025E-020
   4.06000000000000         1.513473017907297E-020
   4.25000000000000         4.990598064471725E-021
   4.44000000000000        -6.853539208673125E-021
   4.63000000000000        -1.763888289230533E-020
   4.82000000000001        -2.483944036683583E-020
   5.01000000000001        -2.691076820471162E-020
   5.20000000000000        -2.375204137141377E-020
   5.39000000000000        -1.673970809788942E-020
   5.58000000000000        -8.307381820251973E-021
   5.77000000000000        -1.176804061699346E-021
   5.96000000000001         2.521840661021428E-021
   6.15000000000001         1.937765421357890E-021
   6.34000000000000        -2.242480611359567E-021
   6.53000000000000        -8.048865266028307E-021