  -105.000000000000         0.000000000000000E+000
  -104.810000000000        -2.681165792579710E-020
  -104.620000000000        -7.393123421120044E-020
  -104.430000000000        -1.305373739243721E-019
  -104.240000000000        -1.845233784396690E-019
  -104.050000000000        -2.258676165347274E-019
  -103.860000000000        -2.493713536477562E-019
  -103.670000000000        -2.559772714423006E-019
  -103.480000000000        -2.522946789203387E-019
  -103.290000000000        -2.484788993617755E-019
  -103.100000000000        -2.550902470720317E-019
  -102.910000000000        -2.798527525615953E-019
  -102.720000000000        -3.252589451030485E-019
  -102.530000000000        -3.877183151040076E-019
  -102.340000000000        -4.584972061766244E-019
  -102.150000000000        -5.261776492976220E-019
  -101.960000000000        -5.799219130411171E-019
  -101.770000000000        -6.125949087767559E-019
  -101.580000000000        -6.228359114088732E-019
  -101.390000000000        -6.154739052139041E-019
  -101.200000000000        -6.001606552360044E-019
  -101.010000000000        -5.886135761432574E-019
  -100.820000000000        -5.912654612528696E-019
  -100.630000000000        -6.142911222788524E-019
  -100.440000000000        -6.578710101841219E-019
  -100.250000000000        -7.161915875673008E-019
  -100.060000000000        -7.791777096570365E-019
  -99.8700000000000        -8.354508640457129E-019
  -99.6800000000000        -8.756537806364445E-019
  -99.4900000000000        -8.951776778153244E-019
  -99.3000000000000        -8.955023496499933E-019
  -99.1100000000000        -8.837611681024868E-019
  -98.9200000000000        -8.706576140581597E-019
  -98.7300000000000        -8.673389272981489E-019
  -98.5400000000000        -8.821365312178112E-019
  -98.3500000000000        -9.181224146712373E-019
  -98.1600000000000        -9.721931945945078E-019
  -97.9700000000000        -1.035948383401428E-018
  -97.7800000000000        -1.098106899811850E-018
  -97.5900000000000        -1.147758860657250E-018
  -97.4000000000000        -1.177508084945468E-018
  -97.2100000000000        -1.185593751154030E-018
  -97.0200000000000        -1.176376519048194E-018
  -96.8300000000000        -1.159048730479095E-018
  -96.6400000000000        -1.144943292397231E-018
  -96.4500000000000        -1.144223033264893E-018
  -96.2600000000000        -1.162913385422756E-018
  -96.0700000000000        -1.201142491221935E-018
  -95.8800000000000        -1.253101950434411E-018
  -95.6900000000000        -1.308740306699853E-018
  -95.5000000000000        -1.356696424723352E-018
  -95.3100000000000        -1.387618820024297E-018
  -95.1200000000000        -1.396904976502181E-018
  -94.9300000000000        -1.386063589570511E-018
  -94.7400000000000        -1.362302465516824E-018
  -94.5500000000000        -1.336459224462414E-018
  -94.3600000000000        -1.319872580238875E-018
  -94.1700000000000        -1.321100389975269E-018
  -93.9800000000000        -1.343437438616544E-018
  -93.7900000000000        -1.383956286032900E-018
  -93.6000000000000        -1.434353557661320E-018
  -93.4100000000000        -1.483359175376161E-018
  -93.2200000000000        -1.520010463135019E-018
  -93.0300000000000        -1.536840696203239E-018
  -92.8400000000000        -1.532056577491107E-018
  -92.6500000000000        -1.510073366723964E-018
  -92.4600000000000        -1.480253117539085E-018
  -92.2700000000000        -1.454211646850438E-018
  -92.0800000000000        -1.442473204160420E-018
  -91.8900000000000        -1.451439811673501E-018
  -91.7000000000000        -1.481551290782865E-018
  -91.5100000000000        -1.527168045591902E-018
  -91.3200000000000        -1.578210053018634E-018
  -91.1300000000000        -1.623075733657998E-018
  -90.9400000000000        -1.651991747562272E-018
  -90.7500000000000        -1.659819007590284E-018
  -90.5600000000000        -1.647499104353049E-018
  -90.3700000000000        -1.621722614667264E-018
  -90.1800000000000        -1.592919796681078E-018
  -89.9900000000000        -1.572162934500839E-018
  -89.8000000000000        -1.567885663938409E-018
  -89.6100000000000        -1.583376705243624E-018
  -89.4200000000000        -1.615779395289767E-018
  -89.2300000000000        -1.656890487420463E-018
  -89.0400000000000        -1.695528821662641E-018
  -88.8500000000000        -1.720787927041622E-018
  -88.6600000000000        -1.725228909288282E-018
  -88.4700000000000        -1.707086552522428E-018
  -88.2800000000000        -1.670848148794967E-018
  -88.0900000000000        -1.626037554735028E-018
  -87.9000000000000        -1.584557725618282E-018
  -87.7100000000000        -1.557361150891674E-018
  -87.5200000000000        -1.551408623732466E-018
  -87.3300000000000        -1.567788978018700E-018
  -87.1400000000000        -1.601533408821792E-018
  -86.9500000000000        -1.643166920419958E-018
  -86.7600000000000        -1.681537900395792E-018
  -86.5700000000000        -1.707098901097007E-018
  -86.3800000000000        -1.714683572428970E-018
  -86.1900000000000        -1.704973880609039E-018
  -86.0000000000000        -1.684235393940137E-018
  -85.8100000000000        -1.662404762156434E-018
  -85.6200000000000        -1.650094275429623E-018
  -85.4300000000000        -1.655392643303715E-018
  -85.2400000000000        -1.681397463239624E-018
  -85.0500000000000        -1.725198431220542E-018
  -84.8600000000000        -1.778606430639256E-018
  -84.6700000000000        -1.830416914067297E-018
  -84.4800000000000        -1.869553281089999E-018
  -84.2900000000000        -1.888183856327948E-018
  -84.1000000000000        -1.883915584278562E-018
  -83.9100000000000        -1.860434911415866E-018
  -83.7200000000000        -1.826414569629764E-018
  -83.5300000000000        -1.793005422800154E-018
  -83.3400000000000        -1.770640708165130E-018
  -83.1500000000000        -1.766077192351626E-018
  -82.9600000000000        -1.780526499604636E-018
  -82.7700000000000        -1.809411462107921E-018
  -82.5800000000000        -1.843810209136793E-018
  -82.3900000000000        -1.873162189848945E-018
  -82.2000000000000        -1.888446416421738E-018
  -82.0100000000000        -1.884907140457846E-018
  -81.8200000000000        -1.863533970369937E-018
  -81.6300000000000        -1.830863754005801E-018
  -81.4400000000000        -1.797157025133251E-018
  -81.2500000000000        -1.773473128917944E-018
  -81.0600000000000        -1.768489107511566E-018
  -80.8700000000000        -1.785984219896144E-018
  -80.6800000000000        -1.823721293777085E-018
  -80.4900000000000        -1.874052772958587E-018
  -80.3000000000000        -1.926080367057813E-018
  -80.1100000000000        -1.968747560729273E-018
  -79.9200000000000        -1.993974210118869E-018
  -79.7300000000000        -1.998929642686627E-018
  -79.5400000000000        -1.986788038218042E-018
  -79.3500000000000        -1.965746182070864E-018
  -79.1600000000000        -1.946584532545285E-018
  -78.9700000000000        -1.939474801300955E-018
  -78.7800000000000        -1.950958700657665E-018
  -78.5900000000000        -1.981977211878326E-018
  -78.4000000000000        -2.027528507211805E-018
  -78.2100000000000        -2.078061423111909E-018
  -78.0200000000000        -2.122206855644320E-018
  -77.8300000000000        -2.150059130930273E-018
  -77.6400000000000        -2.156057526828087E-018
  -77.4500000000000        -2.140631653454750E-018
  -77.2600000000000        -2.110130055394857E-018
  -77.0700000000000        -2.075046431952466E-018
  -76.8800000000000        -2.047049817430690E-018
  -76.6900000000000        -2.035672131700554E-018
  -76.5000000000000        -2.045608218296516E-018
  -76.3100000000000        -2.075409607260590E-018
  -76.1200000000000        -2.117952361907928E-018
  -75.9300000000000        -2.162545644140961E-018
  -75.7400000000000        -2.198069663338906E-018
  -75.5500000000000        -2.216230139497642E-018
  -75.3600000000000        -2.213981353446251E-018
  -75.1700000000000        -2.194412268649502E-018
  -74.9800000000000        -2.165838679348260E-018
  -74.7900000000000        -2.139367151897908E-018
  -74.6000000000000        -2.125641080598914E-018
  -74.4100000000000        -2.131716749173164E-018
  -74.2200000000000        -2.158979898890816E-018
  -74.0300000000000        -2.202712087743415E-018
  -73.8400000000000        -2.253437424579369E-018
  -73.6500000000000        -2.299661881378162E-018
  -73.4600000000000        -2.331210172346654E-018
  -73.2700000000000        -2.342188808790500E-018
  -73.0800000000000        -2.332710643090443E-018
  -72.8900000000000        -2.308875289132649E-018
  -72.7000000000000        -2.281006921161217E-018
  -72.5100000000000        -2.260658414497604E-018
  -72.3200000000000        -2.257250452194671E-018
  -72.1300000000000        -2.275321161289709E-018
  -71.9400000000000        -2.313185035177179E-018
  -71.7500000000000        -2.363390657644465E-018
  -71.5600000000000        -2.414843872079677E-018
  -71.3700000000000        -2.455978998778342E-018
  -71.1800000000000        -2.478057048822471E-018
  -70.9900000000000        -2.477635177987693E-018
  -70.8000000000000        -2.457495684845833E-018
  -70.6100000000000        -2.425774228076957E-018
  -70.4200000000000        -2.393553014742087E-018
  -70.2300000000000        -2.371630205588856E-018
  -70.0400000000000        -2.367411012885339E-018
  -69.8500000000000        -2.382822776625700E-018
  -69.6600000000000        -2.413851947814271E-018
  -69.4700000000000        -2.451826246571797E-018
  -69.2800000000000        -2.486058097728081E-018
  -69.0900000000000        -2.507071405691493E-018
  -68.9000000000000        -2.509465558403287E-018
  -68.7100000000000        -2.493576811640774E-018
  -68.5200000000000        -2.465448369367361E-018
  -68.3300000000000        -2.435115486966297E-018
  -68.1400000000000        -2.413705599571805E-018
  -67.9500000000000        -2.410199915236651E-018
  -67.7600000000000        -2.428800733379205E-018
  -67.5700000000000        -2.467670922667186E-018
  -67.3800000000000        -2.519411793457791E-018
  -67.1900000000000        -2.573140289761786E-018
  -67.0000000000000        -2.617563506042487E-018
  -66.8100000000000        -2.644162299457876E-018
  -66.6200000000000        -2.649567630809062E-018
  -66.4300000000000        -2.636449282788917E-018
  -66.2400000000000        -2.612667390078745E-018
  -66.0500000000000        -2.588938250825102E-018
  -65.8600000000000        -2.575693044397210E-018
  -65.6700000000000        -2.580038997773268E-018
  -65.4800000000000        -2.603701145602017E-018
  -65.2900000000000        -2.642537712391503E-018
  -65.1000000000000        -2.687765317024451E-018
  -64.9100000000000        -2.728534836939499E-018
  -64.7200000000000        -2.755109295068922E-018
  -64.5300000000000        -2.761723052838995E-018
  -64.3400000000000        -2.748294241420080E-018
  -64.1500000000000        -2.720492442279756E-018
  -63.9600000000000        -2.688137672842694E-018
  -63.7700000000000        -2.662389671077364E-018
  -63.5800000000000        -2.652538841511399E-018
  -63.3900000000000        -2.663328635604566E-018
  -63.2000000000000        -2.693587246659737E-018
  -63.0100000000000        -2.736567192033645E-018
  -62.8200000000000        -2.781895516751846E-018
  -62.6300000000000        -2.818570343826811E-018
  -62.4400000000000        -2.838136521463670E-018
  -62.2500000000000        -2.837120479205127E-018
  -62.0600000000000        -2.818017245893391E-018
  -61.8700000000000        -2.788540792795593E-018
  -61.6800000000000        -2.759352154173012E-018
  -61.4900000000000        -2.740921962599817E-018
  -61.3000000000000        -2.740437022959157E-018
  -61.1100000000000        -2.759651449035992E-018
  -60.9200000000000        -2.794313425567116E-018
  -60.7300000000000        -2.835344722341921E-018
  -60.5400000000000        -2.871441672428886E-018
  -60.3500000000000        -2.892350925059203E-018
  -60.1600000000000        -2.891872802027491E-018
  -59.9700000000000        -2.869719682050408E-018
  -59.7800000000000        -2.831685962067306E-018
  -59.5900000000000        -2.788073512196542E-018
  -59.4000000000000        -2.750819874910374E-018
  -59.2100000000000        -2.730151273478355E-018
  -59.0200000000000        -2.731722497664757E-018
  -58.8300000000000        -2.755069641334695E-018
  -58.6400000000000        -2.793825093085206E-018
  -58.4500000000000        -2.837633605339426E-018
  -58.2600000000000        -2.875212603784134E-018
  -58.0700000000000        -2.897665522278754E-018
  -57.8800000000000        -2.901082833002775E-018
  -57.6900000000000        -2.887673612604531E-018
  -57.5000000000000        -2.865099538201405E-018
  -57.3100000000000        -2.844206995084486E-018
  -57.1200000000000        -2.835818947802832E-018
  -56.9300000000000        -2.847521799817829E-018
  -56.7400000000000        -2.881384323370429E-018
  -56.5500000000000        -2.933274696257109E-018
  -56.3600000000000        -2.993976884746386E-018
  -56.1700000000000        -3.051785292141294E-018
  -55.9800000000000        -3.095827991690875E-018
  -55.7900000000000        -3.119156513030378E-018
  -55.6000000000000        -3.120705510945559E-018
  -55.4100000000000        -3.105551938293817E-018
  -55.2200000000000        -3.083397380912876E-018
  -55.0300000000000        -3.065714640198383E-018
  -54.8400000000000        -3.062388384093704E-018
  -54.6500000000000        -3.078825889581793E-018
  -54.4600000000000        -3.114375482537065E-018
  -54.2700000000000        -3.162508857544454E-018
  -54.0800000000000        -3.212710972047910E-018
  -53.8900000000000        -3.253525898004725E-018
  -53.7000000000000        -3.275871461981420E-018
  -53.5100000000000        -3.275657968626373E-018
  -53.3200000000000        -3.254951492541036E-018
  -53.1300000000000        -3.221350122824950E-018
  -52.9400000000000        -3.185764080512275E-018
  -52.7500000000000        -3.159253051679794E-018
  -52.5600000000000        -3.149842824630382E-018
  -52.3700000000000        -3.160243192440922E-018
  -52.1800000000000        -3.187122710308852E-018
  -51.9900000000000        -3.222142300516108E-018
  -51.8000000000000        -3.254440779366347E-018
  -51.6100000000000        -3.273847253276977E-018
  -51.4200000000000        -3.273887326482159E-018
  -51.2300000000000        -3.253711674945983E-018
  -51.0400000000000        -3.218388800465445E-018
  -50.8500000000000        -3.177477975483335E-018
  -50.6600000000000        -3.142297010098553E-018
  -50.4700000000000        -3.122678954229718E-018
  -50.2800000000000        -3.124160905388601E-018
  -50.0900000000000        -3.146420810540171E-018
  -49.9000000000000        -3.183411391882114E-018
  -49.7100000000000        -3.225144083034624E-018
  -49.5200000000000        -3.260597376836162E-018
  -49.3300000000000        -3.280901899450082E-018
  -49.1400000000000        -3.281879809595359E-018
  -48.9500000000000        -3.265207968976815E-018
  -48.7600000000000        -3.237875574702295E-018
  -48.5700000000000        -3.210101221290377E-018
  -48.3800000000000        -3.192319605426627E-018
  -48.1900000000000        -3.192116000601896E-018
  -48.0000000000000        -3.211999256729527E-018
  -47.8100000000000        -3.248658209988663E-018
  -47.6200000000000        -3.293914989300802E-018
  -47.4300000000000        -3.337097310070881E-018
  -47.2400000000000        -3.368141165589088E-018
  -47.0500000000000        -3.380523068992152E-018
  -46.8600000000000        -3.373169366581452E-018
  -46.6700000000000        -3.350786029617132E-018
  -46.4800000000000        -3.322509912466372E-018
  -46.2900000000000        -3.299269307068418E-018
  -46.1000000000000        -3.290617314481673E-018
  -45.9100000000000        -3.301956793020562E-018
  -45.7200000000000        -3.332963851276193E-018
  -45.5300000000000        -3.377669476201246E-018
  -45.3400000000000        -3.426176913456800E-018
  -45.1500000000000        -3.467516517279845E-018
  -44.9600000000000        -3.492809343282593E-018
  -44.7700000000000        -3.497822569879606E-018
  -44.5800000000000        -3.484178185642017E-018
  -44.3900000000000        -3.458866713969658E-018
  -44.2000000000000        -3.432206264656907E-018
  -44.0100000000000        -3.414835100595013E-018
  -43.8200000000000        -3.414606107134977E-018
  -43.6300000000000        -3.434282699182904E-018
  -43.4400000000000        -3.470706991576090E-018
  -43.2500000000000        -3.515687165054157E-018
  -43.0600000000000        -3.558353334192418E-018
  -42.8700000000000        -3.588303455378130E-018
  -42.6800000000000        -3.598628178865103E-018
  -42.4900000000000        -3.587935654608268E-018
  -42.3000000000000        -3.560785671946423E-018
  -42.1100000000000        -3.526403127652595E-018
  -41.9200000000000        -3.496039924389050E-018
  -41.7300000000000        -3.479747198301998E-018
  -41.5400000000000        -3.483491892399420E-018
  -41.3500000000000        -3.507453218684638E-018
  -41.1600000000000        -3.545994504084277E-018
  -40.9700000000000        -3.589322076007532E-018
  -40.7800000000000        -3.626353528894139E-018
  -40.5900000000000        -3.647964465422121E-018
  -40.4000000000000        -3.649670111947495E-018
  -40.2100000000000        -3.632960456779208E-018
  -40.0200000000000        -3.604897466169841E-018
  -39.8300000000000        -3.576086733596792E-018
  -39.6400000000000        -3.557607506145185E-018
  -39.4500000000000        -3.557787809279780E-018
  -39.2600000000000        -3.579757846253407E-018
  -39.0700000000000        -3.620492052077616E-018
  -38.8800000000000        -3.671622207447337E-018
  -38.6900000000000        -3.721792812092997E-018
  -38.5000000000000        -3.759882259742619E-018
  -38.3100000000000        -3.778160126820223E-018
  -38.1200000000000        -3.774467447936185E-018
  -37.9300000000000        -3.752789156521797E-018
  -37.7400000000000        -3.722054135679523E-018
  -37.5500000000000        -3.693513301748394E-018
  -37.3600000000000        -3.677459357039085E-018
  -37.1700000000000        -3.680241696479513E-018
  -36.9800000000000        -3.702441403845591E-018
  -36.7900000000000        -3.738732144585612E-018
  -36.6000000000000        -3.779463022375036E-018
  -36.4100000000000        -3.813500798307123E-018
  -36.2200000000000        -3.831504739211036E-018
  -36.0300000000000        -3.828682485518109E-018
  -35.8400000000000        -3.806225609102736E-018
  -35.6500000000000        -3.771006186616148E-018
  -35.4600000000000        -3.733621168557639E-018
  -35.2700000000000        -3.705352789150423E-018
  -35.0800000000000        -3.694928902925275E-018
  -34.8900000000000        -3.706024082886705E-018
  -34.7000000000000        -3.736225324730651E-018
  -34.5100000000000        -3.777759969086250E-018
  -34.3200000000000        -3.819771841482070E-018
  -34.1300000000000        -3.851482654359447E-018
  -33.9400000000000        -3.865319736483210E-018
  -33.7500000000000        -3.859102242878007E-018
  -33.5600000000000        -3.836652389643824E-018
  -33.3700000000000        -3.806656408466725E-018
  -33.1800000000000        -3.780109210881520E-018
  -32.9900000000000        -3.767088730218833E-018
  -32.8000000000000        -3.773799954913379E-018
  -32.6100000000000        -3.800748567695698E-018
  -32.4200000000000        -3.842574096689247E-018
  -32.2300000000000        -3.889589163530940E-018
  -32.0400000000000        -3.930575853430671E-018
  -31.8500000000000        -3.956026823319070E-018
  -31.6600000000000        -3.960891846313723E-018
  -31.4700000000000        -3.946034456246178E-018
  -31.2800000000000        -3.917975719367990E-018
  -31.0900000000000        -3.886997075443753E-018
  -30.9000000000000        -3.864150398807191E-018
  -30.7100000000000        -3.858042694206243E-018
  -30.5200000000000        -3.872330730492640E-018
  -30.3300000000000        -3.904655945550285E-018
  -30.1400000000000        -3.947330759894194E-018
  -29.9500000000000        -3.989576478618287E-018
  -29.7600000000000        -4.020660810995811E-018
  -29.5700000000000        -4.033022458074415E-018
  -29.3800000000000        -4.024475914730155E-018
  -29.1900000000000        -3.998857966367686E-018
  -29.0000000000000        -3.964929606321484E-018
  -28.8100000000000        -3.933852231653085E-018
  -28.6200000000000        -3.915968886641782E-018
  -28.4300000000000        -3.917821572173445E-018
  -28.2400000000000        -3.940267463980109E-018
  -28.0500000000000        -3.978239894677003E-018
  -27.8600000000000        -4.022224343876499E-018
  -27.6700000000000        -4.061022404805394E-018
  -27.4800000000000        -4.085002784775620E-018
  -27.2900000000000        -4.088897163840226E-018
  -27.1000000000000        -4.073330855552493E-018
  -26.9100000000000        -4.044644799650157E-018
  -26.7200000000000        -4.013060135996217E-018
  -26.5300000000000        -3.989716395382160E-018
  -26.3400000000000        -3.983440801242278E-018
  -26.1500000000000        -3.998185240587403E-018
  -25.9600000000000        -4.031875445565976E-018
  -25.7700000000000        -4.077007629695528E-018
  -25.5800000000000        -4.122819348623769E-018
  -25.3900000000000        -4.158402932192331E-018
  -25.2000000000000        -4.175856362478412E-018
  -25.0100000000000        -4.172557345277652E-018
  -24.8200000000000        -4.151903030779525E-018
  -24.6300000000000        -4.122304685855472E-018
  -24.4400000000000        -4.094732721496052E-018
  -24.2500000000000        -4.079525397872324E-018
  -24.0600000000000        -4.083384455157770E-018
  -23.8700000000000        -4.107424809806149E-018
  -23.6800000000000        -4.146841146043616E-018
  -23.4900000000000        -4.192288798147478E-018
  -23.3000000000000        -4.232582053575140E-018
  -23.1100000000000        -4.257931149246986E-018
  -22.9200000000000        -4.262780522798296E-018
  -22.7300000000000        -4.247423662757259E-018
  -22.5400000000000        -4.217924104665666E-018
  -22.3500000000000        -4.184365141016336E-018
  -22.1600000000000        -4.157937313602761E-018
  -21.9700000000000        -4.147709937216026E-018
  -21.7800000000000        -4.158023578930022E-018
  -21.5900000000000        -4.187259397173591E-018
  -21.4000000000000        -4.228340918347854E-018
  -21.2100000000000        -4.270819870953100E-018
  -21.0200000000000        -4.303936799097261E-018
  -20.8300000000000        -4.319764042215048E-018
  -20.6400000000000        -4.315515923046714E-018
  -20.4500000000000        -4.294354910139785E-018
  -20.2600000000000        -4.264461339774057E-018
  -20.0700000000000        -4.236639545168200E-018
  -19.8800000000000        -4.221158062516804E-018
  -19.6900000000000        -4.224743368540496E-018
  -19.5000000000000        -4.248601579595172E-018
  -19.3100000000000        -4.288043914537855E-018
  -19.1200000000000        -4.333826535167784E-018
  -18.9300000000000        -4.374818825240586E-018
  -18.7400000000000        -4.401228950782638E-018
  -18.5500000000000        -4.407451263979234E-018
  -18.3600000000000        -4.393704676251964E-018
  -18.1700000000000        -4.365977897897345E-018
  -17.9800000000000        -4.334289625097554E-018
  -17.7900000000000        -4.309766514934935E-018
  -17.6000000000000        -4.301391565099408E-018
  -17.4100000000000        -4.313374338626785E-018
  -17.2200000000000        -4.343912337149620E-018
  -17.0300000000000        -4.385705025459664E-018
  -16.8400000000000        -4.428070340129749E-018
  -16.6500000000000        -4.460047692607929E-018
  -16.4600000000000        -4.473585515704421E-018
  -16.2700000000000        -4.465887113686300E-018
  -16.0800000000000        -4.440233010770975E-018
  -15.8900000000000        -4.405040258345855E-018
  -15.7000000000000        -4.371430397484492E-018
  -15.5100000000000        -4.350009725428012E-018
  -15.3200000000000        -4.347794045118266E-018
  -15.1300000000000        -4.366169679153475E-018
  -14.9400000000000        -4.400484092680355E-018
  -14.7500000000000        -4.441387984993099E-018
  -14.5600000000000        -4.477542280420099E-018
  -14.3700000000000        -4.498906255505835E-018
  -14.1800000000000        -4.499653371485713E-018
  -13.9900000000000        -4.479868726336611E-018
  -13.8000000000000        -4.445534748794058E-018
  -13.6100000000000        -4.406807558703900E-018
  -13.4200000000000        -4.375082774763114E-018
  -13.2300000000000        -4.359703319273154E-018
  -13.0400000000000        -4.365268588420103E-018
  -12.8500000000000        -4.390329888448365E-018
  -12.6600000000000        -4.427850634150727E-018
  -12.4700000000000        -4.467292131703451E-018
  -12.2800000000000        -4.497711451181623E-018
  -12.0900000000000        -4.510966638042594E-018
  -11.9000000000000        -4.504098942551039E-018
  -11.7100000000000        -4.480205358852377E-018
  -11.5200000000000        -4.447554186808038E-018
  -11.3300000000000        -4.417204192345336E-018
  -11.1400000000000        -4.399818735503045E-018
  -10.9500000000000        -4.402596600907813E-018
  -10.7600000000000        -4.427205230835809E-018
  -10.5700000000000        -4.469310615392741E-018
  -10.3800000000000        -4.519835846882193E-018
  -10.1900000000000        -4.567580582942589E-018
  -10.0000000000000        -4.602440410623434E-018
  -9.81000000000000        -4.618292523382345E-018
  -9.62000000000000        -4.614713136126263E-018
  -9.42999999999999        -4.597034037122313E-018
  -9.23999999999999        -4.574729987488903E-018
  -9.05000000000000        -4.558612981681520E-018
  -8.86000000000000        -4.557652659077004E-018
  -8.67000000000000        -4.576346230810361E-018
  -8.48000000000000        -4.613397985044199E-018
  -8.28999999999999        -4.662085934995477E-018
  -8.09999999999999        -4.712202075949625E-018
  -7.91000000000000        -4.752995835283247E-018
  -7.72000000000000        -4.776261826061616E-018
  -7.53000000000000        -4.778677314556727E-018
  -7.34000000000000        -4.762719744318142E-018
  -7.15000000000001        -4.735910500113491E-018
  -6.95999999999999        -4.708614301259345E-018
  -6.77000000000000        -4.691034961005544E-018
  -6.58000000000000        -4.690272621058647E-018
  -6.39000000000000        -4.708284667063461E-018
  -6.20000000000000        -4.741331339020903E-018
  -6.01000000000001        -4.781061970663857E-018
  -5.81999999999999        -4.816928501210083E-018
  -5.63000000000000        -4.839232218232885E-018
  -5.44000000000000        -4.841926581975753E-018
  -5.25000000000000        -4.824367271788799E-018
  -5.06000000000000        -4.791502861809878E-018
  -4.87000000000000        -4.752450423899291E-018
  -4.67999999999999        -4.717869215865689E-018
  -4.48999999999999        -4.696894557630136E-018
  -4.30000000000000        -4.694520577526365E-018
  -4.11000000000000        -4.710188997961200E-018
  -3.92000000000000        -4.737991433445050E-018
  -3.73000000000000        -4.768426730571869E-018
  -3.53999999999999        -4.791206761532421E-018
  -3.34999999999999        -4.798301866024863E-018
  -3.16000000000000        -4.786346747655055E-018
  -2.97000000000000        -4.757709144668421E-018
  -2.78000000000000        -4.719905777419870E-018
  -2.59000000000000        -4.683524008908827E-018
  -2.40000000000001        -4.659237328866947E-018
  -2.20999999999999        -4.654765082490849E-018
  -2.02000000000000        -4.672647351780516E-018
  -1.83000000000000        -4.709478491717880E-018
  -1.64000000000000        -4.756830486996806E-018
  -1.45000000000000        -4.803615334275140E-018
  -1.26000000000001        -4.839220501612274E-018
  -1.06999999999999        -4.856522269811366E-018
 -0.879999999999995        -4.853906586719499E-018
 -0.689999999999998        -4.835703755192258E-018
 -0.500000000000000        -4.810897356206100E-018
 -0.310000000000002        -4.790470065926268E-018
 -0.120000000000005        -4.784151675180223E-018
  7.000000000000739E-002   -4.797516460900717E-018
  0.260000000000005        -4.830281481545984E-018
  0.450000000000003        -4.876310525174245E-018
  0.640000000000001        -4.925332148373634E-018
  0.829999999999998        -4.965880725185188E-018
   1.02000000000000        -4.988612002568284E-018
   1.21000000000001        -4.989031595069981E-018
   1.40000000000001        -4.968838906379943E-018
   1.59000000000000        -4.935485227808439E-018
   1.78000000000000        -4.900061051355443E-018
   1.97000000000000        -4.874114803284276E-018
   2.16000000000000        -4.866321048582782E-018
   2.34999999999999        -4.879967375005417E-018
   2.54000000000001        -4.911997818223953E-018
   2.73000000000000        -4.953900956341386E-018
   2.92000000000000        -4.994192551930416E-018
   3.11000000000000        -5.021773902666269E-018
   3.30000000000000        -5.029186386130122E-018
   3.48999999999999        -5.014808050609651E-018
   3.68000000000001        -4.983344241669132E-018
   3.87000000000000        -4.944462957668107E-018
   4.06000000000000        -4.909970829664290E-018
   4.25000000000000        -4.890357061039290E-018
   4.44000000000000        -4.891722734023789E-018
   4.63000000000000        -4.914002789812618E-018
   4.82000000000001        -4.951006713481511E-018
   5.01000000000001        -4.992264089510507E-018
   5.20000000000000        -5.026126126169106E-018
   5.39000000000000        -5.043205163155526E-018
   5.58000000000000        -5.039139199628864E-018
   5.77000000000000        -5.015872368903990E-018
   5.96000000000001        -4.981081879805695E-018
   6.15000000000001        -4.945926217440205E-018
   6.34000000000000        -4.921779108993876E-018
   6.53000000000000        -4.916907834034013E-018