  -105.000000000000        -7.427052057007508E-019
  -104.810000000000        -5.625462149475414E-019
  -104.620000000000        -2.627856905198982E-019
  -104.430000000000         7.257992237880349E-020
  -104.240000000000         3.501874354636685E-019
  -104.050000000000         4.941967031033145E-019
  -103.860000000000         4.680836376311475E-019
  -103.670000000000         2.850002857757944E-019
  -103.480000000000         3.689391595605314E-021
  -103.290000000000        -2.888400905490111E-019
  -103.100000000000        -5.028021545514551E-019
  -102.910000000000        -5.718472867559430E-019
  -102.720000000000        -4.723871872439295E-019
  -102.530000000000        -2.304576474143450E-019
  -102.340000000000         8.582958314734835E-020
  -102.150000000000         3.860437500693206E-019
  -101.960000000000         5.836916345666606E-019
  -101.770000000000         6.213848505130577E-019
  -101.580000000000         4.876179730494828E-019
  -101.390000000000         2.202560604689902E-019
  -101.200000000000        -1.043260633006206E-019
  -101.010000000000        -3.933231080986006E-019
  -100.820000000000        -5.643705239991791E-019
  -100.630000000000        -5.693691656312139E-019
  -100.440000000000        -4.083293484185460E-019
  -100.250000000000        -1.292394655555889E-019
  -100.060000000000         1.859547839628653E-019
  -99.8700000000000         4.451589417713193E-019
  -99.6800000000000         5.728260224889632E-019
  -99.4900000000000         5.318344970695727E-019
  -99.3000000000000         3.342341657112089E-019
  -99.1100000000000         3.773885032746606E-020
  -98.9200000000000        -2.710489552442371E-019
  -98.7300000000000        -5.018363069161471E-019
  -98.5400000000000        -5.869329510737913E-019
  -98.3500000000000        -5.009666612145259E-019
  -98.1600000000000        -2.682661740623137E-019
  -97.9700000000000         4.422915225757517E-020
  -97.7800000000000         3.464419824105542E-019
  -97.5900000000000         5.513223423042452E-019
  -97.4000000000000         6.000985617633041E-019
  -97.2100000000000         4.793046624486989E-019
  -97.0200000000000         2.246691541069998E-019
  -96.8300000000000        -8.926178635000438E-020
  -96.6400000000000        -3.707805803192660E-019
  -96.4500000000000        -5.376900634404666E-019
  -96.2600000000000        -5.412397130558566E-019
  -96.0700000000000        -3.803421998142804E-019
  -95.8800000000000        -1.019085056223716E-019
  -95.6900000000000         2.128043834333173E-019
  -95.5000000000000         4.718482748630105E-019
  -95.3100000000000         5.993417956526896E-019
  -95.1200000000000         5.575496789349733E-019
  -94.9300000000000         3.578874549035155E-019
  -94.7400000000000         5.767637121119035E-020
  -94.5500000000000        -2.564154246778956E-019
  -94.3600000000000        -4.934751789455101E-019
  -94.1700000000000        -5.847434599689666E-019
  -93.9800000000000        -5.036509355978553E-019
  -93.7900000000000        -2.736405598909491E-019
  -93.6000000000000         3.854996990524589E-020
  -93.4100000000000         3.422252065369167E-019
  -93.2200000000000         5.490596867212701E-019
  -93.0300000000000         5.987355063809546E-019
  -92.8400000000000         4.764291427980487E-019
  -92.6500000000000         2.170924769456511E-019
  -92.4600000000000        -1.046753046047881E-019
  -92.2700000000000        -3.962057617348983E-019
  -92.0800000000000        -5.735470970387176E-019
  -91.8900000000000        -5.857305151325259E-019
  -91.7000000000000        -4.295090221515825E-019
  -91.5100000000000        -1.502840060303500E-019
  -91.3200000000000         1.710893846916416E-019
  -91.1300000000000         4.418190231326786E-019
  -90.9400000000000         5.841760076526990E-019
  -90.7500000000000         5.580931652423125E-019
  -90.5600000000000         3.727586273836436E-019
  -90.3700000000000         8.383180887536626E-020
  -90.1800000000000        -2.228796622145963E-019
  -89.9900000000000        -4.564983827647861E-019
  -89.8000000000000        -5.475986666937790E-019
  -89.6100000000000        -4.684667241254090E-019
  -89.4200000000000        -2.412299746413730E-019
  -89.2300000000000         6.849744843541286E-020
  -89.0400000000000         3.706157579832644E-019
  -88.8500000000000         5.766793111446496E-019
  -88.6600000000000         6.255772579643956E-019
  -88.4700000000000         5.012755391026670E-019
  -88.2800000000000         2.374567959135144E-019
  -88.0900000000000        -9.226495687513793E-020
  -87.9000000000000        -3.956580163473137E-019
  -87.7100000000000        -5.884777719501457E-019
  -87.5200000000000        -6.186393752200113E-019
  -87.3300000000000        -4.809993494974582E-019
  -87.1400000000000        -2.185340940463521E-019
  -86.9500000000000         9.037483718372552E-020
  -86.7600000000000         3.548470713190448E-019
  -86.5700000000000         4.979592623061733E-019
  -86.3800000000000         4.790682313544092E-019
  -86.1900000000000         3.055067825199616E-019
  -86.0000000000000         3.025332727982812E-020
  -85.8100000000000        -2.637159295538070E-019
  -85.6200000000000        -4.877799058421687E-019
  -85.4300000000000        -5.735859296902727E-019
  -85.2400000000000        -4.929680898893931E-019
  -85.0500000000000        -2.661227545096210E-019
  -84.8600000000000         4.425252051725279E-020
  -84.6700000000000         3.510835569346449E-019
  -84.4800000000000         5.680274732618068E-019
  -84.2900000000000         6.343170993721784E-019
  -84.1000000000000         5.321994685127556E-019
  -83.9100000000000         2.919575879059728E-019
  -83.7200000000000        -1.693060821309467E-020
  -83.5300000000000        -3.059399499885082E-019
  -83.3400000000000        -4.931080005961338E-019
  -83.1500000000000        -5.266709990723961E-019
  -82.9600000000000        -3.998796468220362E-019
  -82.7700000000000        -1.527364134511612E-019
  -82.5800000000000         1.397996209617991E-019
  -82.3900000000000         3.896884803146356E-019
  -82.2000000000000         5.214266630660651E-019
  -82.0100000000000         4.940136876458968E-019
  -81.8200000000000         3.129375699786066E-019
  -81.6300000000000         2.871225785077723E-020
  -81.4400000000000        -2.776407938294460E-019
  -81.2500000000000        -5.180020722694876E-019
  -81.0600000000000        -6.226906867300779E-019
  -80.8700000000000        -5.607191550239133E-019
  -80.6800000000000        -3.488754930903481E-019
  -80.4900000000000        -4.698379273474449E-020
  -80.3000000000000         2.592908705752821E-019
  -80.1100000000000         4.831175701346990E-019
  -79.9200000000000         5.615295518514920E-019
  -79.7300000000000         4.736021339707087E-019
  -79.5400000000000         2.465443678280772E-019
  -79.3500000000000        -5.208328591691287E-020
  -79.1600000000000        -3.338481518351137E-019
  -78.9700000000000        -5.150590194194116E-019
  -78.7800000000000        -5.411249823809071E-019
  -78.5900000000000        -4.025701970309746E-019
  -78.4000000000000        -1.379950295463733E-019
  -78.2100000000000         1.769385974429882E-019
  -78.0200000000000         4.513339957468132E-019
  -77.8300000000000         6.053706201699801E-019
  -77.6400000000000         5.934700629128113E-019
  -77.4500000000000         4.176101021206530E-019
  -77.2600000000000         1.269259108725226E-019
  -77.0700000000000        -1.963160365821358E-019
  -76.8800000000000        -4.603581382725697E-019
  -76.6900000000000        -5.904092057090874E-019
  -76.5000000000000        -5.502853841582128E-019
  -76.3100000000000        -3.529464178189705E-019
  -76.1200000000000        -5.680131816328996E-020
  -75.9300000000000         2.512261228556233E-019
  -75.7400000000000         4.809845717232385E-019
  -75.5500000000000         5.653535238262578E-019
  -75.3600000000000         4.797866688464403E-019
  -75.1700000000000         2.494322577422110E-019
  -74.9800000000000        -5.822886013543227E-020
  -74.7900000000000        -3.530597271844704E-019
  -74.6000000000000        -5.485246502283401E-019
  -74.4100000000000        -5.869108349973095E-019
  -74.2200000000000        -4.562060702201056E-019
  -74.0300000000000        -1.937160106192729E-019
  -73.8400000000000         1.246781173728607E-019
  -73.6500000000000         4.065419897590614E-019
  -73.4600000000000         5.697965242283947E-019
  -73.2700000000000         5.666704194987310E-019
  -73.0800000000000         3.977060459206680E-019
  -72.8900000000000         1.117178397129560E-019
  -72.7000000000000        -2.083064074187872E-019
  -72.5100000000000        -4.692671568055282E-019
  -72.3200000000000        -5.949770470352427E-019
  -72.1300000000000        -5.482871133637544E-019
  -71.9400000000000        -3.418766919616538E-019
  -71.7500000000000        -3.455933429159024E-020
  -71.5600000000000         2.858196048905222E-019
  -71.3700000000000         5.278968602364371E-019
  -71.1800000000000         6.232665063409249E-019
  -70.9900000000000         5.461945237418509E-019
  -70.8000000000000         3.208300173688683E-019
  -70.6100000000000         1.384367218824303E-020
  -70.4200000000000        -2.852743540620621E-019
  -70.2300000000000        -4.904048878036815E-019
  -70.0400000000000        -5.437938073096728E-019
  -69.8500000000000        -4.326151647703227E-019
  -69.6600000000000        -1.923858052342563E-019
  -69.4700000000000         1.036689086216852E-019
  -69.2800000000000         3.661646313815074E-019
  -69.0900000000000         5.157660734520187E-019
  -68.9000000000000         5.064515089835667E-019
  -68.7100000000000         3.390497371440466E-019
  -68.5200000000000         6.106482348060389E-020
  -68.3300000000000        -2.471743769133079E-019
  -68.1400000000000        -4.959613035827921E-019
  -67.9500000000000        -6.123684896871822E-019
  -67.7600000000000        -5.614784250810852E-019
  -67.5700000000000        -3.565285734798904E-019
  -67.3800000000000        -5.505887848725443E-020
  -67.1900000000000         2.577639895649184E-019
  -67.0000000000000         4.937513259089069E-019
  -66.8100000000000         5.870765114737928E-019
  -66.6200000000000         5.131213122252228E-019
  -66.4300000000000         2.953890495852453E-019
  -66.2400000000000        -1.461314585307312E-021
  -66.0500000000000        -2.904136516828258E-019
  -65.8600000000000        -4.872897452617907E-019
  -65.6700000000000        -5.350746385787104E-019
  -65.4800000000000        -4.203440155328667E-019
  -65.2900000000000        -1.770370593756839E-019
  -65.1000000000000         1.234926514653779E-019
  -64.9100000000000         3.932150079120410E-019
  -64.7200000000000         5.529279877936260E-019
  -64.5300000000000         5.551958224096937E-019
  -64.3400000000000         3.981437041941096E-019
  -64.1500000000000         1.261210608514710E-019
  -63.9600000000000        -1.830129548956162E-019
  -63.7700000000000        -4.403648808688509E-019
  -63.5800000000000        -5.717624282307814E-019
  -63.3900000000000        -5.393024089198211E-019
  -63.2000000000000        -3.523915323749413E-019
  -63.0100000000000        -6.505205939872635E-020
  -62.8200000000000         2.397090759899456E-019
  -62.6300000000000         4.739238071497219E-019
  -62.4400000000000         5.701445954404967E-019
  -62.2500000000000         5.010302230801676E-019
  -62.0600000000000         2.873468084781548E-019
  -61.8700000000000        -7.972700144487337E-021
  -61.6800000000000        -2.980179238057641E-019
  -61.4900000000000        -4.970983914829174E-019
  -61.3000000000000        -5.456888010386935E-019
  -61.1100000000000        -4.279099848832798E-019
  -60.9200000000000        -1.764354638139326E-019
  -60.7300000000000         1.366855038183079E-019
  -60.5400000000000         4.207118409043713E-019
  -60.3500000000000         5.924480792805648E-019
  -60.1600000000000         6.004154278496441E-019
  -59.9700000000000         4.399058173412100E-019
  -59.7800000000000         1.545354539518962E-019
  -59.5900000000000        -1.761443929250996E-019
  -59.4000000000000        -4.594192757382437E-019
  -59.2100000000000        -6.160616514797429E-019
  -59.0200000000000        -6.032110660259491E-019
  -58.8300000000000        -4.268229385200690E-019
  -58.6400000000000        -1.399739751719703E-019
  -58.4500000000000         1.725627094047746E-019
  -58.2600000000000         4.190049847669781E-019
  -58.0700000000000         5.273021543102068E-019
  -57.8800000000000         4.661088953536322E-019
  -57.6900000000000         2.538740721573735E-019
  -57.5000000000000        -4.657981402237358E-020
  -57.3100000000000        -3.463849261845963E-019
  -57.1200000000000        -5.565346065554428E-019
  -56.9300000000000        -6.138413168311038E-019
  -56.7400000000000        -4.993864081462714E-019
  -56.5500000000000        -2.440946150303527E-019
  -56.3600000000000         8.016014111821137E-020
  -56.1700000000000         3.813215469619814E-019
  -55.9800000000000         5.737999504177056E-019
  -55.7900000000000         6.033108981806355E-019
  -55.6000000000000         4.626750849563071E-019
  -55.4100000000000         1.939330949916746E-019
  -55.2200000000000        -1.238730378517705E-019
  -55.0300000000000        -3.976865542884530E-019
  -54.8400000000000        -5.474726202982508E-019
  -54.6500000000000        -5.294207054621661E-019
  -54.4600000000000        -3.485812202802692E-019
  -54.2700000000000        -5.730580321513051E-020
  -54.0800000000000         2.600329237296276E-019
  -53.8900000000000         5.116166753496415E-019
  -53.7000000000000         6.249046352282920E-019
  -53.5100000000000         5.676726518085703E-019
  -53.3200000000000         3.571992695498640E-019
  -53.1300000000000         5.497708023791046E-020
  -52.9400000000000        -2.513854149638195E-019
  -52.7500000000000        -4.737064205836024E-019
  -52.5600000000000        -5.487699407189506E-019
  -52.3700000000000        -4.564861511742320E-019
  -52.1800000000000        -2.254867684023674E-019
  -51.9900000000000         7.537704590077036E-020
  -51.8000000000000         3.571192504046737E-019
  -51.6100000000000         5.364653935026955E-019
  -51.4200000000000         5.599923751068798E-019
  -51.2300000000000         4.195906632787071E-019
  -51.0400000000000         1.547908726197504E-019
  -50.8500000000000        -1.587218725021911E-019
  -50.6600000000000        -4.311055267575081E-019
  -50.4700000000000        -5.844877292996765E-019
  -50.2800000000000        -5.755665925951912E-019
  -50.0900000000000        -4.080519720325049E-019
  -49.9000000000000        -1.313603825641943E-019
  -49.7100000000000         1.739445249576646E-019
  -49.5200000000000         4.196335509036173E-019
  -49.3300000000000         5.353632262781090E-019
  -49.1400000000000         4.889127635407913E-019
  -48.9500000000000         2.953061954563777E-019
  -48.7600000000000         1.224263538502416E-020
  -48.5700000000000        -2.768071342983038E-019
  -48.3800000000000        -4.869255135462215E-019
  -48.1900000000000        -5.564227410626647E-019
  -48.0000000000000        -4.647007515652746E-019
  -47.8100000000000        -2.381669266759510E-019
  -47.6200000000000         5.746422554186667E-020
  -47.4300000000000         3.362455748440610E-019
  -47.2400000000000         5.169515821369280E-019
  -47.0500000000000         5.466926818217193E-019
  -46.8600000000000         4.163333671362969E-019
  -46.6700000000000         1.632349082116244E-019
  -46.4800000000000        -1.394878601885694E-019
  -46.2900000000000        -4.041166983714044E-019
  -46.1000000000000        -5.537803635909625E-019
  -45.9100000000000        -5.448083024028129E-019
  -45.7200000000000        -3.794616805934599E-019
  -45.5300000000000        -1.053133609556853E-019
  -45.3400000000000         1.985549427288058E-019
  -45.1500000000000         4.445090808946399E-019
  -44.9600000000000         5.617617563915569E-019
  -44.7700000000000         5.168313250581999E-019
  -44.5800000000000         3.231880175836664E-019
  -44.3900000000000         3.736780167294334E-020
  -44.2000000000000        -2.573209210763538E-019
  -44.0100000000000        -4.748523712426676E-019
  -43.8200000000000        -5.514012606083893E-019
  -43.6300000000000        -4.639252173201380E-019
  -43.4400000000000        -2.370050162017024E-019
  -43.2500000000000         6.409984320786464E-020
  -43.0600000000000         3.522450956385023E-019
  -42.8700000000000         5.436398254498273E-019
  -42.6800000000000         5.821952283603966E-019
  -42.4900000000000         4.558852743769513E-019
  -42.3000000000000         2.003479676449302E-019
  -42.1100000000000        -1.113390867113761E-019
  -41.9200000000000        -3.897639107062181E-019
  -41.7300000000000        -5.550531907056509E-019
  -41.5400000000000        -5.600175121272952E-019
  -41.3500000000000        -4.038769837789728E-019
  -41.1600000000000        -1.325841142276219E-019
  -40.9700000000000         1.744077295470662E-019
  -40.7800000000000         4.271611179674367E-019
  -40.5900000000000         5.513930748645003E-019
  -40.4000000000000         5.101191604892107E-019
  -40.2100000000000         3.144968266227494E-019
  -40.0200000000000         2.071307378613771E-020
  -39.8300000000000        -2.861912776022139E-019
  -39.6400000000000        -5.168845037729051E-019
  -39.4500000000000        -6.035937351532833E-019
  -39.2600000000000        -5.197830706532116E-019
  -39.0700000000000        -2.879764417039321E-019
  -38.8800000000000         2.658035246704160E-020
  -38.6900000000000         3.346580885329451E-019
  -38.5000000000000         5.487972457621993E-019
  -38.3100000000000         6.086023812089741E-019
  -38.1200000000000         4.982164135831230E-019
  -37.9300000000000         2.508789315203490E-019
  -37.7400000000000        -6.078080086270806E-020
  -37.5500000000000        -3.458972083607024E-019
  -37.3600000000000        -5.217807243693940E-019
  -37.1700000000000        -5.378772278573882E-019
  -36.9800000000000        -3.903333344582461E-019
  -36.7900000000000        -1.229954861330361E-019
  -36.6000000000000         1.854044835827123E-019
  -36.4100000000000         4.441505547971040E-019
  -36.2200000000000         5.769028974193855E-019
  -36.0300000000000         5.438953662727309E-019
  -35.8400000000000         3.535331321666337E-019
  -35.6500000000000         5.998879700609905E-020
  -35.4600000000000        -2.525384667948381E-019
  -35.2700000000000        -4.943072903619434E-019
  -35.0800000000000        -5.960960162487029E-019
  -34.8900000000000        -5.292537917594980E-019
  -34.7000000000000        -3.139446679127882E-019
  -34.5100000000000        -1.321961330252841E-020
  -34.3200000000000         2.853479090981921E-019
  -34.1300000000000         4.951171953908786E-019
  -33.9400000000000         5.555284135448246E-019
  -33.7500000000000         4.496498512182689E-019
  -33.5600000000000         2.090340150392353E-019
  -33.3700000000000        -9.553417152063129E-020
  -33.1800000000000        -3.747012997927177E-019
  -32.9900000000000        -5.465846359344656E-019
  -32.8000000000000        -5.605924678052828E-019
  -32.6100000000000        -4.121029421393791E-019
  -32.4200000000000        -1.437545110289478E-019
  -32.2300000000000         1.669910510239092E-019
  -32.0400000000000         4.303523548845466E-019
  -31.8500000000000         5.702478363918553E-019
  -31.6600000000000         5.463272316398040E-019
  -31.4700000000000         3.656882773031577E-019
  -31.2800000000000         8.088385169114986E-020
  -31.0900000000000        -2.252622517362330E-019
  -30.9000000000000        -4.636834358895018E-019
  -30.7100000000000        -5.649789719486839E-019
  -30.5200000000000        -4.996448413087874E-019
  -30.3300000000000        -2.866925010045467E-019
  -30.1400000000000         1.188630525806643E-020
  -29.9500000000000         3.091796771902530E-019
  -29.7600000000000         5.186339417984058E-019
  -29.5700000000000         5.791742499407991E-019
  -29.3800000000000         4.728921057675062E-019
  -29.1900000000000         2.302053097987514E-019
  -29.0000000000000        -7.897466420505048E-020
  -28.8100000000000        -3.654855860692157E-019
  -28.6200000000000        -5.467044471735074E-019
  -28.4300000000000        -5.704489272853309E-019
  -28.2400000000000        -4.300980302003227E-019
  -28.0500000000000        -1.665379086592824E-019
  -27.8600000000000         1.436672651135109E-019
  -27.6700000000000         4.104620764174819E-019
  -27.4800000000000         5.563989170531727E-019
  -27.2900000000000         5.390772119761461E-019
  -27.1000000000000         3.634279117618836E-019
  -26.9100000000000         8.029384353470742E-020
  -26.7200000000000        -2.282804166172805E-019
  -26.5300000000000        -4.728018413898231E-019
  -26.3400000000000        -5.822723957066151E-019
  -26.1500000000000        -5.248134524500644E-019
  -25.9600000000000        -3.169523310520296E-019
  -25.7700000000000        -1.882367863406402E-020
  -25.5800000000000         2.833278492985824E-019
  -25.3900000000000         5.022203125340730E-019
  -25.2000000000000         5.748600411867847E-019
  -25.0100000000000         4.807561578217662E-019
  -24.8200000000000         2.477570755104054E-019
  -24.6300000000000        -5.613242561304436E-020
  -24.4400000000000        -3.425108237034089E-019
  -24.2500000000000        -5.281545958220287E-019
  -24.0600000000000        -5.590387081144279E-019
  -23.8700000000000        -4.259274678418409E-019
  -23.6800000000000        -1.670724616729263E-019
  -23.4900000000000         1.427810713628290E-019
  -23.3000000000000         4.139656442054241E-019
  -23.1100000000000         5.678593385190422E-019
  -22.9200000000000         5.597294623918827E-019
  -22.7300000000000         3.917644889350652E-019
  -22.5400000000000         1.124489074164891E-019
  -22.3500000000000        -1.975383998823489E-019
  -22.1600000000000        -4.487659564221968E-019
  -21.9700000000000        -5.690032714883557E-019
  -21.7800000000000        -5.241600146696210E-019
  -21.5900000000000        -3.281358152547346E-019
  -21.4000000000000        -3.871001193854753E-020
  -21.2100000000000         2.593358576477968E-019
  -21.0200000000000         4.789386433898720E-019
  -20.8300000000000         5.561042184520686E-019
  -20.6400000000000         4.685012115954638E-019
  -20.4500000000000         2.418990985816328E-019
  -20.2600000000000        -5.738991024569093E-020
  -20.0700000000000        -3.418368962454776E-019
  -19.8800000000000        -5.281658912766178E-019
  -19.6900000000000        -5.615763166478511E-019
  -19.5000000000000        -4.316931824931833E-019
  -19.3100000000000        -1.756311824722456E-019
  -19.1200000000000         1.326961373165825E-019
  -18.9300000000000         4.039380756440094E-019
  -18.7400000000000         5.592191785444857E-019
  -18.5500000000000         5.531551502456483E-019
  -18.3600000000000         3.872628982644350E-019
  -18.1700000000000         1.097366882319517E-019
  -17.9800000000000        -1.984809594784255E-019
  -17.7900000000000        -4.473174605842928E-019
  -17.6000000000000        -5.639258549280945E-019
  -17.4100000000000        -5.139951522287243E-019
  -17.2200000000000        -3.117642600335364E-019
  -17.0300000000000        -1.586222603990683E-020
  -16.8400000000000         2.877551853713697E-019
  -16.6500000000000         5.107902875813966E-019
  -16.4600000000000         5.882610835072307E-019
  -16.2700000000000         4.973878364876468E-019
  -16.0800000000000         2.642285182768979E-019
  -15.8900000000000        -4.384741173845057E-020
  -15.7000000000000        -3.376506594150213E-019
  -15.5100000000000        -5.319942312114569E-019
  -15.3200000000000        -5.703965192508393E-019
  -15.1300000000000        -4.415174374424093E-019
  -14.9400000000000        -1.825340383896079E-019
  -14.7500000000000         1.315677807685416E-019
  -14.5600000000000         4.097041645779826E-019
  -14.3700000000000         5.711041303561642E-019
  -14.1800000000000         5.687468456780699E-019
  -13.9900000000000         4.030285981566113E-019
  -13.8000000000000         1.216956384377733E-019
  -13.6100000000000        -1.939724695117254E-019
  -13.4200000000000        -4.527791814632551E-019
  -13.2300000000000        -5.801862780307583E-019
  -13.0400000000000        -5.400562571000576E-019
  -12.8500000000000        -3.451369992825821E-019
  -12.6600000000000        -5.320642244768790E-020
  -12.4700000000000         2.499218303200111E-019
  -12.2800000000000         4.754607373185328E-019
  -12.0900000000000         5.574205637819441E-019
  -11.9000000000000         4.716312522744741E-019
  -11.7100000000000         2.425924749494259E-019
  -11.5200000000000        -6.374453134727175E-020
  -11.3300000000000        -3.591284659393717E-019
  -11.1400000000000        -5.585407824670110E-019
  -10.9500000000000        -6.047303192029736E-019
  -10.7600000000000        -4.846746434608450E-019
  -10.5700000000000        -2.332367571334914E-019
  -10.3800000000000         7.702203404590566E-020
  -10.1900000000000         3.569226697935782E-019
  -10.0000000000000         5.265294992225313E-019
  -9.81000000000000         5.382686984763041E-019
  -9.62000000000000         3.905737326279300E-019
  -9.42999999999999         1.281149758853869E-019
  -9.23999999999999        -1.713862555687334E-019
  -9.05000000000000        -4.198527203009981E-019
  -8.86000000000000        -5.444292060352334E-019
  -8.67000000000000        -5.085369113706658E-019
  -8.48000000000000        -3.223322913418622E-019
  -8.28999999999999        -3.956207764181150E-020
  -8.09999999999999         2.582377180201213E-019
  -7.91000000000000         4.855337549931518E-019
  -7.72000000000000         5.775762405334603E-019
  -7.53000000000000         5.089489953932735E-019
  -7.34000000000000         3.006003868715936E-019
  -7.15000000000001         1.348904846248203E-020
  -6.95999999999999        -2.691650581813252E-019
  -6.77000000000000        -4.658448838477176E-019
  -6.58000000000000        -5.200660928451884E-019
  -6.39000000000000        -4.164716330367989E-019
  -6.20000000000000        -1.851512378258551E-019
  -6.01000000000001         1.070388115437989E-019
  -5.81999999999999         3.757012056349313E-019
  -5.63000000000000         5.431953817156458E-019
  -5.44000000000000         5.610435991640681E-019
  -5.25000000000000         4.239639831570004E-019
  -5.06000000000000         1.714135161125863E-019
  -4.87000000000000        -1.238567832960149E-019
  -4.67999999999999        -3.769127367879819E-019
  -4.48999999999999        -5.152542418776428E-019
  -4.30000000000000        -4.997894886040756E-019
  -4.11000000000000        -3.361223005266908E-019
  -3.92000000000000        -7.293245548390940E-020
  -3.73000000000000         2.120572345225672E-019
  -3.53999999999999         4.344854977316551E-019
  -3.34999999999999         5.277070044944384E-019
  -3.16000000000000         4.621186874466813E-019
  -2.97000000000000         2.538992870337298E-019
  -2.78000000000000        -3.937946641298003E-020
  -2.59000000000000        -3.350440019158174E-019
  -2.40000000000001        -5.488762788306117E-019
  -2.20999999999999        -6.192386611014505E-019
  -2.02000000000000        -5.248994639251577E-019
  -1.83000000000000        -2.914364360543432E-019
  -1.64000000000000         1.571047093055586E-020
  -1.45000000000000         3.096864249639190E-019
  -1.26000000000001         5.070193667048107E-019
  -1.06999999999999         5.517299526581399E-019
 -0.879999999999995         4.317769649687844E-019
 -0.689999999999998         1.829243063412373E-019
 -0.500000000000000        -1.213049503137447E-019
 -0.310000000000002        -3.908282419331728E-019
 -0.120000000000005        -5.452403453335077E-019
  7.000000000000739E-002   -5.374026294951169E-019
  0.260000000000005        -3.674244593626616E-019
  0.450000000000003        -8.289694102849523E-020
  0.640000000000001         2.347104262558291E-019
  0.829999999999998         4.935540007882738E-019
   1.02000000000000         6.180522127811771E-019
   1.21000000000001         5.709773183305889E-019
   1.40000000000001         3.645703568273452E-019
   1.59000000000000         5.735451195264285E-020
   1.78000000000000        -2.625464925714302E-019
   1.97000000000000        -5.028391515144775E-019
   2.16000000000000        -5.939080643803210E-019
   2.34999999999999        -5.092553129058108E-019
   2.54000000000001        -2.734818531550717E-019
   2.73000000000000         4.464106726878534E-020
   2.92000000000000         3.520843449633475E-019
   3.11000000000000         5.586943842659537E-019
   3.30000000000000         6.036237945795890E-019
   3.48999999999999         4.732818121897069E-019
   3.68000000000001         2.054702232827222E-019
   3.87000000000000        -1.215832686207393E-019
   4.06000000000000        -4.121429190808267E-019
   4.25000000000000        -5.811479670220948E-019
   4.44000000000000        -5.793457840534833E-019
   4.63000000000000        -4.078633761790486E-019
   4.82000000000001        -1.178241650997956E-019
   5.01000000000001         2.048570462713372E-019
   5.20000000000000         4.649030380105780E-019
   5.39000000000000         5.857340862348909E-019
   5.58000000000000         5.318799777898307E-019
   5.77000000000000         3.192149133911944E-019
   5.96000000000001         1.011560296933638E-020
   6.15000000000001        -3.049460919434883E-019
   6.34000000000000        -5.339566062732890E-019
   6.53000000000000        -6.103011650004600E-019