  -105.000000000000         0.000000000000000E+000
  -104.810000000000        -2.608785018707080E-020
  -104.620000000000        -7.193548308800222E-020
  -104.430000000000        -1.270138617295522E-019
  -104.240000000000        -1.795433534575473E-019
  -104.050000000000        -2.197730733565072E-019
  -103.860000000000        -2.426447045847613E-019
  -103.670000000000        -2.490753597924923E-019
  -103.480000000000        -2.454956263871435E-019
  -103.290000000000        -2.417862975472751E-019
  -103.100000000000        -2.482222725396592E-019
  -102.910000000000        -2.723188789863216E-019
  -102.720000000000        -3.165013323823386E-019
  -102.530000000000        -3.772761427890729E-019
  -102.340000000000        -4.461456101583242E-019
  -102.150000000000        -5.120002828365899E-019
  -101.960000000000        -5.642952835315906E-019
  -101.770000000000        -5.960882193631520E-019
  -101.580000000000        -6.060549403848789E-019
  -101.390000000000        -5.988939701664210E-019
  -101.200000000000        -5.839967071138876E-019
  -101.010000000000        -5.727643932063907E-019
  -100.820000000000        -5.753476863096294E-019
  -100.630000000000        -5.977535416334346E-019
  -100.440000000000        -6.401565241504797E-019
  -100.250000000000        -6.969002436650919E-019
  -100.060000000000        -7.581835822597904E-019
  -99.8700000000000        -8.129386835327015E-019
  -99.6800000000000        -8.520639517402144E-019
  -99.4900000000000        -8.710747252610057E-019
  -99.3000000000000        -8.714051732200491E-019
  -99.1100000000000        -8.599863899327782E-019
  -98.9200000000000        -8.472242702405434E-019
  -98.7300000000000        -8.439640164357348E-019
  -98.5400000000000        -8.583226918218291E-019
  -98.3500000000000        -8.933102782183231E-019
  -98.1600000000000        -9.459307680285144E-019
  -97.9700000000000        -1.008024949425969E-018
  -97.7800000000000        -1.068610987646116E-018
  -97.5900000000000        -1.117044151507356E-018
  -97.4000000000000        -1.146079574706908E-018
  -97.2100000000000        -1.153950890460575E-018
  -97.0200000000000        -1.144863171973992E-018
  -96.8300000000000        -1.127757069123285E-018
  -96.6400000000000        -1.113701152872994E-018
  -96.4500000000000        -1.112668070652161E-018
  -96.2600000000000        -1.130630377496892E-018
  -96.0700000000000        -1.167819619571835E-018
  -95.8800000000000        -1.218654564016729E-018
  -95.6900000000000        -1.273360137243609E-018
  -95.5000000000000        -1.320807394107194E-018
  -95.3100000000000        -1.351749341546603E-018
  -95.1200000000000        -1.361512765432676E-018
  -94.9300000000000        -1.351365669710121E-018
  -94.7400000000000        -1.328164586743263E-018
  -94.5500000000000        -1.302383462496550E-018
  -94.3600000000000        -1.285094239380965E-018
  -94.1700000000000        -1.284774226033152E-018
  -93.9800000000000        -1.304867095895447E-018
  -93.7900000000000        -1.342806756524109E-018
  -93.6000000000000        -1.390789188879375E-018
  -93.4100000000000        -1.438068557963989E-018
  -93.2200000000000        -1.474107880504094E-018
  -93.0300000000000        -1.491663777289615E-018
  -92.8400000000000        -1.488904940374753E-018
  -92.6500000000000        -1.469947674152473E-018
  -92.4600000000000        -1.443653860614202E-018
  -92.2700000000000        -1.421042222903291E-018
  -92.0800000000000        -1.412066537253728E-018
  -91.8900000000000        -1.422697293856412E-018
  -91.7000000000000        -1.453154062580361E-018
  -91.5100000000000        -1.497802477416828E-018
  -91.3200000000000        -1.546748710196208E-018
  -91.1300000000000        -1.588672412894894E-018
  -90.9400000000000        -1.614078430281449E-018
  -90.7500000000000        -1.618024823839437E-018
  -90.5600000000000        -1.601536601382285E-018
  -90.3700000000000        -1.571296379596304E-018
  -90.1800000000000        -1.537703985066146E-018
  -89.9900000000000        -1.511870829091046E-018
  -89.8000000000000        -1.502422622209438E-018
  -89.6100000000000        -1.513036422798851E-018
  -89.4200000000000        -1.541422616014909E-018
  -89.2300000000000        -1.580042878813337E-018
  -89.0400000000000        -1.618351511709698E-018
  -88.8500000000000        -1.645905209677817E-018
  -88.6600000000000        -1.655435184961249E-018
  -88.4700000000000        -1.644988294271549E-018
  -88.2800000000000        -1.618515163859675E-018
  -88.0900000000000        -1.584734977263349E-018
  -87.9000000000000        -1.554608611834356E-018
  -87.7100000000000        -1.538156552652121E-018
  -87.5200000000000        -1.541546006443503E-018
  -87.3300000000000        -1.565290789566155E-018
  -87.1400000000000        -1.604084832534175E-018
  -86.9500000000000        -1.648318429384150E-018
  -86.7600000000000        -1.686839967783806E-018
  -86.5700000000000        -1.710165568375410E-018
  -86.3800000000000        -1.713209256039536E-018
  -86.1900000000000        -1.696743397834162E-018
  -86.0000000000000        -1.667164608787238E-018
  -85.8100000000000        -1.634631635592158E-018
  -85.6200000000000        -1.610116346605960E-018
  -85.4300000000000        -1.602225366527605E-018
  -85.2400000000000        -1.614714964605861E-018
  -85.0500000000000        -1.645418838309519E-018
  -84.8600000000000        -1.686897212622303E-018
  -84.6700000000000        -1.728615130324632E-018
  -84.4800000000000        -1.760014693853527E-018
  -84.2900000000000        -1.773589635769543E-018
  -84.1000000000000        -1.767071971776591E-018
  -83.9100000000000        -1.744096637698484E-018
  -83.7200000000000        -1.713149464621909E-018
  -83.5300000000000        -1.685102438062104E-018
  -83.3400000000000        -1.670051913116770E-018
  -83.1500000000000        -1.674378662452913E-018
  -82.9600000000000        -1.698884980220399E-018
  -82.7700000000000        -1.738552066009200E-018
  -82.5800000000000        -1.783989341094261E-018
  -82.3900000000000        -1.824153974035297E-018
  -82.2000000000000        -1.849550178452920E-018
  -82.0100000000000        -1.854980482827930E-018
  -81.8200000000000        -1.841051588568459E-018
  -81.6300000000000        -1.813997534586389E-018
  -81.4400000000000        -1.783870830120225E-018
  -81.2500000000000        -1.761626591454858E-018
  -81.0600000000000        -1.755946296829502E-018
  -80.8700000000000        -1.770723711934993E-018
  -80.6800000000000        -1.803944168776210E-018
  -80.4900000000000        -1.848282986269145E-018
  -80.3000000000000        -1.893246485463836E-018
  -80.1100000000000        -1.928229293482006E-018
  -79.9200000000000        -1.945597351278023E-018
  -79.7300000000000        -1.942901360992274E-018
  -79.5400000000000        -1.923579046302674E-018
  -79.3500000000000        -1.895943583286491E-018
  -79.1600000000000        -1.870753142895195E-018
  -78.9700000000000        -1.858067775062051E-018
  -78.7800000000000        -1.864306681995250E-018
  -78.5900000000000        -1.890362717410723E-018
  -78.4000000000000        -1.931325961691446E-018
  -78.2100000000000        -1.977900002670569E-018
  -78.0200000000000        -2.019100026796865E-018
  -77.8300000000000        -2.045447487432317E-018
  -77.6400000000000        -2.051731184910782E-018
  -77.4500000000000        -2.038530713067810E-018
  -77.2600000000000        -2.012059207718889E-018
  -77.0700000000000        -1.982372075708618E-018
  -76.8800000000000        -1.960461997116988E-018
  -76.6900000000000        -1.955081390102642E-018
  -76.5000000000000        -1.970212509657332E-018
  -76.3100000000000        -2.003919823419927E-018
  -76.1200000000000        -2.048919500060767E-018
  -75.9300000000000        -2.094701625274344E-018
  -75.7400000000000        -2.130588996408851E-018
  -75.5500000000000        -2.148843572650500E-018
  -75.3600000000000        -2.146916487813640E-018
  -75.1700000000000        -2.128186181061774E-018
  -74.9800000000000        -2.100970631188084E-018
  -74.7900000000000        -2.076102646274860E-018
  -74.6000000000000        -2.063772980023611E-018
  -74.4100000000000        -2.070556410949151E-018
  -74.2200000000000        -2.097482868255882E-018
  -74.0300000000000        -2.139713829317328E-018
  -73.8400000000000        -2.187919633992153E-018
  -73.6500000000000        -2.230961178651520E-018
  -73.4600000000000        -2.259101616857453E-018
  -73.2700000000000        -2.266818008585623E-018
  -73.0800000000000        -2.254396274449264E-018
  -72.8900000000000        -2.227846106712066E-018
  -72.7000000000000        -2.197162249152549E-018
  -72.5100000000000        -2.173438529436247E-018
  -72.3200000000000        -2.165671556908852E-018
  -72.1300000000000        -2.178179106581129E-018
  -71.9400000000000        -2.209379046580032E-018
  -71.7500000000000        -2.252279464198013E-018
  -71.5600000000000        -2.296535182247910E-018
  -71.3700000000000        -2.331474006319723E-018
  -71.1800000000000        -2.349215569796436E-018
  -70.9900000000000        -2.346976342832956E-018
  -70.8000000000000        -2.327888291257575E-018
  -70.6100000000000        -2.300090932890403E-018
  -70.4200000000000        -2.274359973709354E-018
  -70.2300000000000        -2.260961973332543E-018
  -70.0400000000000        -2.266650073247642E-018
  -69.8500000000000        -2.292674935484685E-018
  -69.6600000000000        -2.334388671750161E-018
  -69.4700000000000        -2.382555856152026E-018
  -69.2800000000000        -2.425992148793609E-018
  -69.0900000000000        -2.454768889610365E-018
  -68.9000000000000        -2.463057978241021E-018
  -68.7100000000000        -2.450793417568210E-018
  -68.5200000000000        -2.423667920641357E-018
  -68.3300000000000        -2.391466385168842E-018
  -68.1400000000000        -2.365221208074756E-018
  -67.9500000000000        -2.354017268796588E-018
  -67.7600000000000        -2.362377067563137E-018
  -67.5700000000000        -2.388986633853256E-018
  -67.3800000000000        -2.427129506316636E-018
  -67.1900000000000        -2.466697470951455E-018
  -67.0000000000000        -2.497189987358225E-018
  -66.8100000000000        -2.510829575582370E-018
  -66.6200000000000        -2.504887867140853E-018
  -66.4300000000000        -2.482545995921940E-018
  -66.2400000000000        -2.452037336290973E-018
  -66.0500000000000        -2.424317327081817E-018
  -65.8600000000000        -2.409932060463010E-018
  -65.6700000000000        -2.415991782352598E-018
  -65.4800000000000        -2.444126745624558E-018
  -65.2900000000000        -2.490016619817878E-018
  -65.1000000000000        -2.544625862415573E-018
  -64.9100000000000        -2.596782448835898E-018
  -64.7200000000000        -2.636349672758472E-018
  -64.5300000000000        -2.657071551541969E-018
  -64.3400000000000        -2.658270789679450E-018
  -64.1500000000000        -2.644914470317657E-018
  -63.9600000000000        -2.626036523067001E-018
  -63.7700000000000        -2.611980879792716E-018
  -63.5800000000000        -2.611271117003737E-018
  -63.3900000000000        -2.628022425103387E-018
  -63.2000000000000        -2.660654375458075E-018
  -63.0100000000000        -2.702282662136338E-018
  -62.8200000000000        -2.742677581900294E-018
  -62.6300000000000        -2.771220134503024E-018
  -62.4400000000000        -2.779995705788165E-018
  -62.2500000000000        -2.766125812667095E-018
  -62.0600000000000        -2.732661734576492E-018
  -61.8700000000000        -2.687781653603541E-018
  -61.6800000000000        -2.642521888017360E-018
  -61.4900000000000        -2.607694527182074E-018
  -61.3000000000000        -2.590879545883550E-018
  -61.1100000000000        -2.594359566447845E-018
  -60.9200000000000        -2.614593030991767E-018
  -60.7300000000000        -2.643375557951820E-018
  -60.5400000000000        -2.670348833247309E-018
  -60.3500000000000        -2.686122906732114E-018
  -60.1600000000000        -2.685097776080056E-018
  -59.9700000000000        -2.667159802165884E-018
  -59.7800000000000        -2.637760516259740E-018
  -59.5900000000000        -2.606358069475914E-018
  -59.4000000000000        -2.583676248843284E-018
  -59.2100000000000        -2.578577860024514E-018
  -59.0200000000000        -2.595460750308870E-018
  -58.8300000000000        -2.632933212797420E-018
  -58.6400000000000        -2.684155786365554E-018
  -58.4500000000000        -2.738755518485173E-018
  -58.2600000000000        -2.785762700014753E-018
  -58.0700000000000        -2.816719957879133E-018
  -57.8800000000000        -2.828060529627221E-018
  -57.6900000000000        -2.822065094899029E-018
  -57.5000000000000        -2.806120919974517E-018
  -57.3100000000000        -2.790500599631153E-018
  -57.1200000000000        -2.785307783140754E-018
  -56.9300000000000        -2.797479149972944E-018
  -56.7400000000000        -2.828714068790978E-018
  -56.5500000000000        -2.874932651488815E-018
  -56.3600000000000        -2.927420701071656E-018
  -56.1700000000000        -2.975332648443250E-018
  -55.9800000000000        -3.008828069902095E-018
  -55.7900000000000        -3.021929485071308E-018
  -55.6000000000000        -3.014267968137393E-018
  -55.4100000000000        -2.991206715866988E-018
  -55.2200000000000        -2.962304947886420E-018
  -55.0300000000000        -2.938567657139329E-018
  -54.8400000000000        -2.929280217038354E-018
  -54.6500000000000        -2.939346092755469E-018
  -54.4600000000000        -2.967896724675317E-018
  -54.2700000000000        -3.008572564020114E-018
  -54.0800000000000        -3.051392158736445E-018
  -53.8900000000000        -3.085668230837985E-018
  -53.7000000000000        -3.103125963288006E-018
  -53.5100000000000        -3.100318681804117E-018
  -53.3200000000000        -3.079638505462565E-018
  -53.1300000000000        -3.048625920467303E-018
  -52.9400000000000        -3.017776691710708E-018
  -52.7500000000000        -2.997484544011995E-018
  -52.5600000000000        -2.995011907709876E-018
  -52.3700000000000        -3.012371186750448E-018
  -52.1800000000000        -3.045730970777324E-018
  -51.9900000000000        -3.086517828401289E-018
  -51.8000000000000        -3.123893383249056E-018
  -51.6100000000000        -3.147888416336828E-018
  -51.4200000000000        -3.152286192370101E-018
  -51.2300000000000        -3.136420662415958E-018
  -51.0400000000000        -3.105368406391493E-018
  -50.8500000000000        -3.068476686397924E-018
  -50.6600000000000        -3.036653562379266E-018
  -50.4700000000000        -3.019208984057405E-018
  -50.2800000000000        -3.021167734666516E-018
  -50.0900000000000        -3.041836183343311E-018
  -49.9000000000000        -3.075038326731166E-018
  -49.7100000000000        -3.110950308831434E-018
  -49.5200000000000        -3.138997226735493E-018
  -49.3300000000000        -3.150968188992128E-018
  -49.1400000000000        -3.143445069868303E-018
  -48.9500000000000        -3.118840702321024E-018
  -48.7600000000000        -3.084742927757516E-018
  -48.5700000000000        -3.051750024857372E-018
  -48.3800000000000        -3.030422597480556E-018
  -48.1900000000000        -3.028236865135566E-018
  -48.0000000000000        -3.047425412167136E-018
  -47.8100000000000        -3.084333873479298E-018
  -47.6200000000000        -3.130481127435961E-018
  -47.4300000000000        -3.175013598039672E-018
  -47.2400000000000        -3.207837860884031E-018
  -47.0500000000000        -3.222521468086107E-018
  -46.8600000000000        -3.218123912989823E-018
  -46.6700000000000        -3.199431413933196E-018
  -46.4800000000000        -3.175529948548903E-018
  -46.2900000000000        -3.157131066460725E-018
  -46.1000000000000        -3.153426294752933E-018
  -45.9100000000000        -3.169382631231958E-018
  -45.7200000000000        -3.204264914321368E-018
  -45.5300000000000        -3.251816976499890E-018
  -45.3400000000000        -3.302051204059465E-018
  -45.1500000000000        -3.344125028648975E-018
  -44.9600000000000        -3.369465293596690E-018
  -44.7700000000000        -3.374232236524098E-018
  -44.5800000000000        -3.360409840678206E-018
  -44.3900000000000        -3.335208619155132E-018
  -44.2000000000000        -3.308956151738456E-018
  -44.0100000000000        -3.292088699705112E-018
  -43.8200000000000        -3.292115943866194E-018
  -43.6300000000000        -3.311437480024206E-018
  -43.4400000000000        -3.346644993592185E-018
  -43.2500000000000        -3.389515866446169E-018
  -43.0600000000000        -3.429411860913979E-018
  -42.8700000000000        -3.456385152689002E-018
  -42.6800000000000        -3.464087561983152E-018
  -42.4900000000000        -3.451637257802108E-018
  -42.3000000000000        -3.423901029604110E-018
  -42.1100000000000        -3.390111165639363E-018
  -41.9200000000000        -3.361219761957875E-018
  -41.7300000000000        -3.346757268253229E-018
  -41.5400000000000        -3.352102250870105E-018
  -41.3500000000000        -3.376950205691883E-018
  -41.1600000000000        -3.415425462750513E-018
  -40.9700000000000        -3.457805991712708E-018
  -40.7800000000000        -3.493361661026898E-018
  -40.5900000000000        -3.513481324426841E-018
  -40.4000000000000        -3.514178917063132E-018
  -40.2100000000000        -3.497248125161089E-018
  -40.0200000000000        -3.469729086504470E-018
  -39.8300000000000        -3.441845081396695E-018
  -39.6400000000000        -3.424013741508050E-018
  -39.4500000000000        -3.423802911070053E-018
  -39.2600000000000        -3.443713126723625E-018
  -39.0700000000000        -3.480428314232136E-018
  -38.8800000000000        -3.525752246559455E-018
  -38.6900000000000        -3.568960755149919E-018
  -38.5000000000000        -3.599890029436370E-018
  -38.3100000000000        -3.611867581905508E-018
  -38.1200000000000        -3.603634917980748E-018
  -37.9300000000000        -3.579700249554778E-018
  -37.7400000000000        -3.549016663824884E-018
  -37.5500000000000        -3.522371652701147E-018
  -37.3600000000000        -3.509249534235104E-018
  -37.1700000000000        -3.515079357966746E-018
  -36.9800000000000        -3.539667178675283E-018
  -36.7900000000000        -3.577266777162090E-018
  -36.6000000000000        -3.618266189477582E-018
  -36.4100000000000        -3.651998933337279E-018
  -36.2200000000000        -3.669864786268027E-018
  -36.0300000000000        -3.667855193525108E-018
  -35.8400000000000        -3.647747579851933E-018
  -35.6500000000000        -3.616617025353227E-018
  -35.4600000000000        -3.584804549651542E-018
  -35.2700000000000        -3.562932579421109E-018
  -35.0800000000000        -3.558835724304465E-018
  -34.8900000000000        -3.575299063800301E-018
  -34.7000000000000        -3.609260290197886E-018
  -34.5100000000000        -3.652704516623781E-018
  -34.3200000000000        -3.694988445628546E-018
  -34.1300000000000        -3.725919182982690E-018
  -33.9400000000000        -3.738697652801289E-018
  -33.7500000000000        -3.731874860623999E-018
  -33.5600000000000        -3.709752239285257E-018
  -33.3700000000000        -3.681107787659559E-018
  -33.1800000000000        -3.656617023828958E-018
  -32.9900000000000        -3.645718647744510E-018
  -32.8000000000000        -3.653838955627163E-018
  -32.6100000000000        -3.680787178369637E-018
  -32.4200000000000        -3.720791565157674E-018
  -32.2300000000000        -3.764163855799606E-018
  -32.0400000000000        -3.800104515399275E-018
  -31.8500000000000        -3.819832685895735E-018
  -31.6600000000000        -3.819133522747695E-018
  -31.4700000000000        -3.799584856822433E-018
  -31.2800000000000        -3.768107503511008E-018
  -31.0900000000000        -3.734968843571218E-018
  -30.9000000000000        -3.710816553306192E-018
  -30.7100000000000        -3.703601371817620E-018
  -30.5200000000000        -3.716283876012552E-018
  -30.3300000000000        -3.745995210118456E-018
  -30.1400000000000        -3.784897085858850E-018
  -29.9500000000000        -3.822488924267912E-018
  -29.7600000000000        -3.848688826160395E-018
  -29.5700000000000        -3.856791538606160E-018
  -29.3800000000000        -3.845443413100352E-018
  -29.1900000000000        -3.819061121018570E-018
  -29.0000000000000        -3.786573316316312E-018
  -28.8100000000000        -3.758848900870120E-018
  -28.6200000000000        -3.745553883653570E-018
  -28.4300000000000        -3.752346263516231E-018
  -28.2400000000000        -3.779225185714613E-018
  -28.0500000000000        -3.820517978657565E-018
  -27.8600000000000        -3.866511740404462E-018
  -27.6700000000000        -3.906256689119323E-018
  -27.4800000000000        -3.930727140640507E-018
  -27.2900000000000        -3.935421734638478E-018
  -27.1000000000000        -3.921649087650988E-018
  -26.9100000000000        -3.896129798851747E-018
  -26.7200000000000        -3.869034176954088E-018
  -26.5300000000000        -3.851024221148761E-018
  -26.3400000000000        -3.850153569707135E-018
  -26.1500000000000        -3.869521503015084E-018
  -25.9600000000000        -3.906361566510843E-018
  -25.7700000000000        -3.952831209723046E-018
  -25.5800000000000        -3.998276057380376E-018
  -25.3900000000000        -4.032313256449308E-018
  -25.2000000000000        -4.047836645592998E-018
  -25.0100000000000        -4.043066381111577E-018
  -24.8200000000000        -4.022045644014590E-018
  -24.6300000000000        -3.993442829119288E-018
  -24.4400000000000        -3.968010750033777E-018
  -24.2500000000000        -3.955441766237521E-018
  -24.0600000000000        -3.961531102267296E-018
  -23.8700000000000        -3.986470892608126E-018
  -23.6800000000000        -4.024770105398455E-018
  -23.4900000000000        -4.066826186436485E-018
  -23.3000000000000        -4.101697808920675E-018
  -23.1100000000000        -4.120278701297047E-018
  -22.9200000000000        -4.117951740572038E-018
  -22.7300000000000        -4.095950811467959E-018
  -22.5400000000000        -4.061034415294001E-018
  -22.3500000000000        -4.023566729483911E-018
  -22.1600000000000        -3.994563648982080E-018
  -21.9700000000000        -3.982560312313461E-018
  -21.7800000000000        -3.991206163684601E-018
  -21.5900000000000        -4.018279481929837E-018
  -21.4000000000000        -4.056400877310492E-018
  -21.2100000000000        -4.095235786016909E-018
  -21.0200000000000        -4.124546906133033E-018
  -20.8300000000000        -4.137209262294408E-018
  -20.6400000000000        -4.131308413936183E-018
  -20.4500000000000        -4.110708673181616E-018
  -20.2600000000000        -4.083925062141913E-018
  -20.0700000000000        -4.061627893060562E-018
  -19.8800000000000        -4.053508214337358E-018
  -19.6900000000000        -4.065418628541220E-018
  -19.5000000000000        -4.097620901798543E-018
  -19.3100000000000        -4.144646349480983E-018
  -19.1200000000000        -4.196807571375851E-018
  -18.9300000000000        -4.242926103737921E-018
  -18.7400000000000        -4.273491406024164E-018
  -18.5500000000000        -4.283340919425217E-018
  -18.3600000000000        -4.273087459928714E-018
  -18.1700000000000        -4.248880926391389E-018
  -17.9800000000000        -4.220572477818093E-018
  -17.7900000000000        -4.198813902328159E-018
  -17.6000000000000        -4.191937750935043E-018
  -17.4100000000000        -4.203528548521175E-018
  -17.2200000000000        -4.231390301714295E-018
  -17.0300000000000        -4.268204989596500E-018
  -16.8400000000000        -4.303684994966943E-018
  -16.6500000000000        -4.327591087399767E-018
  -16.4600000000000        -4.332738970900334E-018
  -16.2700000000000        -4.317123100583839E-018
  -16.0800000000000        -4.284543384644570E-018
  -15.8900000000000        -4.243552308237609E-018
  -15.7000000000000        -4.205024548210311E-018
  -15.5100000000000        -4.179052128108476E-018
  -15.3200000000000        -4.172067491010801E-018
  -15.1300000000000        -4.185031341354712E-018
  -14.9400000000000        -4.213210272898398E-018
  -14.7500000000000        -4.247605164351133E-018
  -14.5600000000000        -4.277611215417394E-018
  -14.3700000000000        -4.294133618175932E-018
  -14.1800000000000        -4.292253716976899E-018
  -13.9900000000000        -4.272674936623097E-018
  -13.8000000000000        -4.241532027289366E-018
  -13.6100000000000        -4.208618183634537E-018
  -13.4200000000000        -4.184541501108580E-018
  -13.2300000000000        -4.177635408474715E-018
  -13.0400000000000        -4.191522530461177E-018
  -12.8500000000000        -4.224042794458461E-018
  -12.6600000000000        -4.267859823399614E-018
  -12.4700000000000        -4.312570380473001E-018
  -12.2800000000000        -4.347702132379182E-018
  -12.0900000000000        -4.365726240320211E-018
  -11.9000000000000        -4.364210852225876E-018
  -11.7100000000000        -4.346495466853161E-018
  -11.5200000000000        -4.320695202437452E-018
  -11.3300000000000        -4.297324893868153E-018
  -11.1400000000000        -4.286230853644965E-018
  -10.9500000000000        -4.293718951293909E-018
  -10.7600000000000        -4.320712208244254E-018
  -10.5700000000000        -4.362475030107723E-018
  -10.3800000000000        -4.409988090580224E-018
  -10.1900000000000        -4.452575971089658E-018
  -10.0000000000000        -4.481020817464220E-018
  -9.81000000000000        -4.490252533001863E-018
  -9.62000000000000        -4.480831843840776E-018
  -9.42999999999999        -4.458795699175830E-018
  -9.23999999999999        -4.433909927011599E-018
  -9.05000000000000        -4.416835372206901E-018
  -8.86000000000000        -4.416027781252488E-018
  -8.67000000000000        -4.435267837807651E-018
  -8.48000000000000        -4.472536601132261E-018
  -8.28999999999999        -4.520565990522267E-018
  -8.09999999999999        -4.568910479556908E-018
  -7.91000000000000        -4.606941676850181E-018
  -7.72000000000000        -4.626895114905675E-018
  -7.53000000000000        -4.626082478176568E-018
  -7.34000000000000        -4.607626807711696E-018
  -7.15000000000001        -4.579509561217123E-018
  -6.95999999999999        -4.552210772006237E-018
  -6.77000000000000        -4.535632209867911E-018
  -6.58000000000000        -4.536198094181964E-018
  -6.39000000000000        -4.554972668615807E-018
  -6.20000000000000        -4.587340070392484E-018
  -6.01000000000001        -4.624343032384978E-018
  -5.81999999999999        -4.655297037801543E-018
  -5.63000000000000        -4.670923411410429E-018
  -5.44000000000000        -4.666090207129367E-018
  -5.25000000000000        -4.641360498778940E-018
  -5.06000000000000        -4.602892376301632E-018
  -4.87000000000000        -4.560715335529197E-018
  -4.67999999999999        -4.525883213928408E-018
  -4.48999999999999        -4.507330910196627E-018
  -4.30000000000000        -4.509344138242328E-018
  -4.11000000000000        -4.530370106345131E-018
  -3.92000000000000        -4.563509356114574E-018
  -3.73000000000000        -4.598545381518088E-018
  -3.53999999999999        -4.624925919115154E-018
  -3.34999999999999        -4.634835468424048E-018
  -3.16000000000000        -4.625471289647183E-018
  -2.97000000000000        -4.599862563833703E-018
  -2.78000000000000        -4.565992534098570E-018
  -2.59000000000000        -4.534477997846031E-018
  -2.40000000000001        -4.515482880704195E-018
  -2.20999999999999        -4.515764914261204E-018
  -2.02000000000000        -4.536712704119131E-018
  -1.83000000000000        -4.573940813620658E-018
  -1.64000000000000        -4.618558007540751E-018
  -1.45000000000000        -4.659739229907874E-018
  -1.26000000000001        -4.687856164918046E-018
  -1.06999999999999        -4.697261403072610E-018
 -0.879999999999995        -4.687919770865922E-018
 -0.689999999999998        -4.665409814789869E-018
 -0.500000000000000        -4.639289409515496E-018
 -0.310000000000002        -4.620297489500757E-018
 -0.120000000000005        -4.617205802944247E-018
  7.000000000000739E-002   -4.634237540586757E-018
  0.260000000000005        -4.669804352060326E-018
  0.450000000000003        -4.716928556977154E-018
  0.640000000000001        -4.765226055362233E-018
  0.829999999999998        -4.803873207717249E-018
   1.02000000000000        -4.824699770770531E-018
   1.21000000000001        -4.824516520562542E-018
   1.40000000000001        -4.806006149504997E-018
   1.59000000000000        -4.776918497475788E-018
   1.78000000000000        -4.747801372539692E-018
   1.97000000000000        -4.728924451469991E-018
   2.16000000000000        -4.727290622518031E-018
   2.34999999999999        -4.744606490944595E-018
   2.54000000000001        -4.776805325872156E-018
   2.73000000000000        -4.815260157080284E-018
   2.92000000000000        -4.849328100934010E-018
   3.11000000000000        -4.869479805251221E-018
   3.30000000000000        -4.870102472820872E-018
   3.48999999999999        -4.851163631296379E-018
   3.68000000000001        -4.818254190129848E-018
   3.87000000000000        -4.780998524832417E-018
   4.06000000000000        -4.750291346334132E-018
   4.25000000000000        -4.735160266659024E-018
   4.44000000000000        -4.740163336577470E-018
   4.63000000000000        -4.764079555736183E-018
   4.82000000000001        -4.800276109201007E-018
   5.01000000000001        -4.838645555442227E-018
   5.20000000000000        -4.868546633448272E-018
   5.39000000000000        -4.881891421908630E-018
   5.58000000000000        -4.875482347432306E-018
   5.77000000000000        -4.851923719281516E-018
   5.96000000000001        -4.818848705296782E-018
   6.15000000000001        -4.786691214395858E-018
   6.34000000000000        -4.765650365129033E-018
   6.53000000000000        -4.762725891266722E-018