  -105.000000000000        -6.042484681609135E-019
  -104.810000000000        -1.401168128753359E-019
  -104.620000000000         3.491757197746971E-019
  -104.430000000000         4.177030510736137E-019
  -104.240000000000         2.632644100455882E-020
  -104.050000000000        -4.244992659611908E-019
  -103.860000000000        -4.807913312457897E-019
  -103.670000000000        -7.079855760379068E-020
  -103.480000000000         4.253178385683461E-019
  -103.290000000000         5.384725821641910E-019
  -103.100000000000         1.597782469042216E-019
  -102.910000000000        -3.537610088502400E-019
  -102.720000000000        -5.185450365229037E-019
  -102.530000000000        -1.844764784308126E-019
  -102.340000000000         3.234849158917080E-019
  -102.150000000000         5.166992900547454E-019
  -101.960000000000         2.094960132654296E-019
  -101.770000000000        -3.038665052353577E-019
  -101.580000000000        -5.305894160857889E-019
  -101.390000000000        -2.507152373693179E-019
  -101.200000000000         2.718598436817348E-019
  -101.010000000000         5.410558991573411E-019
  -100.820000000000         3.026160320581937E-019
  -100.630000000000        -2.129686974199252E-019
  -100.440000000000        -5.107671561367925E-019
  -100.250000000000        -3.042557046127713E-019
  -100.060000000000         2.106552548879639E-019
  -99.8700000000000         5.419649465979492E-019
  -99.6800000000000         3.710971850336511E-019
  -99.4900000000000        -1.421682493047402E-019
  -99.3000000000000        -5.111086370240289E-019
  -99.1100000000000        -3.859713701057150E-019
  -98.9200000000000         1.126161531061382E-019
  -98.7300000000000         5.090094320624800E-019
  -98.5400000000000         4.259608751591691E-019
  -98.3500000000000        -5.662777027294714E-020
  -98.1600000000000        -4.789521879280323E-019
  -97.9700000000000        -4.402095425751965E-019
  -97.7800000000000         1.943512053553803E-020
  -97.5900000000000         4.582434814187095E-019
  -97.4000000000000         4.561074836846117E-019
  -97.2100000000000         1.689648715243246E-020
  -97.0200000000000        -4.350299841556132E-019
  -96.8300000000000        -4.606751484071957E-019
  -96.6400000000000        -2.658053097853339E-020
  -96.4500000000000         4.616834890782367E-019
  -96.2600000000000         5.445228546795075E-019
  -96.0700000000000         1.450002031320084E-019
  -95.8800000000000        -3.589647454015537E-019
  -95.6900000000000        -4.958619021212416E-019
  -95.5000000000000        -1.502877032799945E-019
  -95.3100000000000         3.290093835427031E-019
  -95.1200000000000         4.658278667048354E-019
  -94.9300000000000         1.151154357489100E-019
  -94.7400000000000        -3.955885868873624E-019
  -94.5500000000000        -5.772771849547611E-019
  -94.3600000000000        -2.465207279581034E-019
  -94.1700000000000         2.971376726647188E-019
  -93.9800000000000         5.536043278245544E-019
  -93.7900000000000         2.962565541408838E-019
  -93.6000000000000        -2.144265229784655E-019
  -93.4100000000000        -4.815849370669583E-019
  -93.2200000000000        -2.472301468033365E-019
  -93.0300000000000         2.619703687833501E-019
  -92.8400000000000         5.522726372750978E-019
  -92.6500000000000         3.353664927696258E-019
  -92.4600000000000        -1.949784442908007E-019
  -92.2700000000000        -5.459970902410625E-019
  -92.0800000000000        -3.946015462549354E-019
  -91.8900000000000         1.053495508635822E-019
  -91.7000000000000         4.708712492098903E-019
  -91.5100000000000         3.516441387059418E-019
  -91.3200000000000        -1.356773955092093E-019
  -91.1300000000000        -5.197376925394733E-019
  -90.9400000000000        -4.254037527659638E-019
  -90.7500000000000         6.725439273569724E-020
  -90.5600000000000         4.981919687950595E-019
  -90.3700000000000         4.651991669085774E-019
  -90.1800000000000         6.830818653234659E-021
  -89.9900000000000        -4.353072647427859E-019
  -89.8000000000000        -4.390919686352064E-019
  -89.6100000000000        -5.068525527937024E-021
  -89.4200000000000         4.452966502814698E-019
  -89.2300000000000         4.740152941109639E-019
  -89.0400000000000         4.662339255225428E-020
  -88.8500000000000        -4.333649183325262E-019
  -88.6600000000000        -5.087695118350942E-019
  -88.4700000000000        -1.056233015763442E-019
  -88.2800000000000         3.945551450615908E-019
  -88.0900000000000         5.172114681470868E-019
  -87.9000000000000         1.466088620606525E-019
  -87.7100000000000        -3.643479388902301E-019
  -87.5200000000000        -5.308989215969834E-019
  -87.3300000000000        -1.978886295400306E-019
  -87.1400000000000         3.140291167265008E-019
  -86.9500000000000         5.158887096639079E-019
  -86.7600000000000         2.178148032630623E-019
  -86.5700000000000        -2.896389777346238E-019
  -86.3800000000000        -5.136769083689221E-019
  -86.1900000000000        -2.316303355185479E-019
  -86.0000000000000         2.942451232526436E-019
  -85.8100000000000         5.654504602924736E-019
  -85.6200000000000         3.219739419451064E-019
  -85.4300000000000        -2.100690333182158E-019
  -85.2400000000000        -5.335827976110839E-019
  -85.0500000000000        -3.528890966783310E-019
  -84.8600000000000         1.466958446423988E-019
  -84.6700000000000         4.782867060366037E-019
  -84.4800000000000         3.203776333829553E-019
  -84.2900000000000        -1.751189406728618E-019
  -84.1000000000000        -5.286220386618046E-019
  -83.9100000000000        -3.928426450311523E-019
  -83.7200000000000         1.134275958847649E-019
  -83.5300000000000         5.168922752706361E-019
  -83.3400000000000         4.401125227839470E-019
  -83.1500000000000        -3.891326835388298E-020
  -82.9600000000000        -4.609718969848640E-019
  -82.7700000000000        -4.234866903114317E-019
  -82.5800000000000         3.537620576153188E-020
  -82.3900000000000         4.734040879387302E-019
  -82.2000000000000         4.671563287323480E-019
  -82.0100000000000         1.686042801311393E-020
  -81.8200000000000        -4.532539716222007E-019
  -81.6300000000000        -4.989303143051252E-019
  -81.4400000000000        -7.856886690648896E-020
  -81.2500000000000         4.079597372475197E-019
  -81.0600000000000         5.010199402602091E-019
  -80.8700000000000         1.194066907729816E-019
  -80.6800000000000        -3.633275441334327E-019
  -80.4900000000000        -4.775623614701244E-019
  -80.3000000000000        -1.082728712157582E-019
  -80.1100000000000         3.935706607925109E-019
  -79.9200000000000         5.453274931586979E-019
  -79.7300000000000         1.932968794303902E-019
  -79.5400000000000        -3.397279238133790E-019
  -79.3500000000000        -5.605345874672411E-019
  -79.1600000000000        -2.736806156679755E-019
  -78.9700000000000         2.344404964981742E-019
  -78.7800000000000         4.713121948088168E-019
  -78.5900000000000         2.101461889905159E-019
  -78.4000000000000        -2.936657217086881E-019
  -78.2100000000000        -5.483339819054511E-019
  -78.0200000000000        -2.978892124563421E-019
  -77.8300000000000         2.309829317008299E-019
  -77.6400000000000         5.434043422336561E-019
  -77.4500000000000         3.477808686608404E-019
  -77.2600000000000        -1.653307365935195E-019
  -77.0700000000000        -5.037927795842812E-019
  -76.8800000000000        -3.426455231928721E-019
  -76.6900000000000         1.662011748658714E-019
  -76.5000000000000         5.392631906157593E-019
  -76.3100000000000         4.228055472631886E-019
  -76.1200000000000        -7.034296054989699E-020
  -75.9300000000000        -4.692712294847435E-019
  -75.7400000000000        -3.946499355338323E-019
  -75.5500000000000         7.920699275184733E-020
  -75.3600000000000         4.951739841335247E-019
  -75.1700000000000         4.499396900932930E-019
  -74.9800000000000        -2.018747964581193E-020
  -74.7900000000000        -4.732131753008873E-019
  -74.6000000000000        -4.829525425114080E-019
  -74.4100000000000        -4.527198362664048E-020
  -74.2200000000000         4.186069182366473E-019
  -74.0300000000000         4.642267968860131E-019
  -73.8400000000000         4.764740199852338E-020
  -73.6500000000000        -4.330296395177601E-019
  -73.4600000000000        -5.179555913822074E-019
  -73.2700000000000        -1.248363044287432E-019
  -73.0800000000000         3.725268805059986E-019
  -72.8900000000000         5.016537868268252E-019
  -72.7000000000000         1.427301785259997E-019
  -72.5100000000000        -3.576590581637431E-019
  -72.3200000000000        -5.183879472053043E-019
  -72.1300000000000        -1.836791812659503E-019
  -71.9400000000000         3.279134647982227E-019
  -71.7500000000000         5.276081169399724E-019
  -71.5600000000000         2.237287172723392E-019
  -71.3700000000000        -2.940346991406061E-019
  -71.1800000000000        -5.302941491895036E-019
  -70.9900000000000        -2.567469847802724E-019
  -70.8000000000000         2.696837411930581E-019
  -70.6100000000000         5.515755279285615E-019
  -70.4200000000000         3.246443863069125E-019
  -70.2300000000000        -1.913719160659901E-019
  -70.0400000000000        -5.032904614223194E-019
  -69.8500000000000        -3.155871357028828E-019
  -69.6600000000000         1.873547861781456E-019
  -69.4700000000000         5.177299242531324E-019
  -69.2800000000000         3.513843690748642E-019
  -69.0900000000000        -1.611284763426238E-019
  -68.9000000000000        -5.371468672876241E-019
  -68.7100000000000        -4.217647486851060E-019
  -68.5200000000000         7.419342379946140E-020
  -68.3300000000000         4.801177424488344E-019
  -68.1400000000000         4.141057248563858E-019
  -67.9500000000000        -5.356271002114000E-020
  -67.7600000000000        -4.686911766310626E-019
  -67.5700000000000        -4.281899153382615E-019
  -67.3800000000000         3.389840026394190E-020
  -67.1900000000000         4.786658416736091E-019
  -67.0000000000000         4.818344680194275E-019
  -66.8100000000000         3.915584698464115E-020
  -66.6200000000000        -4.293252743149842E-019
  -66.4300000000000        -4.798198092370716E-019
  -66.2400000000000        -6.806640459660732E-020
  -66.0500000000000         4.084418102591032E-019
  -65.8600000000000         4.901552791562966E-019
  -65.6700000000000         9.503059453721040E-020
  -65.4800000000000        -4.022913544728497E-019
  -65.2900000000000        -5.278257259437225E-019
  -65.1000000000000        -1.606532547242524E-019
  -64.9100000000000         3.516282454375828E-019
  -64.7200000000000         5.241690695977656E-019
  -64.5300000000000         1.967147387665535E-019
  -64.3400000000000        -3.141037831273459E-019
  -64.1500000000000        -5.173373793618349E-019
  -63.9600000000000        -2.168478130422122E-019
  -63.7700000000000         3.009876478691950E-019
  -63.5800000000000         5.407487833463022E-019
  -63.3900000000000         2.713034611447294E-019
  -63.2000000000000        -2.534071651496545E-019
  -63.0100000000000        -5.365446705946342E-019
  -62.8200000000000        -3.118092783984206E-019
  -62.6300000000000         2.033306276936123E-019
  -62.4400000000000         5.156883030265772E-019
  -62.2500000000000         3.272445570758306E-019
  -62.0600000000000        -1.804646354861143E-019
  -61.8700000000000        -5.203230245488090E-019
  -61.6800000000000        -3.657586419606778E-019
  -61.4900000000000         1.368883108387514E-019
  -61.3000000000000         5.082393099858713E-019
  -61.1100000000000         3.937798483391604E-019
  -60.9200000000000        -9.759889173071939E-020
  -60.7300000000000        -4.972147180443957E-019
  -60.5400000000000        -4.235991023523501E-019
  -60.3500000000000         5.332815479818256E-020
  -60.1600000000000         4.788618319675947E-019
  -59.9700000000000         4.478651745798752E-019
  -59.7800000000000        -8.192902079668422E-021
  -59.5900000000000        -4.516605286163341E-019
  -59.4000000000000        -4.572019901928675E-019
  -59.2100000000000        -1.826130799288665E-020
  -59.0200000000000         4.463545522204491E-019
  -58.8300000000000         4.919158004464844E-019
  -58.6400000000000         7.246465363879269E-020
  -58.4500000000000        -4.145355799047628E-019
  -58.2600000000000        -5.069862303009077E-019
  -58.0700000000000        -1.190971143417975E-019
  -57.8800000000000         3.769689165623920E-019
  -57.6900000000000         5.067487742608224E-019
  -57.5000000000000         1.463547569518960E-019
  -57.3100000000000        -3.596320660067972E-019
  -57.1200000000000        -5.271194744761676E-019
  -56.9300000000000        -1.943889214481117E-019
  -56.7400000000000         3.234249618217462E-019
  -56.5500000000000         5.348828650479315E-019
  -56.3600000000000         2.413049481192781E-019
  -56.1700000000000        -2.738302728781405E-019
  -55.9800000000000        -5.163276322243695E-019
  -55.7900000000000        -2.537831658078741E-019
  -55.6000000000000         2.625341430085392E-019
  -55.4100000000000         5.378676590959795E-019
  -55.2200000000000         3.065839774468831E-019
  -55.0300000000000        -2.136089273684991E-019
  -54.8400000000000        -5.285539847422305E-019
  -54.6500000000000        -3.388888008949887E-019
  -54.4600000000000         1.740567839148462E-019
  -54.2700000000000         5.212035500933687E-019
  -54.0800000000000         3.723730467621880E-019
  -53.8900000000000        -1.293889279884163E-019
  -53.7000000000000        -5.055754842114169E-019
  -53.5100000000000        -3.996751919928294E-019
  -53.3200000000000         8.246411935400895E-020
  -53.1300000000000         4.739318089201635E-019
  -52.9400000000000         3.933112700217370E-019
  -52.7500000000000        -8.954802864268982E-020
  -52.5600000000000        -5.184957355296155E-019
  -52.3700000000000        -4.855569538937357E-019
  -52.1800000000000        -1.995648528003370E-020
  -51.9900000000000         4.398837030695514E-019
  -51.8000000000000         4.641412335320460E-019
  -51.6100000000000         4.029443974361745E-020
  -51.4200000000000        -4.165602126405585E-019
  -51.2300000000000        -4.611441763189163E-019
  -51.0400000000000        -4.404590190301847E-020
  -50.8500000000000         4.405233002962350E-019
  -50.6600000000000         5.314312214174564E-019
  -50.4700000000000         1.418293571628719E-019
  -50.2800000000000        -3.572458744121220E-019
  -50.0900000000000        -4.907217292706667E-019
  -49.9000000000000        -1.325219569042944E-019
  -49.7100000000000         3.744009873659227E-019
  -49.5200000000000         5.451310663420494E-019
  -49.3300000000000         2.151328493880381E-019
  -49.1400000000000        -3.029796243169739E-019
  -48.9500000000000        -5.182094861356363E-019
  -48.7600000000000        -2.304247414897135E-019
  -48.5700000000000         2.785330747969822E-019
  -48.3800000000000         5.145831954046069E-019
  -48.1900000000000         2.438110198420386E-019
  -48.0000000000000        -2.837137727874114E-019
  -47.8100000000000        -5.718596763274678E-019
  -47.6200000000000        -3.509680980140069E-019
  -47.4300000000000         1.654394850765617E-019
  -47.2400000000000         4.848162320715160E-019
  -47.0500000000000         3.061729769042805E-019
  -46.8600000000000        -1.924634155653230E-019
  -46.6700000000000        -5.247731939854317E-019
  -46.4800000000000        -3.617169783722772E-019
  -46.2900000000000         1.532210435913885E-019
  -46.1000000000000         5.399095556012919E-019
  -45.9100000000000         4.385201850421184E-019
  -45.7200000000000        -4.816585159736824E-020
  -45.5300000000000        -4.533995851672762E-019
  -45.3400000000000        -3.922050799127872E-019
  -45.1500000000000         7.124281468763360E-020
  -44.9600000000000         4.859640134595994E-019
  -44.7700000000000         4.467032489825905E-019
  -44.5800000000000        -1.733028945181179E-020
  -44.3900000000000        -4.692190694241133E-019
  -44.2000000000000        -4.807782676181077E-019
  -44.0100000000000        -4.122548084273006E-020
  -43.8200000000000         4.316216484129505E-019
  -43.6300000000000         4.887571405152574E-019
  -43.4400000000000         7.753795937321189E-020
  -43.2500000000000        -4.087469612792051E-019
  -43.0600000000000        -5.069567596559531E-019
  -42.8700000000000        -1.263632551966932E-019
  -42.6800000000000         3.655795318478744E-019
  -42.4900000000000         4.952706238114593E-019
  -42.3000000000000         1.360452650659079E-019
  -42.1100000000000        -3.700875443457276E-019
  -41.9200000000000        -5.382672611428159E-019
  -41.7300000000000        -2.038252551783410E-019
  -41.5400000000000         3.193467424070937E-019
  -41.3500000000000         5.371482835541390E-019
  -41.1600000000000         2.459967952560150E-019
  -40.9700000000000        -2.737119023494192E-019
  -40.7800000000000        -5.258508189115691E-019
  -40.5900000000000        -2.717456871007135E-019
  -40.4000000000000         2.431844828357021E-019
  -40.2100000000000         5.247735664737761E-019
  -40.0200000000000         3.025825635271814E-019
  -39.8300000000000        -2.113062213922062E-019
  -39.6400000000000        -5.246559760746729E-019
  -39.4500000000000        -3.357824455007406E-019
  -39.2600000000000         1.774591327056041E-019
  -39.0700000000000         5.270272692885549E-019
  -38.8800000000000         3.804214071944597E-019
  -38.6900000000000        -1.221401370033548E-019
  -38.5000000000000        -5.014235795713957E-019
  -38.3100000000000        -3.960000517627320E-019
  -38.1200000000000         9.319457476642749E-020
  -37.9300000000000         4.992096158850036E-019
  -37.7400000000000         4.348716694715913E-019
  -37.5500000000000        -3.751683864462695E-020
  -37.3600000000000        -4.659903979729501E-019
  -37.1700000000000        -4.408667177503422E-019
  -36.9800000000000         1.428091778368918E-020
  -36.7900000000000         4.656625749798734E-019
  -36.6000000000000         4.835629415091558E-019
  -36.4100000000000         5.241443558197869E-020
  -36.2200000000000        -4.144664863451644E-019
  -36.0300000000000        -4.699143747624625E-019
  -35.8400000000000        -6.088515246275684E-020
  -35.6500000000000         4.198983436716115E-019
  -35.4600000000000         5.085191877974877E-019
  -35.2700000000000         1.127085871323113E-019
  -35.0800000000000        -3.999524850646499E-019
  -34.8900000000000        -5.519943676550196E-019
  -34.7000000000000        -2.098997757131271E-019
  -34.5100000000000         2.906313554410662E-019
  -34.3200000000000         4.670234112648292E-019
  -34.1300000000000         1.519852543060266E-019
  -33.9400000000000        -3.463557027056606E-019
  -33.7500000000000        -5.400199960193004E-019
  -33.5600000000000        -2.297563683950614E-019
  -33.3700000000000         3.020642778527540E-019
  -33.1800000000000         5.589588184637414E-019
  -32.9900000000000         3.028487548206286E-019
  -32.8000000000000        -2.190668461882526E-019
  -32.6100000000000        -5.094381309671064E-019
  -32.4200000000000        -2.942504071325276E-019
  -32.2300000000000         2.165769184194224E-019
  -32.0400000000000         5.304928147491334E-019
  -31.8500000000000         3.434936516215343E-019
  -31.6600000000000        -1.692467313393320E-019
  -31.4700000000000        -5.209150052084611E-019
  -31.2800000000000        -3.781115315948644E-019
  -31.0900000000000         1.208195220565496E-019
  -30.9000000000000         4.976664938441062E-019
  -30.7100000000000         3.907195398624094E-019
  -30.5200000000000        -9.937795716733005E-020
  -30.3300000000000        -5.047223382833976E-019
  -30.1400000000000        -4.362946337670977E-019
  -29.9500000000000         4.465612854989545E-020
  -29.7600000000000         4.848757352921588E-019
  -29.5700000000000         4.710631870303638E-019
  -29.3800000000000         2.288054730737380E-020
  -29.1900000000000        -4.273530151967467E-019
  -29.0000000000000        -4.480029943206773E-019
  -28.8100000000000        -2.005375969366588E-020
  -28.6200000000000         4.452769600240459E-019
  -28.4300000000000         5.002100524475230E-019
  -28.2400000000000         8.917665589469035E-020
  -28.0500000000000        -3.977133946896050E-019
  -27.8600000000000        -4.977853891408715E-019
  -27.6700000000000        -1.183820188490148E-019
  -27.4800000000000         3.741334876561015E-019
  -27.2900000000000         5.037522443331337E-019
  -27.1000000000000         1.393457273967780E-019
  -26.9100000000000        -3.790135987355913E-019
  -26.7200000000000        -5.629803150019771E-019
  -26.5300000000000        -2.407830504436682E-019
  -26.3400000000000         2.796637374067091E-019
  -26.1500000000000         5.052982196390636E-019
  -25.9600000000000         2.283871316906347E-019
  -25.7700000000000        -2.765979554702878E-019
  -25.5800000000000        -5.169505988471835E-019
  -25.3900000000000        -2.537878046542161E-019
  -25.2000000000000         2.684098269739022E-019
  -25.0100000000000         5.540810592256915E-019
  -24.8200000000000         3.297571045701031E-019
  -24.6300000000000        -1.934937651106167E-019
  -24.4400000000000        -5.198543210473966E-019
  -24.2500000000000        -3.406216822342023E-019
  -24.0600000000000         1.724075196244053E-019
  -23.8700000000000         5.316273146643673E-019
  -23.6800000000000         3.983461000925621E-019
  -23.4900000000000        -9.579636754557409E-020
  -23.3000000000000        -4.764189168154554E-019
  -23.1100000000000        -3.806588547514837E-019
  -22.9200000000000         9.567741084105676E-020
  -22.7300000000000         4.900054179235145E-019
  -22.5400000000000         4.162647667645671E-019
  -22.3500000000000        -6.467165577310256E-020
  -22.1600000000000        -5.020681699051900E-019
  -21.9700000000000        -4.851428333156850E-019
  -21.7800000000000        -3.491280947531804E-020
  -21.5900000000000         4.157457043287282E-019
  -21.4000000000000         4.348993913566664E-019
  -21.2100000000000         3.898853672749092E-021
  -21.0200000000000        -4.643337804171451E-019
  -20.8300000000000        -5.193108208008822E-019
  -20.6400000000000        -1.032617218212226E-019
  -20.4500000000000         3.936679788559619E-019
  -20.2600000000000         5.059091781519114E-019
  -20.0700000000000         1.364369019422192E-019
  -19.8800000000000        -3.515034456278811E-019
  -19.6900000000000        -4.820024827125284E-019
  -19.5000000000000        -1.218015614205459E-019
  -19.3100000000000         3.911572720866788E-019
  -19.1200000000000         5.694237192625777E-019
  -18.9300000000000         2.415120029778725E-019
  -18.7400000000000        -2.836658847460118E-019
  -18.5500000000000        -5.108632933384438E-019
  -18.3600000000000        -2.300878098871300E-019
  -18.1700000000000         2.843051003396078E-019
  -17.9800000000000         5.360861407287867E-019
  -17.7900000000000         2.803121180749758E-019
  -17.6000000000000        -2.437098717628917E-019
  -17.4100000000000        -5.414799997152308E-019
  -17.2200000000000        -3.357200742181895E-019
  -17.0300000000000         1.692632179301878E-019
  -16.8400000000000         4.841231627400539E-019
  -16.6500000000000         3.036172920998086E-019
  -16.4600000000000        -2.006995661137465E-019
  -16.2700000000000        -5.438590207083132E-019
  -16.0800000000000        -3.906540368907376E-019
  -15.8900000000000         1.233300663753645E-019
  -15.7000000000000         5.192458249023148E-019
  -15.5100000000000         4.301999247639160E-019
  -15.3200000000000        -4.979744982595888E-020
  -15.1300000000000        -4.566832593145794E-019
  -14.9400000000000        -4.004024256893878E-019
  -14.7500000000000         6.253742749650982E-020
  -14.5600000000000         4.840356264110301E-019
  -14.3700000000000         4.537545794240996E-019
  -14.1800000000000        -7.484929245362925E-021
  -13.9900000000000        -4.658097668017165E-019
  -13.8000000000000        -4.871822152907490E-019
  -13.6100000000000        -5.173713369347941E-020
  -13.4200000000000         4.262384233403563E-019
  -13.2300000000000         4.926920560274279E-019
  -13.0400000000000         8.629456398480321E-020
  -12.8500000000000        -4.039028349990739E-019
  -12.6600000000000        -5.100803183684410E-019
  -12.4700000000000        -1.314152230350658E-019
  -12.2800000000000         3.706833153382132E-019
  -12.0900000000000         5.178993871479862E-019
  -11.9000000000000         1.714603656984317E-019
  -11.7100000000000        -3.356658023656137E-019
  -11.5200000000000        -5.172668889347769E-019
  -11.3300000000000        -1.988718697836615E-019
  -11.1400000000000         3.154715916536741E-019
  -10.9500000000000         5.339223514834698E-019
  -10.7600000000000         2.467334141307491E-019
  -10.5700000000000        -2.734906161072920E-019
  -10.3800000000000        -5.318488962016786E-019
  -10.1900000000000        -2.833128441077665E-019
  -10.0000000000000         2.333084280690522E-019
  -9.81000000000000         5.232492567547156E-019
  -9.62000000000000         3.083917234203720E-019
  -9.42999999999999        -2.071176855283688E-019
  -9.23999999999999        -5.323703826023097E-019
  -9.05000000000000        -3.590370138727491E-019
  -8.86000000000000         1.443521192053227E-019
  -8.67000000000000         4.939362809025727E-019
  -8.48000000000000         3.532453990566169E-019
  -8.28999999999999        -1.445190225429292E-019
  -8.09999999999999        -5.226131070388491E-019
  -7.91000000000000        -4.158260029514668E-019
  -7.72000000000000         7.977372802091709E-020
  -7.53000000000000         4.972013138248185E-019
  -7.34000000000000         4.432641861675030E-019
  -7.15000000000001        -2.704803210061813E-020
  -6.95999999999999        -4.634900247453174E-019
  -6.77000000000000        -4.496427055162934E-019
  -6.58000000000000         9.972388163696443E-022
  -6.39000000000000         4.589940320391314E-019
  -6.20000000000000         4.894876987723135E-019
  -6.01000000000001         6.758042909590576E-020
  -5.81999999999999        -3.983644294157160E-019
  -5.63000000000000        -4.580045089052499E-019
  -5.44000000000000        -5.053139425604142E-020
  -5.25000000000000         4.362998724854428E-019
  -5.06000000000000         5.357771472833121E-019
  -4.87000000000000         1.475094038773757E-019
  -4.67999999999999        -3.661492080834640E-019
  -4.48999999999999        -5.245298802323105E-019
  -4.30000000000000        -1.859148161284814E-019
  -4.11000000000000         3.185539961366317E-019
  -3.92000000000000         5.023912840392873E-019
  -3.73000000000000         1.891178906723488E-019
  -3.53999999999999        -3.196913135526182E-019
  -3.34999999999999        -5.338451327905221E-019
  -3.16000000000000        -2.440700182551416E-019
  -2.97000000000000         2.770093165206409E-019
  -2.78000000000000         5.342566270971602E-019
  -2.59000000000000         2.826004575599837E-019
  -2.40000000000001        -2.381341428920502E-019
  -2.20999999999999        -5.311925133096957E-019
  -2.02000000000000        -3.168267037383905E-019
  -1.83000000000000         2.005259028270918E-019
  -1.64000000000000         5.272038776010678E-019
  -1.45000000000000         3.509678171128830E-019
  -1.26000000000001        -1.618212959970328E-019
  -1.06999999999999        -5.252505216064004E-019
 -0.879999999999995        -3.970400346998093E-019
 -0.689999999999998         9.557280636243554E-020
 -0.500000000000000         4.780497027111097E-019
 -0.310000000000002         3.824856024873222E-019
 -0.120000000000005        -1.004263991927553E-019
  7.000000000000739E-002   -5.080876238843900E-019
  0.260000000000005        -4.483030561022809E-019
  0.450000000000003         2.578907855751589E-020
  0.640000000000001         4.660049624003659E-019
  0.829999999999998         4.562794413082033E-019
   1.02000000000000         9.394998134390070E-021
   1.21000000000001        -4.450119502629115E-019
   1.40000000000001        -4.701866199711754E-019
   1.59000000000000        -3.893502489455579E-020
   1.78000000000000         4.409421590126301E-019
   1.97000000000000         5.166461948720041E-019
   2.16000000000000         1.224744282565673E-019
   2.34999999999999        -3.588414388482804E-019
   2.54000000000001        -4.632332285676345E-019
   2.73000000000000        -8.969156894883251E-020
   2.92000000000000         4.023493837131607E-019
   3.11000000000000         5.360547238285478E-019
   3.30000000000000         1.737092343007785E-019
   3.48999999999999        -3.497171617999511E-019
   3.68000000000001        -5.446228686752978E-019
   3.87000000000000        -2.330304949547539E-019
   4.06000000000000         2.823181547471731E-019
   4.25000000000000         5.070657227882638E-019
   4.44000000000000         2.263131290690848E-019
   4.63000000000000        -2.912333836269240E-019
   4.82000000000001        -5.502416043096164E-019
   5.01000000000001        -3.019111547201156E-019
   5.20000000000000         2.181306964328082E-019
   5.39000000000000         5.148704743125719E-019
   5.58000000000000         3.071740502413652E-019
   5.77000000000000        -2.033123704210991E-019
   5.96000000000001        -5.246538124742623E-019
   6.15000000000001        -3.443103691317087E-019
   6.34000000000000         1.722871377826436E-019
   6.53000000000000         5.387646915984374E-019