  -105.000000000000        -5.740360447528677E-020
  -104.810000000000        -1.281183061737306E-019
  -104.620000000000        -1.082577100182912E-019
  -104.430000000000        -3.540422678770175E-020
  -104.240000000000         6.778574959724699E-021
  -104.050000000000        -3.104784341115537E-020
  -103.860000000000        -1.170504501458185E-019
  -103.670000000000        -1.694514895865286E-019
  -103.480000000000        -1.357721578948959E-019
  -103.290000000000        -4.421206792530484E-020
  -103.100000000000         2.212176083619432E-020
  -102.910000000000         3.693398451322545E-021
  -102.720000000000        -7.917567585912604E-020
  -102.530000000000        -1.459627197797290E-019
  -102.340000000000        -1.327569182209439E-019
  -102.150000000000        -5.293941865603090E-020
  -101.960000000000         1.604913515938574E-020
  -101.770000000000         7.083938422242565E-021
  -101.580000000000        -7.218937410326639E-020
  -101.390000000000        -1.464133161815015E-019
  -101.200000000000        -1.444045785818219E-019
  -101.010000000000        -6.717758301210970E-020
  -100.820000000000         1.297125045336609E-020
  -100.630000000000         2.148774724400159E-020
  -100.440000000000        -4.726715884388656E-020
  -100.250000000000        -1.246943306150952E-019
  -100.060000000000        -1.335863733389519E-019
  -99.8700000000000        -6.208745419779012E-020
  -99.6800000000000         2.465344830721188E-020
  -99.4900000000000         4.640169720145844E-020
  -99.3000000000000        -1.565960699977463E-020
  -99.1100000000000        -1.008822076771003E-019
  -98.9200000000000        -1.268509532920601E-019
  -98.7300000000000        -6.779652270104142E-020
  -98.5400000000000         2.102565648501523E-020
  -98.3500000000000         5.611230144920632E-020
  -98.1600000000000         5.232205420113343E-021
  -97.9700000000000        -8.208815897769347E-020
  -97.7800000000000        -1.220617290714610E-019
  -97.5900000000000        -7.668226188580750E-020
  -97.4000000000000         1.018107979900804E-020
  -97.2100000000000         5.511645702852725E-020
  -97.0200000000000         1.539377481322508E-020
  -96.8300000000000        -6.969821278024175E-020
  -96.6400000000000        -1.159875023218860E-019
  -96.4500000000000        -7.465272130241417E-020
  -96.2600000000000         2.093688135457153E-020
  -96.0700000000000         8.644157184666556E-020
  -95.8800000000000         6.611494033105876E-020
  -95.6900000000000        -1.509359118360684E-020
  -95.5000000000000        -7.647780369672426E-020
  -95.3100000000000        -5.949924407176690E-020
  -95.1200000000000         1.601029470174926E-020
  -94.9300000000000         7.119990843485506E-020
  -94.7400000000000         4.455495907670210E-020
  -94.5500000000000        -4.786728924829965E-020
  -94.3600000000000        -1.261280909750217E-019
  -94.1700000000000        -1.213194812278933E-019
  -93.9800000000000        -4.049899118141230E-020
  -93.7900000000000         4.023779260530430E-020
  -93.6000000000000         4.801164556573403E-020
  -93.4100000000000        -1.810944313858121E-020
  -93.2200000000000        -8.734687610625924E-020
  -93.0300000000000        -8.594655501815794E-020
  -92.8400000000000        -8.593469442605392E-021
  -92.6500000000000         7.573224791164333E-020
  -92.4600000000000         8.906911251713170E-020
  -92.2700000000000         1.867643673660470E-020
  -92.0800000000000        -7.068043373051511E-020
  -91.8900000000000        -9.815937329269367E-020
  -91.7000000000000        -4.341839728571381E-020
  -91.5100000000000         3.472056456629027E-020
  -91.3200000000000         5.523740516997985E-020
  -91.1300000000000        -7.027028194644983E-021
  -90.9400000000000        -9.681546549866152E-020
  -90.7500000000000        -1.308396547015368E-019
  -90.5600000000000        -7.712225035611490E-020
  -90.3700000000000         1.439990753573058E-020
  -90.1800000000000         5.924275616410274E-020
  -89.9900000000000         1.853749378559536E-020
  -89.8000000000000        -6.453043338531392E-020
  -89.6100000000000        -1.067256803308125E-019
  -89.4200000000000        -6.490400847922694E-020
  -89.2300000000000         2.243062623805432E-020
  -89.0400000000000         7.189130147106008E-020
  -88.8500000000000         3.515085652193422E-020
  -88.6600000000000        -5.435191434398971E-020
  -88.4700000000000        -1.127192316180764E-019
  -88.2800000000000        -8.527070648697789E-020
  -88.0900000000000         1.347121767846445E-021
  -87.9000000000000         6.441005313758166E-020
  -87.7100000000000         4.372484083877182E-020
  -87.5200000000000        -4.132361090751347E-020
  -87.3300000000000        -1.105584282655298E-019
  -87.1400000000000        -9.952508198281512E-020
  -86.9500000000000        -2.068288847572625E-020
  -86.7600000000000         4.901894525233591E-020
  -86.5700000000000         4.219564867753757E-020
  -86.3800000000000        -3.411936050229926E-020
  -86.1900000000000        -1.049235486716089E-019
  -86.0000000000000        -9.897514383686981E-020
  -85.8100000000000        -1.730406340008366E-020
  -85.6200000000000         6.700125481248645E-020
  -85.4300000000000         7.763222113204103E-020
  -85.2400000000000         6.985297193757587E-021
  -85.0500000000000        -7.722953276373690E-020
  -84.8600000000000        -9.681789170715047E-020
  -84.6700000000000        -3.744454939264517E-020
  -84.4800000000000         3.842856285221290E-020
  -84.2900000000000         5.222813865967177E-020
  -84.1000000000000        -1.462725437712155E-020
  -83.9100000000000        -1.021663993279525E-019
  -83.7200000000000        -1.287108289968592E-019
  -83.5300000000000        -6.883044123709612E-020
  -83.3400000000000         2.208501457808924E-020
  -83.1500000000000         6.019894374894533E-020
  -82.9600000000000         1.270985304176436E-020
  -82.7700000000000        -7.131371275138372E-020
  -82.5800000000000        -1.081842087836243E-019
  -82.3900000000000        -5.985008088209930E-020
  -82.2000000000000         2.950315870165309E-020
  -82.0100000000000         7.548475059247198E-020
  -81.8200000000000         3.402736394960872E-020
  -81.6300000000000        -5.643014321348727E-020
  -81.4400000000000        -1.112925654285906E-019
  -81.2500000000000        -8.000043274619268E-020
  -81.0600000000000         6.352636617041552E-021
  -80.8700000000000         6.529316656519468E-020
  -80.6800000000000         4.212068549595180E-020
  -80.4900000000000        -3.776385553638612E-020
  -80.3000000000000        -9.341820264154502E-020
  -80.1100000000000        -6.631491263175344E-020
  -79.9200000000000         2.288041199361138E-020
  -79.7300000000000         9.304972738957471E-020
  -79.5400000000000         7.913877817319078E-020
  -79.3500000000000        -6.386160398468118E-021
  -79.1600000000000        -8.563660469631371E-020
  -78.9700000000000        -8.936441601744484E-020
  -78.7800000000000        -2.231791034328068E-020
  -78.5900000000000         4.242063611765591E-020
  -78.4000000000000         3.448628050942960E-020
  -78.2100000000000        -4.550369133391367E-020
  -78.0200000000000        -1.258948947982840E-019
  -77.8300000000000        -1.322509914700576E-019
  -77.6400000000000        -5.868420044628148E-020
  -77.4500000000000         2.597839458869573E-020
  -77.2600000000000         4.331115713509119E-020
  -77.0700000000000        -2.025557690179990E-020
  -76.8800000000000        -1.006672156656294E-019
  -76.6900000000000        -1.174294287566945E-019
  -76.5000000000000        -5.041031403593955E-020
  -76.3100000000000         4.098621606256056E-020
  -76.1200000000000         7.447016180032320E-020
  -75.9300000000000         2.320681374703238E-020
  -75.7400000000000        -5.886569692973237E-020
  -75.5500000000000        -8.883277649402095E-020
  -75.3600000000000        -3.426658368991060E-020
  -75.1700000000000         5.551921536163706E-020
  -74.9800000000000         9.634567535414773E-020
  -74.7900000000000         4.947261313421132E-020
  -74.6000000000000        -4.136313005795676E-020
  -74.4100000000000        -9.154446004107137E-020
  -74.2200000000000        -5.607764125312070E-020
  -74.0300000000000         2.779156168353202E-020
  -73.8400000000000         7.641961057756295E-020
  -73.6500000000000         3.980829801323548E-020
  -73.4600000000000        -5.053529892226142E-020
  -73.2700000000000        -1.116005290243018E-019
  -73.0800000000000        -8.806992429696246E-020
  -72.8900000000000        -5.022760900344176E-021
  -72.7000000000000         5.619371580817417E-020
  -72.5100000000000         3.577547224258855E-020
  -72.3200000000000        -4.744899326747093E-020
  -72.1300000000000        -1.141453704722401E-019
  -71.9400000000000        -1.004431135366742E-019
  -71.7500000000000        -1.916856327154565E-020
  -71.5600000000000         5.220843597862395E-020
  -71.3700000000000         4.552936770113861E-020
  -71.1800000000000        -3.278187289022179E-020
  -70.9900000000000        -1.075507806173505E-019
  -70.8000000000000        -1.063217887581359E-019
  -70.6100000000000        -2.830215819158199E-020
  -70.4200000000000         5.493873366078802E-020
  -70.2300000000000         6.759961833367568E-020
  -70.0400000000000         1.606692472286279E-021
  -69.8500000000000        -7.618667925460791E-020
  -69.6600000000000        -8.836875245945795E-020
  -69.4700000000000        -2.138570496848652E-020
  -69.2800000000000         6.118015289767312E-020
  -69.0900000000000         7.925446270723597E-020
  -68.9000000000000         1.291830506236243E-020
  -68.7100000000000        -7.817829845504692E-020
  -68.5200000000000        -1.111975743191832E-019
  -68.3300000000000        -5.853801352559505E-020
  -68.1400000000000         2.641321586840086E-020
  -67.9500000000000         6.066480227774920E-020
  -67.7600000000000         1.105068304578996E-020
  -67.5700000000000        -7.415302069129586E-020
  -67.3800000000000        -1.116107146233562E-019
  -67.1900000000000        -6.291711163928889E-020
  -67.0000000000000         2.833041778154960E-020
  -66.8100000000000         7.782449770693614E-020
  -66.6200000000000         4.075840211055358E-020
  -66.4300000000000        -4.561038082689172E-020
  -66.2400000000000        -9.765957114109122E-020
  -66.0500000000000        -6.532390760315410E-020
  -65.8600000000000         2.004281589130885E-020
  -65.6700000000000         7.563547389219204E-020
  -65.4800000000000         4.644570169830629E-020
  -65.2900000000000        -4.191542094126802E-020
  -65.1000000000000        -1.073209241047257E-019
  -64.9100000000000        -8.917829998695934E-020
  -64.7200000000000        -5.977555058601252E-021
  -64.5300000000000         6.250640673600907E-020
  -64.3400000000000         5.135444752173380E-020
  -64.1500000000000        -2.763246291473840E-020
  -63.9600000000000        -9.738005619312285E-020
  -63.7700000000000        -8.938677188455950E-020
  -63.5800000000000        -9.421810919087276E-021
  -63.3900000000000         6.772315230756072E-020
  -63.2000000000000         6.942330042709282E-020
  -63.0100000000000        -5.622123968614601E-021
  -62.8200000000000        -8.621574912295479E-020
  -62.6300000000000        -9.652122093991158E-020
  -62.4400000000000        -2.821442252149359E-020
  -62.2500000000000         5.186419918823516E-020
  -62.0600000000000         6.580829173925820E-020
  -61.8700000000000        -7.665359640594635E-022
  -61.6800000000000        -8.494429428246071E-020
  -61.4900000000000        -1.066869757390437E-019
  -61.3000000000000        -4.539985176070459E-020
  -61.1100000000000         4.029196828017337E-020
  -60.9200000000000         6.842915915797529E-020
  -60.7300000000000         1.192186622933936E-020
  -60.5400000000000        -7.555544670835147E-020
  -60.3500000000000        -1.107311867259974E-019
  -60.1600000000000        -6.017313798324859E-020
  -59.9700000000000         2.786592763876103E-020
  -59.7800000000000         6.963479352628066E-020
  -59.5900000000000         2.594871761016044E-020
  -59.4000000000000        -6.039322167671371E-020
  -59.2100000000000        -1.055622350043604E-019
  -59.0200000000000        -6.489337680274194E-020
  -58.8300000000000         2.424230670061672E-020
  -58.6400000000000         7.785844983871805E-020
  -58.4500000000000         4.536171184345091E-020
  -58.2600000000000        -4.218286012608783E-020
  -58.0700000000000        -1.016607778671448E-019
  -57.8800000000000        -7.716295665618833E-020
  -57.6900000000000         6.790223972017064E-021
  -57.5000000000000         6.883505943722532E-020
  -57.3100000000000         4.857371507700970E-020
  -57.1200000000000        -3.566768126887193E-020
  -56.9300000000000        -1.042109788816785E-019
  -56.7400000000000        -9.195255504618311E-020
  -56.5500000000000        -1.041331149356370E-020
  -56.3600000000000         6.332453075732119E-020
  -56.1700000000000         6.023462490522929E-020
  -55.9800000000000        -1.483037607950918E-020
  -55.7900000000000        -8.799090189257230E-020
  -55.6000000000000        -8.715955905850912E-020
  -55.4100000000000        -1.112138785857985E-020
  -55.2200000000000         6.910151761299210E-020
  -55.0300000000000         7.793414737043857E-020
  -54.8400000000000         7.428670719919263E-021
  -54.6500000000000        -7.497839391561655E-020
  -54.4600000000000        -9.063743552873013E-020
  -54.2700000000000        -2.458770379794972E-020
  -54.0800000000000         6.030207290332814E-020
  -53.8900000000000         8.338556418683645E-020
  -53.7000000000000         2.306394502785231E-020
  -53.5100000000000        -6.293486921155111E-020
  -53.3200000000000        -9.306992111223906E-020
  -53.1300000000000        -4.021230792619266E-020
  -52.9400000000000         4.217578457328789E-020
  -52.7500000000000         7.103329250429737E-020
  -52.5600000000000         1.326913490792836E-020
  -52.3700000000000        -8.211587058728996E-020
  -52.1800000000000        -1.301396473087981E-019
  -51.9900000000000        -9.024656161879389E-020
  -51.8000000000000        -4.364192641642137E-021
  -51.6100000000000         4.355719631954587E-020
  -51.4200000000000         7.811947894336481E-021
  -51.2300000000000        -7.556996905681365E-020
  -51.0400000000000        -1.235630264878974E-019
  -50.8500000000000        -8.589767364054185E-020
  -50.6600000000000         6.438005922258859E-021
  -50.4700000000000         7.039776088739005E-020
  -50.2800000000000         4.993319174871129E-020
  -50.0900000000000        -3.062373060115362E-020
  -49.9000000000000        -8.983188078777496E-020
  -49.7100000000000        -6.685337289392027E-020
  -49.5200000000000         2.050217220833708E-020
  -49.3300000000000         9.272724420269540E-020
  -49.1400000000000         8.438180058444647E-020
  -48.9500000000000         6.368835091448529E-021
  -48.7600000000000        -6.475141653295969E-020
  -48.5700000000000        -6.018112486876919E-020
  -48.3800000000000         1.516492080038178E-020
  -48.1900000000000         8.721237124881311E-020
  -48.0000000000000         8.342160971900267E-020
  -47.8100000000000         2.142132053089155E-021
  -47.6200000000000        -8.552650650935093E-020
  -47.4300000000000        -1.031517247384083E-019
  -47.2400000000000        -4.137743160934082E-020
  -47.0500000000000         3.376654324335984E-020
  -46.8600000000000         4.456895157056081E-020
  -46.6700000000000        -2.356852633676089E-020
  -46.4800000000000        -1.077850927107432E-019
  -46.2900000000000        -1.275922065149277E-019
  -46.1000000000000        -6.174479959162301E-020
  -45.9100000000000         3.120602576950094E-020
  -45.7200000000000         6.828968744675220E-020
  -45.5300000000000         2.064097095411101E-020
  -45.3400000000000        -5.969147222849507E-020
  -45.1500000000000        -9.018288742488465E-020
  -44.9600000000000        -3.724823875089751E-020
  -44.7700000000000         5.135515118111053E-020
  -44.5800000000000         9.214558233653452E-020
  -44.3900000000000         4.592339324332164E-020
  -44.2000000000000        -4.432635377568930E-020
  -44.0100000000000        -9.391670987946890E-020
  -43.8200000000000        -5.682907396029797E-020
  -43.6300000000000         3.060691098788178E-020
  -43.4400000000000         8.440494547728635E-020
  -43.2500000000000         5.294009029621700E-020
  -43.0600000000000        -3.405176319262300E-020
  -42.8700000000000        -9.421716460362442E-020
  -42.6800000000000        -7.149161832176220E-020
  -42.4900000000000         1.028914646587450E-020
  -42.3000000000000         7.026415590922435E-020
  -42.1100000000000         4.803013937764150E-020
  -41.9200000000000        -3.826356714377010E-020
  -41.7300000000000        -1.087623561942800E-019
  -41.5400000000000        -9.778781490754851E-020
  -41.3500000000000        -1.642078744123142E-020
  -41.1600000000000         5.797799504573319E-020
  -40.9700000000000         5.534505987185983E-020
  -40.7800000000000        -2.061339864793413E-020
  -40.5900000000000        -9.638506671910097E-020
  -40.4000000000000        -9.909838112427704E-020
  -40.2100000000000        -2.614236643987662E-020
  -40.0200000000000         5.245646591021433E-020
  -39.8300000000000         6.112771841303698E-020
  -39.6400000000000        -8.788690346316532E-021
  -39.4500000000000        -9.053034039598083E-020
  -39.2600000000000        -1.055710551115188E-019
  -39.0700000000000        -3.864484692207375E-020
  -38.8800000000000         4.756277734381267E-020
  -38.6900000000000         7.209949801196766E-020
  -38.5000000000000         1.286094493736637E-020
  -38.3100000000000        -7.239430003937575E-020
  -38.1200000000000        -1.011608203540247E-019
  -37.9300000000000        -4.488242224213871E-020
  -37.7400000000000         4.385529986673783E-020
  -37.5500000000000         8.160400879529942E-020
  -37.3600000000000         3.377082131662960E-020
  -37.1700000000000        -5.238060467708320E-020
  -36.9800000000000        -9.290625567391520E-020
  -36.7900000000000        -4.731162386137676E-020
  -36.6000000000000         4.286480020508100E-020
  -36.4100000000000         9.378265102873878E-020
  -36.2200000000000         5.938770620623611E-020
  -36.0300000000000        -2.462847559898846E-020
  -35.8400000000000        -7.505443068538431E-020
  -35.6500000000000        -4.094817752054309E-020
  -35.4600000000000         4.725148796902134E-020
  -35.2700000000000         1.062681265873523E-019
  -35.0800000000000         7.897995628378013E-020
  -34.8900000000000        -1.145499472458848E-020
  -34.7000000000000        -8.383493834456246E-020
  -34.5100000000000        -7.616543827040816E-020
  -34.3200000000000        -4.188235433348139E-021
  -34.1300000000000         5.461758779588316E-020
  -33.9400000000000         3.615239519791790E-020
  -33.7500000000000        -4.805329618095339E-020
  -33.5600000000000        -1.211820508003178E-019
  -33.3700000000000        -1.143127994018370E-019
  -33.1800000000000        -3.251560525176990E-020
  -32.9900000000000         4.935611421024530E-020
  -32.8000000000000         5.731539553032102E-020
  -32.6100000000000        -1.189257729943812E-020
  -32.4200000000000        -8.824298841890334E-020
  -32.2300000000000        -9.562196984664835E-020
  -32.0400000000000        -2.465034519563555E-020
  -31.8500000000000         5.837836910957785E-020
  -31.6600000000000         7.493182653638709E-020
  -31.4700000000000         9.366461564346748E-021
  -31.2800000000000        -7.604105943196919E-020
  -31.0900000000000        -1.004838003381091E-019
  -30.9000000000000        -4.172762882754677E-020
  -30.7100000000000         4.266904437457221E-020
  -30.5200000000000         7.034649473060479E-020
  -30.3300000000000         1.295696666278570E-020
  -30.1400000000000        -7.643964568201137E-020
  -29.9500000000000        -1.136453036776456E-019
  -29.7600000000000        -6.333977661265040E-020
  -29.5700000000000         2.747442100798925E-020
  -29.3800000000000         7.439907577007436E-020
  -29.1900000000000         3.597419132058389E-020
  -29.0000000000000        -4.718462958357141E-020
  -28.8100000000000        -9.165002121493400E-020
  -28.6200000000000        -5.125381718354793E-020
  -28.4300000000000         3.856744900125110E-020
  -28.2400000000000         9.455918629376138E-020
  -28.0500000000000         6.524819610824448E-020
  -27.8600000000000        -1.982418835565075E-020
  -27.6700000000000        -7.836009211468999E-020
  -27.4800000000000        -5.406370257801671E-020
  -27.2900000000000         2.933544196096061E-020
  -27.1000000000000         9.042974927530222E-020
  -26.9100000000000         6.766130149811498E-020
  -26.7200000000000        -2.182812030695404E-020
  -26.5300000000000        -9.818564002429036E-020
  -26.3400000000000        -9.449197476280147E-020
  -26.1500000000000        -1.992058884345305E-020
  -25.9600000000000         4.977951953286836E-020
  -25.7700000000000         4.519949127380134E-020
  -25.5800000000000        -3.018762138635844E-020
  -25.3900000000000        -1.034077697189915E-019
  -25.2000000000000        -1.020186775986213E-019
  -25.0100000000000        -2.388204340965993E-020
  -24.8200000000000         6.008258215094056E-020
  -24.6300000000000         7.302759939959172E-020
  -24.4400000000000         5.259531214580481E-021
  -24.2500000000000        -7.648568909717140E-020
  -24.0600000000000        -9.246603454510212E-020
  -23.8700000000000        -2.558272528766869E-020
  -23.6800000000000         6.276474911423955E-020
  -23.4900000000000         9.150697370620347E-020
  -23.3000000000000         3.714652169190567E-020
  -23.1100000000000        -4.427586660695353E-020
  -22.9200000000000        -7.134910377844409E-020
  -22.7300000000000        -1.570923504580981E-020
  -22.5400000000000         7.038643249955795E-020
  -22.3500000000000         1.037877780437471E-019
  -22.1600000000000         4.994749460430932E-020
  -21.9700000000000        -4.383755070167380E-020
  -21.7800000000000        -9.324283676681906E-020
  -21.5900000000000        -5.706371175574512E-020
  -21.4000000000000         2.374757233436739E-020
  -21.2100000000000         6.543340561216181E-020
  -21.0200000000000         2.169208757144423E-020
  -20.8300000000000        -7.175414954426835E-020
  -20.6400000000000        -1.308985410933683E-019
  -20.4500000000000        -1.033099466750681E-019
  -20.2600000000000        -1.785011675932017E-020
  -20.0700000000000         4.317276084962226E-020
  -19.8800000000000         2.274143919948438E-020
  -19.6900000000000        -5.644162399285452E-020
  -19.5000000000000        -1.138030081854966E-019
  -19.3100000000000        -8.821421567221399E-020
  -19.1200000000000         3.040978505965417E-021
  -18.9300000000000         8.007987211880818E-020
  -18.7400000000000         7.607525335083494E-020
  -18.5500000000000         5.949814328116412E-022
  -18.3600000000000        -6.979537337361786E-020
  -18.1700000000000        -6.464473078063244E-020
  -17.9800000000000         1.329243712086507E-020
  -17.7900000000000         9.085027170722249E-020
  -17.6000000000000         9.432748510687048E-020
  -17.4100000000000         1.973444731644888E-020
  -17.2200000000000        -6.359955970722602E-020
  -17.0300000000000        -7.941296105458618E-020
  -16.8400000000000        -1.734125489091320E-020
  -16.6500000000000         5.749408831887372E-020
  -16.4600000000000         6.727127228754962E-020
  -16.2700000000000        -3.461793460546085E-021
  -16.0800000000000        -9.224053393245589E-020
  -15.8900000000000        -1.176363111314163E-019
  -15.7000000000000        -5.659160146003680E-020
  -15.5100000000000         3.360574475825512E-020
  -15.3200000000000         6.974397987736105E-020
  -15.1300000000000         2.162831250900992E-020
  -14.9400000000000        -5.979482756636700E-020
  -14.7500000000000        -9.189200239469033E-020
  -14.5600000000000        -3.996756227347405E-020
  -14.3700000000000         4.912250728086328E-020
  -14.1800000000000         9.151812404784329E-020
  -13.9900000000000         4.655512792337074E-020
  -13.8000000000000        -4.397911037541346E-020
  -13.6100000000000        -9.517644852891515E-020
  -13.4200000000000        -5.959882601246191E-020
  -13.2300000000000         2.769956952747762E-020
  -13.0400000000000         8.270329842863955E-020
  -12.8500000000000         5.253051268228384E-020
  -12.6600000000000        -3.429788688763007E-020
  -12.4700000000000        -9.523996332096320E-020
  -12.2800000000000        -7.250949455216416E-020
  -12.0900000000000         1.190586218402475E-020
  -11.9000000000000         7.739503870443443E-020
  -11.7100000000000         6.179552222105213E-020
  -11.5200000000000        -1.923308345248493E-020
  -11.3300000000000        -8.726626553073659E-020
  -11.1400000000000        -7.618929195308540E-020
  -10.9500000000000         4.503132644943284E-021
  -10.7600000000000         7.866543037829411E-020
  -10.5700000000000         7.612349619052256E-020
  -10.3800000000000        -3.837574788296801E-022
  -10.1900000000000        -7.782412280822698E-020
  -10.0000000000000        -8.257454233190478E-020
  -9.81000000000000        -1.070156227364683E-020
  -9.62000000000000         6.830433084298651E-020
  -9.42999999999999         7.792536444272679E-020
  -9.23999999999999         7.673997970312352E-021
  -9.05000000000000        -7.700970469481825E-020
  -8.86000000000000        -9.740476968822373E-020
  -8.67000000000000        -3.676737167797369E-020
  -8.48000000000000         4.371488791814931E-020
  -8.28999999999999         6.354389368694970E-020
  -8.09999999999999         1.663413766807180E-022
  -7.91000000000000        -8.898537407239932E-020
  -7.72000000000000        -1.209103401908015E-019
  -7.53000000000000        -6.609771121545665E-020
  -7.34000000000000         2.324651128381386E-020
  -7.15000000000001         6.278704592016794E-020
  -6.95999999999999         1.618593051980408E-020
  -6.77000000000000        -7.056167885504894E-020
  -6.58000000000000        -1.131829981915417E-019
  -6.39000000000000        -6.948382746026910E-020
  -6.20000000000000         2.062193696681816E-020
  -6.01000000000001         7.354340911429898E-020
  -5.81999999999999         4.211892908391698E-020
  -5.63000000000000        -3.923612005657477E-020
  -5.44000000000000        -8.754703085689743E-020
  -5.25000000000000        -5.089902542510429E-020
  -5.06000000000000         4.144829145292736E-020
  -4.87000000000000         1.063605138131928E-019
  -4.67999999999999         8.558973241361436E-020
  -4.48999999999999         9.752190236157830E-022
  -4.30000000000000        -6.651702713065942E-020
  -4.11000000000000        -5.391630502988513E-020
  -3.92000000000000         2.407349658682715E-020
  -3.73000000000000         8.976686818443258E-020
  -3.53999999999999         7.736239301080700E-020
  -3.34999999999999        -3.723569391791326E-021
  -3.16000000000000        -7.762550874112940E-020
  -2.97000000000000        -7.449627540590696E-020
  -2.78000000000000         2.573989237784109E-021
  -2.59000000000000         8.017541228021280E-020
  -2.40000000000001         8.439971217366649E-020
  -2.20999999999999         1.131367983450062E-020
  -2.02000000000000        -6.924814578506756E-020
  -1.83000000000000        -8.029672187164090E-020
  -1.64000000000000        -1.116239273096572E-020
  -1.45000000000000         7.226391826685958E-020
  -1.26000000000001         9.023283777286533E-020
  -1.06999999999999         2.496101510053921E-020
 -0.879999999999995        -6.265658774855071E-020
 -0.689999999999998        -9.129597444060122E-020
 -0.500000000000000        -3.680183607861442E-020
 -0.310000000000002         4.494901791523658E-020
 -0.120000000000005         7.174464222822045E-020
  7.000000000000739E-002    1.393581003589164E-020
  0.260000000000005        -7.692130456284208E-020
  0.450000000000003        -1.170601324295947E-019
  0.640000000000001        -7.033969853859591E-020
  0.829999999999998         1.727731981371811E-020
   1.02000000000000         6.151639156076451E-020
   1.21000000000001         2.013278110855495E-020
   1.40000000000001        -6.681108306368330E-020
   1.59000000000000        -1.151776393259278E-019
   1.78000000000000        -7.698696158471075E-020
   1.97000000000000         1.398393203432953E-020
   2.16000000000000         7.470039123154380E-020
   2.34999999999999         5.224552522533105E-020
   2.54000000000001        -2.585156817918085E-020
   2.73000000000000        -7.837942394324516E-020
   2.92000000000000        -4.867693154063403E-020
   3.11000000000000         4.047145867582830E-020
   3.30000000000000         1.078990346981143E-019
   3.48999999999999         9.117828158569284E-020
   3.68000000000001         6.215978690544239E-021
   3.87000000000000        -6.766109085431069E-020
   4.06000000000000        -6.297876317403088E-020
   4.25000000000000         1.201270519183562E-020
   4.44000000000000         8.168369611828375E-020
   4.63000000000000         7.551627193528896E-020
   4.82000000000001        -4.423851918682325E-021
   5.01000000000001        -8.537836402650688E-020
   5.20000000000000        -9.333750756380107E-020
   5.39000000000000        -2.370239634298998E-020
   5.58000000000000         5.439183348963403E-020
   5.77000000000000         6.425869307255934E-020
   5.96000000000001        -4.898094302499933E-021
   6.15000000000001        -8.744969155506726E-020
   6.34000000000000        -1.037918985332284E-019
   6.53000000000000        -3.624197474202573E-020