  -105.000000000000        -7.226551298357562E-019
  -104.810000000000        -5.473624020460018E-019
  -104.620000000000        -2.556993279949724E-019
  -104.430000000000         7.060628569403954E-020
  -104.240000000000         3.407139010813091E-019
  -104.050000000000         4.808334811829861E-019
  -103.860000000000         4.554286986294501E-019
  -103.670000000000         2.772960834648123E-019
  -103.480000000000         3.589901233229811E-021
  -103.290000000000        -2.810333471538134E-019
  -103.100000000000        -4.892141677085316E-019
  -102.910000000000        -5.563946523366979E-019
  -102.720000000000        -4.596220778591987E-019
  -102.530000000000        -2.242287247234691E-019
  -102.340000000000         8.351231830985085E-020
  -102.150000000000         3.756141823619152E-019
  -101.960000000000         5.679242344442968E-019
  -101.770000000000         6.046042883610694E-019
  -101.580000000000         4.744512808915493E-019
  -101.390000000000         2.143017405561037E-019
  -101.200000000000        -1.015221369816225E-019
  -101.010000000000        -3.827037953112310E-019
  -100.820000000000        -5.491014465530903E-019
  -100.630000000000        -5.539370413639860E-019
  -100.440000000000        -3.972503323425700E-019
  -100.250000000000        -1.257512210550343E-019
  -100.060000000000         1.808375989414790E-019
  -99.8700000000000         4.329593646924648E-019
  -99.6800000000000         5.571882184687564E-019
  -99.4900000000000         5.174605418766840E-019
  -99.3000000000000         3.254634694269588E-019
  -99.1100000000000         3.721153476355967E-020
  -98.9200000000000        -2.632095813691480E-019
  -98.7300000000000        -4.880589803574311E-019
  -98.5400000000000        -5.714379781273914E-019
  -98.3500000000000        -4.884460779417784E-019
  -98.1600000000000        -2.624291298410629E-019
  -97.9700000000000         4.177681931597812E-020
  -97.7800000000000         3.366447190832961E-019
  -97.5900000000000         5.373335363348703E-019
  -97.4000000000000         5.862633641519085E-019
  -97.2100000000000         4.697793418351801E-019
  -97.0200000000000         2.221159103635676E-019
  -96.8300000000000        -8.449270361264019E-020
  -96.6400000000000        -3.607433249157227E-019
  -96.4500000000000        -5.261880627580272E-019
  -96.2600000000000        -5.326020839393775E-019
  -96.0700000000000        -3.779972955665083E-019
  -95.8800000000000        -1.072196338500164E-019
  -95.6900000000000         2.010613951050978E-019
  -95.5000000000000         4.572107873733175E-019
  -95.3100000000000         5.866627023084640E-019
  -95.1200000000000         5.515379392971934E-019
  -94.9300000000000         3.616062948560051E-019
  -94.7400000000000         7.146928753064760E-020
  -94.5500000000000        -2.352327183138151E-019
  -94.3600000000000        -4.700612124036848E-019
  -94.1700000000000        -5.654538285347984E-019
  -93.9800000000000        -4.943709353564477E-019
  -93.7900000000000        -2.781931226206191E-019
  -93.6000000000000         1.947543686018000E-020
  -93.4100000000000         3.113586300417901E-019
  -93.2200000000000         5.120062535896219E-019
  -93.0300000000000         5.627350055507205E-019
  -92.8400000000000         4.487099531141169E-019
  -92.6500000000000         2.032284575066691E-019
  -92.4600000000000        -1.019993303978209E-019
  -92.2700000000000        -3.777272039154096E-019
  -92.0800000000000        -5.431147438296182E-019
  -91.8900000000000        -5.491970116693294E-019
  -91.7000000000000        -3.931203909284981E-019
  -91.5100000000000        -1.190531286125675E-019
  -91.3200000000000         1.945299191328352E-019
  -91.1300000000000         4.575536097542933E-019
  -90.9400000000000         5.944494135337139E-019
  -90.7500000000000         5.660558452947655E-019
  -90.5600000000000         3.809418096628288E-019
  -90.3700000000000         9.285797075280787E-020
  -90.1800000000000        -2.149373560957545E-019
  -89.9900000000000        -4.538767061909200E-019
  -89.8000000000000        -5.557342789756619E-019
  -89.6100000000000        -4.923100450594115E-019
  -89.4200000000000        -2.834922321986344E-019
  -89.2300000000000         8.632407259499761E-021
  -89.0400000000000         2.979206351313477E-019
  -88.8500000000000         4.992720965286937E-019
  -88.6600000000000         5.533757887294612E-019
  -88.4700000000000         4.439401585089578E-019
  -88.2800000000000         2.024115286551648E-019
  -88.0900000000000        -1.012138827515669E-019
  -87.9000000000000        -3.787896467246167E-019
  -87.7100000000000        -5.496263981611504E-019
  -87.5200000000000        -5.638595382623004E-019
  -87.3300000000000        -4.168770040268252E-019
  -87.1400000000000        -1.506801629350633E-019
  -86.9500000000000         1.582287659368299E-019
  -86.7600000000000         4.209401054862205E-019
  -86.5700000000000         5.618258428664105E-019
  -86.3800000000000         5.404306335041556E-019
  -86.1900000000000         3.632390814833904E-019
  -86.0000000000000         8.183335590458072E-020
  -85.8100000000000        -2.220965154815032E-019
  -85.6200000000000        -4.605071719623898E-019
  -85.4300000000000        -5.645589517066740E-019
  -85.2400000000000        -5.045505713407564E-019
  -85.0500000000000        -2.984626207514350E-019
  -84.8600000000000        -6.635550956920443E-021
  -84.6700000000000         2.858269854136772E-019
  -84.4800000000000         4.937568313816867E-019
  -84.2900000000000         5.565818811348401E-019
  -84.1000000000000         4.558911380929438E-019
  -83.9100000000000         2.208265650545312E-019
  -83.7200000000000        -8.033646860861743E-020
  -83.5300000000000        -3.600138951376815E-019
  -83.3400000000000        -5.367666005949048E-019
  -83.1500000000000        -5.589908152727140E-019
  -82.9600000000000        -4.199658731665755E-019
  -82.7700000000000        -1.598390386775795E-019
  -82.5800000000000         1.460565690865382E-019
  -82.3900000000000         4.090977430308751E-019
  -82.2000000000000         5.530720233410743E-019
  -82.0100000000000         5.362658901518001E-019
  -81.8200000000000         3.635778316509654E-019
  -81.6300000000000         8.511497185853834E-020
  -81.4400000000000        -2.183508532076407E-019
  -81.2500000000000        -4.588350149587926E-019
  -81.0600000000000        -5.666955604112528E-019
  -80.8700000000000        -5.108875827070872E-019
  -80.6800000000000        -3.079878296874910E-019
  -80.4900000000000        -1.730420226469487E-020
  -80.3000000000000         2.764734397927893E-019
  -80.1100000000000         4.879432194502902E-019
  -79.9200000000000         5.557908055890248E-019
  -79.7300000000000         4.605630028768049E-019
  -79.5400000000000         2.302811170798325E-019
  -79.3500000000000        -6.772915858414796E-020
  -79.1600000000000        -3.464009018878298E-019
  -78.9700000000000        -5.242181375718267E-019
  -78.7800000000000        -5.489509274868346E-019
  -78.5900000000000        -4.129420738296592E-019
  -78.4000000000000        -1.554237312575644E-019
  -78.2100000000000         1.488647327652498E-019
  -78.0200000000000         4.114283515469272E-019
  -77.8300000000000         5.557829129359474E-019
  -77.6400000000000         5.397276820342725E-019
  -77.4500000000000         3.676186566744406E-019
  -77.2600000000000         8.907553078535038E-020
  -77.0700000000000        -2.154308426216345E-019
  -76.8800000000000        -4.578800990937060E-019
  -76.6900000000000        -5.681918717184774E-019
  -76.5000000000000        -5.145760168395082E-019
  -76.3100000000000        -3.128078359624023E-019
  -76.1200000000000        -2.167447569913366E-020
  -75.9300000000000         2.740929107775553E-019
  -75.7400000000000         4.884430718243596E-019
  -75.5500000000000         5.590487833381777E-019
  -75.3600000000000         4.654632109420170E-019
  -75.1700000000000         2.350482859230930E-019
  -74.9800000000000        -6.502950028994689E-020
  -74.7900000000000        -3.473218465920782E-019
  -74.6000000000000        -5.294486752573063E-019
  -74.4100000000000        -5.579785701160954E-019
  -74.2200000000000        -4.239474724297929E-019
  -74.0300000000000        -1.655081333345828E-019
  -73.8400000000000         1.430542940569699E-019
  -73.6500000000000         4.127730319511113E-019
  -73.4600000000000         5.657630603258654E-019
  -73.2700000000000         5.578428217320557E-019
  -73.0800000000000         3.913693518238265E-019
  -72.8900000000000         1.145066432775041E-019
  -72.7000000000000        -1.928016023050736E-019
  -72.5100000000000        -4.420151575874811E-019
  -72.3200000000000        -5.616211135643508E-019
  -72.1300000000000        -5.177947458898592E-019
  -71.9400000000000        -3.241129534370844E-019
  -71.7500000000000        -3.754294825255089E-020
  -71.5600000000000         2.580857057641575E-019
  -71.3700000000000         4.763784098364958E-019
  -71.1800000000000         5.534844997284039E-019
  -70.9900000000000         4.667264435429278E-019
  -70.8000000000000         2.412550357837177E-019
  -70.6100000000000        -5.724097468487377E-020
  -70.4200000000000        -3.416332078736514E-019
  -70.2300000000000        -5.287008391110728E-019
  -70.0400000000000        -5.633452166743065E-019
  -69.8500000000000        -4.345948484330780E-019
  -69.6600000000000        -1.787658763542625E-019
  -69.4700000000000         1.310496332487948E-019
  -69.2800000000000         4.060817680007761E-019
  -69.0900000000000         5.675249913046974E-019
  -68.9000000000000         5.693531663010412E-019
  -68.7100000000000         4.116602840454366E-019
  -68.5200000000000         1.406104860294915E-019
  -68.3300000000000        -1.649960769648588E-019
  -68.1400000000000        -4.166547871445055E-019
  -67.9500000000000        -5.419318017927517E-019
  -67.7600000000000        -5.055337264146187E-019
  -67.5700000000000        -3.194821654643381E-019
  -67.3800000000000        -3.947623743600927E-020
  -67.1900000000000         2.513974578407558E-019
  -67.0000000000000         4.668401158621589E-019
  -66.8100000000000         5.424181901845036E-019
  -66.6200000000000         4.542981378780549E-019
  -66.4300000000000         2.262268258186570E-019
  -66.2400000000000        -7.724793412218386E-020
  -66.0500000000000        -3.693834512561893E-019
  -65.8600000000000        -5.663431719777452E-019
  -65.6700000000000        -6.115025313676054E-019
  -65.4800000000000        -4.918257872953054E-019
  -65.2900000000000        -2.415337508137160E-019
  -65.1000000000000         6.794061433155845E-020
  -64.9100000000000         3.487358032618556E-019
  -64.7200000000000         5.220317213040388E-019
  -64.5300000000000         5.407933696957151E-019
  -64.3400000000000         4.032010387610894E-019
  -64.1500000000000         1.529536811319059E-019
  -63.9600000000000        -1.335818276002890E-019
  -63.7700000000000        -3.696919802023815E-019
  -63.5800000000000        -4.836861742002618E-019
  -63.3900000000000        -4.399069876741586E-019
  -63.2000000000000        -2.492059923428201E-019
  -63.0100000000000         3.416528848501713E-020
  -62.8200000000000         3.283204199785039E-019
  -62.6300000000000         5.475618093514932E-019
  -62.4400000000000         6.272981829975134E-019
  -62.2500000000000         5.427752069123348E-019
  -62.0600000000000         3.162327668240123E-019
  -61.8700000000000         1.051757931383840E-020
  -61.6800000000000        -2.889862811882144E-019
  -61.4900000000000        -4.989578819047606E-019
  -61.3000000000000        -5.621884172526308E-019
  -61.1100000000000        -4.640843207652546E-019
  -60.9200000000000        -2.368161334108475E-019
  -60.7300000000000         5.011777464168336E-020
  -60.5400000000000         3.102271969718352E-019
  -60.3500000000000         4.653519151485588E-019
  -60.1600000000000         4.684998133549364E-019
  -59.9700000000000         3.174878668136732E-019
  -59.7800000000000         5.548922098842231E-020
  -59.5900000000000        -2.415685914459231E-019
  -59.4000000000000        -4.870756735140873E-019
  -59.2100000000000        -6.088996981475609E-019
  -59.0200000000000        -5.703482605039638E-019
  -58.8300000000000        -3.808895035895771E-019
  -58.6400000000000        -9.355009837910200E-020
  -58.4500000000000         2.103199609429029E-019
  -58.2600000000000         4.445962234127652E-019
  -58.0700000000000         5.433985073764724E-019
  -57.8800000000000         4.802217860465913E-019
  -57.6900000000000         2.755883710891545E-019
  -57.5000000000000        -8.971041029020752E-021
  -57.3100000000000        -2.888505222428613E-019
  -57.1200000000000        -4.810023081048433E-019
  -56.9300000000000        -5.280762322949017E-019
  -56.7400000000000        -4.150599412687897E-019
  -56.5500000000000        -1.736694427978925E-019
  -56.3600000000000         1.267618341065687E-019
  -56.1700000000000         3.993497482756041E-019
  -55.9800000000000         5.649309221504739E-019
  -55.7900000000000         5.751504737708109E-019
  -55.6000000000000         4.265854663848307E-019
  -55.4100000000000         1.617871387856801E-019
  -55.2200000000000        -1.430603111766862E-019
  -55.0300000000000        -4.002728710835365E-019
  -54.8400000000000        -5.361029312489992E-019
  -54.6500000000000        -5.120431081090221E-019
  -54.4600000000000        -3.358783220207448E-019
  -54.2700000000000        -5.938380530556358E-020
  -54.0800000000000         2.366626763099392E-019
  -53.8900000000000         4.658819848066251E-019
  -53.7000000000000         5.613577267011785E-019
  -53.5100000000000         4.950940403783697E-019
  -53.3200000000000         2.862163061970253E-019
  -53.1300000000000        -4.525103564173145E-021
  -52.9400000000000        -2.924399185009420E-019
  -52.7500000000000        -4.936152741438868E-019
  -52.5600000000000        -5.493605358085652E-019
  -52.3700000000000        -4.432272849392471E-019
  -52.1800000000000        -2.057361107226074E-019
  -51.9900000000000         9.449592177833345E-020
  -51.8000000000000         3.706515722989810E-019
  -51.6100000000000         5.428603062188651E-019
  -51.4200000000000         5.613104151638886E-019
  -51.2300000000000         4.206849326957966E-019
  -51.0400000000000         1.617580046844164E-019
  -50.8500000000000        -1.404043206346681E-019
  -50.6600000000000        -3.982976647312756E-019
  -50.4700000000000        -5.374883360379384E-019
  -50.2800000000000        -5.182741847003867E-019
  -50.0900000000000        -3.471937593091878E-019
  -49.9000000000000        -7.506478427733961E-020
  -49.7100000000000         2.178688142993805E-019
  -49.5200000000000         4.453173309536414E-019
  -49.3300000000000         5.400022543063269E-019
  -49.1400000000000         4.731647762729565E-019
  -48.9500000000000         2.629752636075165E-019
  -48.7600000000000        -3.060586325114165E-020
  -48.5700000000000        -3.231433662971552E-019
  -48.3800000000000        -5.302408596074016E-019
  -48.1900000000000        -5.920853012896960E-019
  -48.0000000000000        -4.908563512630255E-019
  -47.8100000000000        -2.559222339195382E-019
  -47.6200000000000         4.473084080186609E-020
  -47.4300000000000         3.243270847466107E-019
  -47.2400000000000         5.025112366283276E-019
  -47.0500000000000         5.285640525861506E-019
  -46.8600000000000         3.959818271563203E-019
  -46.6700000000000         1.442926960572552E-019
  -46.4800000000000        -1.524261300862816E-019
  -46.2900000000000        -4.070390687087670E-019
  -46.1000000000000        -5.446290356459040E-019
  -45.9100000000000        -5.242644490410960E-019
  -45.7200000000000        -3.509634096707260E-019
  -45.5300000000000        -7.429821000148527E-020
  -45.3400000000000         2.260499437691232E-019
  -45.1500000000000         4.635335080829777E-019
  -44.9600000000000         5.698981169060210E-019
  -44.7700000000000         5.149401322243108E-019
  -44.5800000000000         3.152029273458512E-019
  -44.3900000000000         2.912038486424599E-020
  -44.2000000000000        -2.599727252999921E-019
  -44.0100000000000        -4.679971244993689E-019
  -43.8200000000000        -5.344679223526162E-019
  -43.6300000000000        -4.400547758993783E-019
  -43.4400000000000        -2.122814206649949E-019
  -43.2500000000000         8.240660349514532E-020
  -43.0600000000000         3.579696036783534E-019
  -42.8700000000000         5.338194593039824E-019
  -42.6800000000000         5.582469106701385E-019
  -42.4900000000000         4.234327982536004E-019
  -42.3000000000000         1.676907414611779E-019
  -42.1100000000000        -1.356914205888882E-019
  -41.9200000000000        -3.996927971424744E-019
  -41.7300000000000        -5.486835546127907E-019
  -41.5400000000000        -5.402485375318478E-019
  -41.3500000000000        -3.774875965887610E-019
  -41.1600000000000        -1.081792771070417E-019
  -40.9700000000000         1.890542838782730E-019
  -40.7800000000000         4.275901915303532E-019
  -40.5900000000000         5.380075003782178E-019
  -40.4000000000000         4.883209013388455E-019
  -40.2100000000000         2.933032341988209E-019
  -40.0200000000000         1.010987399317203E-020
  -39.8300000000000        -2.784671805852811E-019
  -39.6400000000000        -4.881027548655664E-019
  -39.4500000000000        -5.573696978274128E-019
  -39.2600000000000        -4.655116857323781E-019
  -39.0700000000000        -2.384693855625426E-019
  -38.8800000000000         5.859899548070608E-020
  -38.6900000000000         3.401449945710422E-019
  -38.5000000000000         5.249784436928385E-019
  -38.3100000000000         5.598397893047217E-019
  -38.1200000000000         4.349585734406764E-019
  -37.9300000000000         1.869506178372414E-019
  -37.7400000000000        -1.118718727467782E-019
  -37.5500000000000        -3.745953644789815E-019
  -37.3600000000000        -5.249845484123662E-019
  -37.1700000000000        -5.196121046231595E-019
  -36.9800000000000        -3.604370575697677E-019
  -36.7900000000000        -9.417766838462163E-020
  -36.6000000000000         2.012927550081313E-019
  -36.4100000000000         4.395260645138262E-019
  -36.2200000000000         5.505663621515308E-019
  -36.0300000000000         5.013302196745648E-019
  -35.8400000000000         3.053446212059129E-019
  -35.6500000000000         1.888978401602039E-020
  -35.4600000000000        -2.753602623615438E-019
  -35.2700000000000        -4.923854602157995E-019
  -35.0800000000000        -5.695344767999446E-019
  -34.8900000000000        -4.847060083587419E-019
  -34.7000000000000        -2.626869813936281E-019
  -34.5100000000000         3.214120280142818E-020
  -34.3200000000000         3.144928435075197E-019
  -34.1300000000000         5.028328957213922E-019
  -33.9400000000000         5.429712464235657E-019
  -33.7500000000000         4.238179823116634E-019
  -33.5600000000000         1.806601187522884E-019
  -33.3700000000000        -1.150606037423082E-019
  -33.1800000000000        -3.765204361815560E-019
  -32.9900000000000        -5.268333508892504E-019
  -32.8000000000000        -5.215488880836484E-019
  -32.6100000000000        -3.616665940599076E-019
  -32.4200000000000        -9.329373556493589E-020
  -32.2300000000000         2.058623557413232E-019
  -32.0400000000000         4.490994211415548E-019
  -31.8500000000000         5.658541175761472E-019
  -31.6600000000000         5.221468913357668E-019
  -31.4700000000000         3.304345536333581E-019
  -31.2800000000000         4.601957419294782E-020
  -31.0900000000000        -2.489299078882130E-019
  -30.9000000000000        -4.691719882674576E-019
  -30.7100000000000        -5.511824289059150E-019
  -30.5200000000000        -4.717127399161309E-019
  -30.3300000000000        -2.545856408444815E-019
  -30.1400000000000         3.628912275144424E-020
  -29.9500000000000         3.155661084925169E-019
  -29.7600000000000         5.013071868897555E-019
  -29.5700000000000         5.388043753897502E-019
  -29.3800000000000         4.164589079217975E-019
  -29.1900000000000         1.691277734203232E-019
  -29.0000000000000        -1.319498408882326E-019
  -28.8100000000000        -3.997063221507378E-019
  -28.6200000000000        -5.564375922219096E-019
  -28.4300000000000        -5.564139151169474E-019
  -28.2400000000000        -3.992761979105176E-019
  -28.0500000000000        -1.302207424915192E-019
  -27.8600000000000         1.730973139067871E-019
  -27.6700000000000         4.231162657528028E-019
  -27.4800000000000         5.478076876236775E-019
  -27.2900000000000         5.115579220348816E-019
  -27.1000000000000         3.253917399377357E-019
  -26.9100000000000         4.366573679826096E-020
  -26.7200000000000        -2.516805011725687E-019
  -26.5300000000000        -4.747729740638115E-019
  -26.3400000000000        -5.606256163317105E-019
  -26.1500000000000        -4.839925259780898E-019
  -25.9600000000000        -2.667473605663720E-019
  -25.7700000000000         2.838768850076991E-020
  -25.5800000000000         3.160013459388587E-019
  -25.3900000000000         5.128479203669003E-019
  -25.2000000000000         5.621510699475781E-019
  -25.0100000000000         4.501515959991060E-019
  -24.8200000000000         2.100298559090650E-019
  -24.6300000000000        -8.783201689173247E-020
  -24.4400000000000        -3.563184290652908E-019
  -24.2500000000000        -5.168509647099882E-019
  -24.0600000000000        -5.221732496136566E-019
  -23.8700000000000        -3.700671038643653E-019
  -23.6800000000000        -1.040683725123813E-019
  -23.4900000000000         1.990154724055353E-019
  -23.3000000000000         4.512667619893721E-019
  -23.1100000000000         5.791649058555092E-019
  -22.9200000000000         5.449852736583931E-019
  -22.7300000000000         3.577691709107744E-019
  -22.5400000000000         7.067284310607836E-020
  -22.3500000000000        -2.344766013367131E-019
  -22.1600000000000        -4.709070313909137E-019
  -21.9700000000000        -5.719996686914656E-019
  -21.7800000000000        -5.104561460967627E-019
  -21.5900000000000        -3.060409178786082E-019
  -21.4000000000000        -1.976491207110630E-020
  -21.2100000000000         2.638168584569698E-019
  -21.0200000000000         4.611845970843829E-019
  -20.8300000000000         5.142161916787431E-019
  -20.6400000000000         4.071715345246877E-019
  -20.4500000000000         1.712983458486423E-019
  -20.2600000000000        -1.242781705914657E-019
  -20.0700000000000        -3.927282647686085E-019
  -19.8800000000000        -5.548502195862999E-019
  -19.6900000000000        -5.621013588216637E-019
  -19.5000000000000        -4.106142500032772E-019
  -19.3100000000000        -1.422652136405269E-019
  -19.1200000000000         1.673875216839662E-019
  -18.9300000000000         4.308373982225014E-019
  -18.7400000000000         5.738445674566772E-019
  -18.5500000000000         5.568690553340411E-019
  -18.3600000000000         3.865117462831057E-019
  -18.1700000000000         1.136264552901382E-019
  -17.9800000000000        -1.814369275170203E-019
  -17.7900000000000        -4.122555151473166E-019
  -17.6000000000000        -5.115498332201880E-019
  -17.4100000000000        -4.507189918832623E-019
  -17.2200000000000        -2.480037309996349E-019
  -17.0300000000000         3.697181473024389E-020
  -16.8400000000000         3.206070065823334E-019
  -16.6500000000000         5.196179759627247E-019
  -16.4600000000000         5.751732359297226E-019
  -16.2700000000000         4.699126211294465E-019
  -16.0800000000000         2.330016750053477E-019
  -15.8900000000000        -6.823591079400093E-020
  -15.7000000000000        -3.477933497358257E-019
  -15.5100000000000        -5.259773685362478E-019
  -15.3200000000000        -5.525896798223564E-019
  -15.1300000000000        -4.214703933456013E-019
  -14.9400000000000        -1.721872550982687E-019
  -14.7500000000000         1.215745259410821E-019
  -14.5600000000000         3.735082633718509E-019
  -14.3700000000000         5.097591123980741E-019
  -14.1800000000000         4.902736607969206E-019
  -13.9900000000000         3.203359828235322E-019
  -13.8000000000000         4.905635238496996E-020
  -13.6100000000000        -2.447967071709257E-019
  -13.4200000000000        -4.756396091992951E-019
  -13.2300000000000        -5.759893246626961E-019
  -13.0400000000000        -5.161535183054542E-019
  -12.8500000000000        -3.129297768383838E-019
  -12.6600000000000        -2.475147180706896E-020
  -12.4700000000000         2.653408633575344E-019
  -12.2800000000000         4.738959547133317E-019
  -12.0900000000000         5.412602779879224E-019
  -11.9000000000000         4.487533872127663E-019
  -11.7100000000000         2.239578682269936E-019
  -11.5200000000000        -6.731179629952120E-020
  -11.3300000000000        -3.400628350722365E-019
  -11.1400000000000        -5.147406612779520E-019
  -10.9500000000000        -5.403091219225092E-019
  -10.7600000000000        -4.091292219701090E-019
  -10.5700000000000        -1.592863880618700E-019
  -10.3800000000000         1.364315779243033E-019
  -10.1900000000000         3.917737987499083E-019
  -10.0000000000000         5.322196907733893E-019
  -9.81000000000000         5.166871107681378E-019
  -9.62000000000000         3.494586012149535E-019
  -9.42999999999999         7.893704984170877E-020
  -9.23999999999999        -2.163772121754968E-019
  -9.05000000000000        -4.506084169053594E-019
  -8.86000000000000        -5.553364961101649E-019
  -8.67000000000000        -4.994101598185027E-019
  -8.48000000000000        -2.980782843598734E-019
  -8.28999999999999        -8.728522012169857E-021
  -8.09999999999999         2.856867518385295E-019
  -7.91000000000000         5.007689539550134E-019
  -7.72000000000000         5.752375286593646E-019
  -7.53000000000000         4.887266962815489E-019
  -7.34000000000000         2.676336850333166E-019
  -7.15000000000001        -2.267194691660608E-020
  -6.95999999999999        -2.969591986858436E-019
  -6.77000000000000        -4.749154141933346E-019
  -6.58000000000000        -5.043958481936247E-019
  -6.39000000000000        -3.765326133748915E-019
  -6.20000000000000        -1.284088702442521E-019
  -6.01000000000001         1.675611239869674E-019
  -5.81999999999999         4.245881387169152E-019
  -5.63000000000000         5.667473099708133E-019
  -5.44000000000000         5.511496972122913E-019
  -5.25000000000000         3.805654882793010E-019
  -5.06000000000000         1.027401189786409E-019
  -4.87000000000000        -2.034603648656747E-019
  -4.67999999999999        -4.509644839059438E-019
  -4.48999999999999        -5.696823207058956E-019
  -4.30000000000000        -5.266686996427568E-019
  -4.11000000000000        -3.355479686049481E-019
  -3.92000000000000        -5.254226133160617E-020
  -3.73000000000000         2.397642051647719E-019
  -3.53999999999999         4.562600633842435E-019
  -3.34999999999999         5.338982849240921E-019
  -3.16000000000000         4.499874525378016E-019
  -2.97000000000000         2.288449839792952E-019
  -2.78000000000000        -6.524912694159808E-020
  -2.59000000000000        -3.467983133159902E-019
  -2.40000000000001        -5.339930941507340E-019
  -2.20999999999999        -5.724586232941402E-019
  -2.02000000000000        -4.509783834792586E-019
  -1.83000000000000        -2.046837789076341E-019
  -1.64000000000000         9.517926739526848E-020
  -1.45000000000000         3.618916165360627E-019
  -1.26000000000001         5.183295527869826E-019
  -1.06999999999999         5.193038881233089E-019
 -0.879999999999995         3.647735143867363E-019
 -0.689999999999998         1.000124431668792E-019
 -0.500000000000000        -1.974649656409627E-019
 -0.310000000000002        -4.404496802832266E-019
 -0.120000000000005        -5.574355733801341E-019
  7.000000000000739E-002   -5.134369482287025E-019
  0.260000000000005        -3.201494028604054E-019
  0.450000000000003        -3.250120410670459E-020
  0.640000000000001         2.673226047109645E-019
  0.829999999999998         4.936451330119482E-019
   1.02000000000000         5.819892870158484E-019
   1.21000000000001         5.076764778270045E-019
   1.40000000000001         2.929994728993154E-019
   1.59000000000000         8.164240134508091E-022
   1.78000000000000        -2.836621569637939E-019
   1.97000000000000        -4.776479811008701E-019
   2.16000000000000        -5.249223650561169E-019
   2.34999999999999        -4.122705401937631E-019
   2.54000000000001        -1.732962958605872E-019
   2.73000000000000         1.215204253296564E-019
   2.92000000000000         3.854913999034643E-019
   3.11000000000000         5.409705470238586E-019
   3.30000000000000         5.418700580095209E-019
   3.48999999999999         3.869972200010507E-019
   3.68000000000001         1.203940202465326E-019
   3.87000000000000        -1.813985262921113E-019
   4.06000000000000        -4.314708815285260E-019
   4.25000000000000        -5.577326757216578E-019
   4.44000000000000        -5.239099512539770E-019
   4.63000000000000        -3.401754655432022E-019
   4.82000000000001        -6.019093563422313E-020
   5.01000000000001         2.345808375394371E-019
   5.20000000000000         4.586229791049876E-019
   5.39000000000000         5.471984192985098E-019
   5.58000000000000         4.750568884895035E-019
   5.77000000000000         2.636117959541227E-019
   5.96000000000001        -2.541615190615594E-020
   6.15000000000001        -3.079402114709194E-019
   6.34000000000000        -5.018386538645295E-019
   6.53000000000000        -5.507509308248903E-019