  -105.000000000000         0.000000000000000E+000
  -104.810000000000         2.168759635975905E-010
  -104.620000000000         4.857457616362604E-010
  -104.430000000000         8.003386262976846E-010
  -104.240000000000         1.338850667525856E-009
  -104.050000000000         2.143202756762462E-009
  -103.860000000000         3.010026435636241E-009
  -103.670000000000         3.766232252677278E-009
  -103.480000000000         4.287146681771933E-009
  -103.290000000000         5.001469798155470E-009
  -103.100000000000         5.672307264310119E-009
  -102.910000000000         6.377774415912230E-009
  -102.720000000000         7.091299093055819E-009
  -102.530000000000         7.823413287135193E-009
  -102.340000000000         8.630346725583833E-009
  -102.150000000000         9.417794056233357E-009
  -101.960000000000         1.006376791152095E-008
  -101.770000000000         1.012702733710888E-008
  -101.580000000000         1.014654625319921E-008
  -101.390000000000         1.018065112433429E-008
  -101.200000000000         1.015084075281138E-008
  -101.010000000000         1.019203995577756E-008
  -100.820000000000         1.007026082180798E-008
  -100.630000000000         9.953618117675134E-009
  -100.440000000000         9.811044028815239E-009
  -100.250000000000         9.530288204229703E-009
  -100.060000000000         9.034794669053481E-009
  -99.8700000000000         8.637223996646923E-009
  -99.6800000000000         8.234883118231456E-009
  -99.4900000000000         7.734783676178566E-009
  -99.3000000000000         7.048068017212115E-009
  -99.1100000000000         6.489312952968697E-009
  -98.9200000000000         5.879775596502897E-009
  -98.7300000000000         5.384511421306684E-009
  -98.5400000000000         5.257179905145440E-009
  -98.3500000000000         4.898757150805964E-009
  -98.1600000000000         4.689697793369373E-009
  -97.9700000000000         4.636689647095860E-009
  -97.7800000000000         4.709866233334536E-009
  -97.5900000000000         4.871464038551093E-009
  -97.4000000000000         5.063712988962204E-009
  -97.2100000000000         5.161577802413623E-009
  -97.0200000000000         5.295583537719983E-009
  -96.8300000000000         5.565468849896689E-009
  -96.6400000000000         5.815354403562642E-009
  -96.4500000000000         6.227855659156137E-009
  -96.2600000000000         7.105014164081302E-009
  -96.0700000000000         8.181591811613453E-009
  -95.8800000000000         9.193004466555116E-009
  -95.6900000000000         1.009695866060742E-008
  -95.5000000000000         1.078212589874649E-008
  -95.3100000000000         1.135576792353539E-008
  -95.1200000000000         1.129810816866977E-008
  -94.9300000000000         1.125548234234402E-008
  -94.7400000000000         1.121101415033066E-008
  -94.5500000000000         1.114122942556689E-008
  -94.3600000000000         1.131296370705171E-008
  -94.1700000000000         1.177519054346224E-008
  -93.9800000000000         1.198140901728739E-008
  -93.7900000000000         1.222869460752319E-008
  -93.6000000000000         1.278476432810657E-008
  -93.4100000000000         1.320908820323606E-008
  -93.2200000000000         1.352210451585545E-008
  -93.0300000000000         1.394196272370892E-008
  -92.8400000000000         1.465191929075047E-008
  -92.6500000000000         1.537980535523921E-008
  -92.4600000000000         1.582262207300110E-008
  -92.2700000000000         1.599910029458271E-008
  -92.0800000000000         1.596950422023787E-008
  -91.8900000000000         1.584626109375211E-008
  -91.7000000000000         1.555080538423765E-008
  -91.5100000000000         1.535639193388348E-008
  -91.3200000000000         1.536882477271235E-008
  -91.1300000000000         1.489944420339022E-008
  -90.9400000000000         1.413547118845136E-008
  -90.7500000000000         1.324046630047657E-008
  -90.5600000000000         1.226971327737943E-008
  -90.3700000000000         1.137442701264066E-008
  -90.1800000000000         1.081835897433472E-008
  -89.9900000000000         1.072554159536101E-008
  -89.8000000000000         1.099819530102925E-008
  -89.6100000000000         1.144974080300532E-008
  -89.4200000000000         1.185662923990099E-008
  -89.2300000000000         1.230360029056907E-008
  -89.0400000000000         1.279152232343650E-008
  -88.8500000000000         1.307073298987792E-008
  -88.6600000000000         1.277479617517048E-008
  -88.4700000000000         1.276894559190509E-008
  -88.2800000000000         1.288241894692430E-008
  -88.0900000000000         1.267597842136130E-008
  -87.9000000000000         1.248365086819971E-008
  -87.7100000000000         1.233890786980715E-008
  -87.5200000000000         1.223764666756042E-008
  -87.3300000000000         1.214529763468591E-008
  -87.1400000000000         1.201073020841590E-008
  -86.9500000000000         1.216922491905734E-008
  -86.7600000000000         1.270954776260399E-008
  -86.5700000000000         1.351606532095713E-008
  -86.3800000000000         1.459407098387320E-008
  -86.1900000000000         1.575868415245009E-008
  -86.0000000000000         1.695701991013952E-008
  -85.8100000000000         1.826061743780203E-008
  -85.6200000000000         1.995790601641203E-008
  -85.4300000000000         2.168098728328052E-008
  -85.2400000000000         2.324563614899068E-008
  -85.0500000000000         2.490506463423616E-008
  -84.8600000000000         2.639551056441941E-008
  -84.6700000000000         2.764701877254650E-008
  -84.4800000000000         2.872693750503257E-008
  -84.2900000000000         2.971914442879511E-008
  -84.1000000000000         3.064069382870742E-008
  -83.9100000000000         3.170992491285225E-008
  -83.7200000000000         3.228364323213211E-008
  -83.5300000000000         3.452511455415764E-008
  -83.3400000000000         3.467879388122263E-008
  -83.1500000000000         3.560976795258051E-008
  -82.9600000000000         3.649639286825142E-008
  -82.7700000000000         3.692824799812146E-008
  -82.5800000000000         3.703787014548186E-008
  -82.3900000000000         3.703919213471857E-008
  -82.2000000000000         3.695392669403556E-008
  -82.0100000000000         3.682709351740248E-008
  -81.8200000000000         3.665936582580867E-008
  -81.6300000000000         3.646245111042127E-008
  -81.4400000000000         3.623839423883485E-008
  -81.2500000000000         3.607574564398842E-008
  -81.0600000000000         3.594594190033757E-008
  -80.8700000000000         3.584955928901330E-008
  -80.6800000000000         3.598702990681679E-008
  -80.4900000000000         3.621977217980723E-008
  -80.3000000000000         3.660718671261458E-008
  -80.1100000000000         3.712166299248457E-008
  -79.9200000000000         3.787695383937728E-008
  -79.7300000000000         3.890865000360349E-008
  -79.5400000000000         4.022624558439980E-008
  -79.3500000000000         4.227076928784002E-008
  -79.1600000000000         4.443432181641563E-008
  -78.9700000000000         4.630174320767646E-008
  -78.7800000000000         4.816532773272329E-008
  -78.5900000000000         5.008013052973028E-008
  -78.4000000000000         5.109592480693801E-008
  -78.2100000000000         5.194539014771603E-008
  -78.0200000000000         5.261198399035158E-008
  -77.8300000000000         5.317684720929121E-008
  -77.6400000000000         5.375394546070288E-008
  -77.4500000000000         5.440058253511972E-008
  -77.2600000000000         5.509869333937458E-008
  -77.0700000000000         5.573196881217633E-008
  -76.8800000000000         5.619459708967264E-008
  -76.6900000000000         5.681375241169216E-008
  -76.5000000000000         5.750600941670931E-008
  -76.3100000000000         5.804500560169793E-008
  -76.1200000000000         5.818291741096345E-008
  -75.9300000000000         5.874508658497762E-008
  -75.7400000000000         5.918597716719852E-008
  -75.5500000000000         5.998862612743497E-008
  -75.3600000000000         6.096138291407846E-008
  -75.1700000000000         6.201713730373645E-008
  -74.9800000000000         6.309715410473242E-008
  -74.7900000000000         6.393450323054514E-008
  -74.6000000000000         6.444686235370947E-008
  -74.4100000000000         6.485532661210399E-008
  -74.2200000000000         6.528074510238544E-008
  -74.0300000000000         6.576251722718412E-008
  -73.8400000000000         6.668925069153144E-008
  -73.6500000000000         6.800010805805944E-008
  -73.4600000000000         6.935495900650452E-008
  -73.2700000000000         7.100130382200156E-008
  -73.0800000000000         7.272745991143958E-008
  -72.8900000000000         7.504201264643389E-008
  -72.7000000000000         7.725769463020211E-008
  -72.5100000000000         7.977516036968765E-008
  -72.3200000000000         8.239527943692602E-008
  -72.1300000000000         8.459571686376247E-008
  -71.9400000000000         8.531276369792601E-008
  -71.7500000000000         8.913821479103864E-008
  -71.5600000000000         8.948984465049350E-008
  -71.3700000000000         8.982353551971334E-008
  -71.1800000000000         9.028144883105875E-008
  -70.9900000000000         9.042506628528585E-008
  -70.8000000000000         9.277699559485031E-008
  -70.6100000000000         9.342521353512996E-008
  -70.4200000000000         9.404114620079226E-008
  -70.2300000000000         9.872330015173767E-008
  -70.0400000000000         9.901130849946190E-008
  -69.8500000000000         9.992679371222232E-008
  -69.6600000000000         1.044378617842549E-007
  -69.4700000000000         1.049217354842532E-007
  -69.2800000000000         1.070496766835846E-007
  -69.0900000000000         1.094707901867692E-007
  -68.9000000000000         1.117596158356822E-007
  -68.7100000000000         1.141368426982901E-007
  -68.5200000000000         1.164426738141477E-007
  -68.3300000000000         1.184777697939404E-007
  -68.1400000000000         1.201960737164964E-007
  -67.9500000000000         1.213993427469464E-007
  -67.7600000000000         1.224386460277201E-007
  -67.5700000000000         1.238239021633934E-007
  -67.3800000000000         1.259844761392214E-007
  -67.1900000000000         1.280917229749323E-007
  -67.0000000000000         1.288004462023107E-007
  -66.8100000000000         1.311301177193057E-007
  -66.6200000000000         1.312985694787020E-007
  -66.4300000000000         1.323892440786347E-007
  -66.2400000000000         1.357385589569516E-007
  -66.0500000000000         1.362565831354295E-007
  -65.8600000000000         1.370769282511584E-007
  -65.6700000000000         1.388624928314420E-007
  -65.4800000000000         1.406144799028445E-007
  -65.2900000000000         1.419721899306552E-007
  -65.1000000000000         1.432725181603687E-007
  -64.9100000000000         1.446570240422670E-007
  -64.7200000000000         1.463837853815281E-007
  -64.5300000000000         1.492244741359940E-007
  -64.3400000000000         1.522346340360083E-007
  -64.1500000000000         1.551629114053559E-007
  -63.9600000000000         1.578980697080417E-007
  -63.7700000000000         1.607233670183263E-007
  -63.5800000000000         1.641866465402056E-007
  -63.3900000000000         1.676024715096636E-007
  -63.2000000000000         1.713711773190567E-007
  -63.0100000000000         1.753905780459606E-007
  -62.8200000000000         1.796137396757055E-007
  -62.6300000000000         1.834726868544930E-007
  -62.4400000000000         1.868451052679714E-007
  -62.2500000000000         1.901036566006237E-007
  -62.0600000000000         1.929035125351625E-007
  -61.8700000000000         1.951095315739660E-007
  -61.6800000000000         1.968911924704553E-007
  -61.4900000000000         1.984192731360210E-007
  -61.3000000000000         2.001605890268462E-007
  -61.1100000000000         2.023007380430828E-007
  -60.9200000000000         2.046130237977249E-007
  -60.7300000000000         2.073499846886475E-007
  -60.5400000000000         2.098195097381728E-007
  -60.3500000000000         2.119922142187344E-007
  -60.1600000000000         2.142791212124650E-007
  -59.9700000000000         2.166300584472184E-007
  -59.7800000000000         2.193246052887324E-007
  -59.5900000000000         2.232674965049086E-007
  -59.4000000000000         2.277359565922525E-007
  -59.2100000000000         2.321877989238608E-007
  -59.0200000000000         2.362820332320732E-007
  -58.8300000000000         2.394734553512119E-007
  -58.6400000000000         2.421174249728426E-007
  -58.4500000000000         2.454562468707561E-007
  -58.2600000000000         2.494471798087520E-007
  -58.0700000000000         2.526921188907007E-007
  -57.8800000000000         2.573478275893147E-007
  -57.6900000000000         2.605416737073913E-007
  -57.5000000000000         2.633715232827952E-007
  -57.3100000000000         2.649779737360845E-007
  -57.1200000000000         2.718285632639028E-007
  -56.9300000000000         2.729296398140111E-007
  -56.7400000000000         2.763192715092456E-007
  -56.5500000000000         2.820194515704168E-007
  -56.3600000000000         2.843623792694694E-007
  -56.1700000000000         2.889701980295440E-007
  -55.9800000000000         2.907649791905238E-007
  -55.7900000000000         2.943666284602650E-007
  -55.6000000000000         2.970657469779006E-007
  -55.4100000000000         3.001514620261489E-007
  -55.2200000000000         3.030516105845115E-007
  -55.0300000000000         3.055732961586541E-007
  -54.8400000000000         3.081099261521497E-007
  -54.6500000000000         3.107805561839399E-007
  -54.4600000000000         3.139175427868245E-007
  -54.2700000000000         3.175134574503851E-007
  -54.0800000000000         3.216024547657359E-007
  -53.8900000000000         3.257608422828562E-007
  -53.7000000000000         3.303016549809913E-007
  -53.5100000000000         3.351461338623399E-007
  -53.3200000000000         3.402499270437164E-007
  -53.1300000000000         3.466392434914577E-007
  -52.9400000000000         3.530768296923849E-007
  -52.7500000000000         3.590540179928914E-007
  -52.5600000000000         3.642125054478722E-007
  -52.3700000000000         3.703978639080994E-007
  -52.1800000000000         3.721337743985746E-007
  -51.9900000000000         3.851196048577902E-007
  -51.8000000000000         3.872681923009477E-007
  -51.6100000000000         3.896409206210478E-007
  -51.4200000000000         3.957600474810822E-007
  -51.2300000000000         4.041314002054362E-007
  -51.0400000000000         4.057073180164146E-007
  -50.8500000000000         4.109955527775908E-007
  -50.6600000000000         4.133587648400081E-007
  -50.4700000000000         4.258950857414737E-007
  -50.2800000000000         4.276673758582317E-007
  -50.0900000000000         4.310986490277368E-007
  -49.9000000000000         4.377670376342448E-007
  -49.7100000000000         4.404641615759877E-007
  -49.5200000000000         4.476901067714110E-007
  -49.3300000000000         4.498729555278402E-007
  -49.1400000000000         4.575598408733488E-007
  -48.9500000000000         4.595509352218330E-007
  -48.7600000000000         4.661813494267996E-007
  -48.5700000000000         4.715668380250137E-007
  -48.3800000000000         4.772374670846802E-007
  -48.1900000000000         4.835627507325297E-007
  -48.0000000000000         4.907813269550131E-007
  -47.8100000000000         4.993638006824802E-007
  -47.6200000000000         5.071334029174296E-007
  -47.4300000000000         5.150109272017363E-007
  -47.2400000000000         5.241326690443871E-007
  -47.0500000000000         5.311304279883921E-007
  -46.8600000000000         5.394099442519372E-007
  -46.6700000000000         5.479164059973944E-007
  -46.4800000000000         5.560423507127201E-007
  -46.2900000000000         5.641345928693888E-007
  -46.1000000000000         5.708734739311139E-007
  -45.9100000000000         5.787684675531324E-007
  -45.7200000000000         5.858647050411322E-007
  -45.5300000000000         5.923237469058752E-007
  -45.3400000000000         5.990412291273239E-007
  -45.1500000000000         6.055176139392226E-007
  -44.9600000000000         6.121988088995413E-007
  -44.7700000000000         6.180763984341026E-007
  -44.5800000000000         6.250372794246000E-007
  -44.3900000000000         6.311304009498425E-007
  -44.2000000000000         6.385368991204804E-007
  -44.0100000000000         6.448476378831809E-007
  -43.8200000000000         6.523945646658749E-007
  -43.6300000000000         6.586856667873194E-007
  -43.4400000000000         6.672822855958486E-007
  -43.2500000000000         6.731030729821911E-007
  -43.0600000000000         6.814541517349969E-007
  -42.8700000000000         6.884476841920849E-007
  -42.6800000000000         6.967191639552729E-007
  -42.4900000000000         7.023497473415465E-007
  -42.3000000000000         7.104428120129577E-007
  -42.1100000000000         7.155079329021006E-007
  -41.9200000000000         7.236657385142923E-007
  -41.7300000000000         7.298435181409674E-007
  -41.5400000000000         7.382764845205823E-007
  -41.3500000000000         7.432954030957428E-007
  -41.1600000000000         7.521922762759651E-007
  -40.9700000000000         7.561110262152808E-007
  -40.7800000000000         7.668234353550009E-007
  -40.5900000000000         7.708614999310352E-007
  -40.4000000000000         7.842713953560388E-007
  -40.2100000000000         7.880743993992455E-007
  -40.0200000000000         8.014107959581026E-007
  -39.8300000000000         8.049150794735211E-007
  -39.6400000000000         8.197725847741347E-007
  -39.4500000000000         8.227019431109203E-007
  -39.2600000000000         8.346578504971060E-007
  -39.0700000000000         8.386491756972309E-007
  -38.8800000000000         8.527584147699246E-007
  -38.6900000000000         8.572585608911019E-007
  -38.5000000000000         8.727671457350469E-007
  -38.3100000000000         8.777828286254407E-007
  -38.1200000000000         8.931326454170417E-007
  -37.9300000000000         8.985582299404005E-007
  -37.7400000000000         9.138552030132577E-007
  -37.5500000000000         9.193663605413553E-007
  -37.3600000000000         9.343566061761669E-007
  -37.1700000000000         9.399686504525550E-007
  -36.9800000000000         9.547059117163416E-007
  -36.7900000000000         9.605314370374926E-007
  -36.6000000000000         9.759724136136741E-007
  -36.4100000000000         9.811914318782759E-007
  -36.2200000000000         9.959234757295713E-007
  -36.0300000000000         1.000142368674992E-006
  -35.8400000000000         1.013741922106721E-006
  -35.6500000000000         1.017634112151125E-006
  -35.4600000000000         1.031263799336548E-006
  -35.2700000000000         1.035498146182575E-006
  -35.0800000000000         1.050541749863775E-006
  -34.8900000000000         1.054997272034965E-006
  -34.7000000000000         1.072030354647345E-006
  -34.5100000000000         1.076396313252015E-006
  -34.3200000000000         1.092488502110702E-006
  -34.1300000000000         1.097595303461908E-006
  -33.9400000000000         1.117196895163567E-006
  -33.7500000000000         1.123116935003035E-006
  -33.5600000000000         1.141908850639797E-006
  -33.3700000000000         1.147241348766974E-006
  -33.1800000000000         1.166938451686936E-006
  -32.9900000000000         1.171141741604597E-006
  -32.8000000000000         1.186701023079592E-006
  -32.6100000000000         1.190726179047308E-006
  -32.4200000000000         1.206831488218826E-006
  -32.2300000000000         1.211544185301915E-006
  -32.0400000000000         1.229034287301253E-006
  -31.8500000000000         1.234219995180355E-006
  -31.6600000000000         1.253095648698324E-006
  -31.4700000000000         1.258476631357266E-006
  -31.2800000000000         1.278003639826693E-006
  -31.0900000000000         1.283958933690643E-006
  -30.9000000000000         1.304185891909117E-006
  -30.7100000000000         1.310570313323900E-006
  -30.5200000000000         1.330631105135470E-006
  -30.3300000000000         1.336887746892217E-006
  -30.1400000000000         1.357936582737331E-006
  -29.9500000000000         1.363893543475009E-006
  -29.7600000000000         1.385111978934574E-006
  -29.5700000000000         1.390782193481842E-006
  -29.3800000000000         1.409698500403386E-006
  -29.1900000000000         1.415780041173596E-006
  -29.0000000000000         1.435352915513302E-006
  -28.8100000000000         1.442852308320685E-006
  -28.6200000000000         1.461244011020594E-006
  -28.4300000000000         1.470579485538777E-006
  -28.2400000000000         1.489306997312308E-006
  -28.0500000000000         1.498562304670977E-006
  -27.8600000000000         1.514963017410203E-006
  -27.6700000000000         1.529682050568237E-006
  -27.4800000000000         1.543581820668915E-006
  -27.2900000000000         1.557561839624623E-006
  -27.1000000000000         1.571907372126217E-006
  -26.9100000000000         1.585514966287853E-006
  -26.7200000000000         1.597723347422768E-006
  -26.5300000000000         1.610537840486973E-006
  -26.3400000000000         1.622336217724921E-006
  -26.1500000000000         1.634724242773137E-006
  -25.9600000000000         1.647180568376195E-006
  -25.7700000000000         1.660446184095622E-006
  -25.5800000000000         1.674208730452279E-006
  -25.3900000000000         1.687366569256735E-006
  -25.2000000000000         1.700162160813781E-006
  -25.0100000000000         1.714533922525980E-006
  -24.8200000000000         1.728385233041658E-006
  -24.6300000000000         1.743373376299843E-006
  -24.4400000000000         1.759795825425094E-006
  -24.2500000000000         1.775654250209080E-006
  -24.0600000000000         1.792760412669323E-006
  -23.8700000000000         1.808562269480329E-006
  -23.6800000000000         1.823173056690760E-006
  -23.4900000000000         1.838697116108673E-006
  -23.3000000000000         1.854970075008302E-006
  -23.1100000000000         1.870744800252044E-006
  -22.9200000000000         1.886521463538558E-006
  -22.7300000000000         1.903021271410646E-006
  -22.5400000000000         1.919184328425685E-006
  -22.3500000000000         1.935513815228345E-006
  -22.1600000000000         1.952840215581476E-006
  -21.9700000000000         1.970011953986298E-006
  -21.7800000000000         1.986224250410256E-006
  -21.5900000000000         2.003551539517088E-006
  -21.4000000000000         2.019850936946960E-006
  -21.2100000000000         2.034299878044171E-006
  -21.0200000000000         2.052009155143881E-006
  -20.8300000000000         2.059953083454492E-006
  -20.6400000000000         2.082626573069235E-006
  -20.4500000000000         2.088879114826432E-006
  -20.2600000000000         2.119781034940141E-006
  -20.0700000000000         2.125566219580530E-006
  -19.8800000000000         2.138622409685284E-006
  -19.6900000000000         2.160259412763349E-006
  -19.5000000000000         2.165565806859991E-006
  -19.3100000000000         2.194500955607660E-006
  -19.1200000000000         2.200627991478893E-006
  -18.9300000000000         2.219246190782610E-006
  -18.7400000000000         2.225674282584450E-006
  -18.5500000000000         2.256688771199072E-006
  -18.3600000000000         2.262789134464418E-006
  -18.1700000000000         2.281330663149468E-006
  -17.9800000000000         2.303500431839817E-006
  -17.7900000000000         2.309964112399732E-006
  -17.6000000000000         2.334636112443209E-006
  -17.4100000000000         2.340650179390859E-006
  -17.2200000000000         2.367324737192333E-006
  -17.0300000000000         2.373763494677095E-006
  -16.8400000000000         2.400617251954300E-006
  -16.6500000000000         2.407527849644507E-006
  -16.4600000000000         2.437315884779345E-006
  -16.2700000000000         2.444396650930978E-006
  -16.0800000000000         2.475510845046212E-006
  -15.8900000000000         2.482535729414893E-006
  -15.7000000000000         2.512074563107858E-006
  -15.5100000000000         2.519713071715168E-006
  -15.3200000000000         2.554572607486557E-006
  -15.1300000000000         2.562150552039498E-006
  -14.9400000000000         2.590075492139028E-006
  -14.7500000000000         2.597228726400548E-006
  -14.5600000000000         2.632826814116474E-006
  -14.3700000000000         2.640250091350684E-006
  -14.1800000000000         2.666132854458009E-006
  -13.9900000000000         2.673567164526540E-006
  -13.8000000000000         2.706517779448865E-006
  -13.6100000000000         2.713242214681278E-006
  -13.4200000000000         2.739597884055117E-006
  -13.2300000000000         2.745806979330021E-006
  -13.0400000000000         2.777838913520101E-006
  -12.8500000000000         2.784229281678399E-006
  -12.6600000000000         2.810159000834970E-006
  -12.4700000000000         2.816564082899172E-006
  -12.2800000000000         2.848761668606066E-006
  -12.0900000000000         2.855354747537485E-006
  -11.9000000000000         2.884982446982318E-006
  -11.7100000000000         2.891749690104055E-006
  -11.5200000000000         2.925941597854402E-006
  -11.3300000000000         2.933192973950286E-006
  -11.1400000000000         2.962516219655684E-006
  -10.9500000000000         2.969553041914042E-006
  -10.7600000000000         3.005938979845164E-006
  -10.5700000000000         3.013277998881658E-006
  -10.3800000000000         3.039818178022261E-006
  -10.1900000000000         3.046908624397797E-006
  -10.0000000000000         3.084395096863809E-006
  -9.81000000000000         3.091846026698808E-006
  -9.62000000000000         3.117039557220336E-006
  -9.42999999999999         3.124621807627737E-006
  -9.23999999999999         3.160862611507192E-006
  -9.05000000000000         3.168357568706919E-006
  -8.86000000000000         3.199335813974443E-006
  -8.67000000000000         3.206696942347215E-006
  -8.48000000000000         3.243613599544592E-006
  -8.28999999999999         3.251428645591990E-006
  -8.09999999999999         3.282149937926581E-006
  -7.91000000000000         3.290086410005321E-006
  -7.72000000000000         3.328339833881198E-006
  -7.53000000000000         3.336572848367440E-006
  -7.34000000000000         3.368934033584577E-006
  -7.15000000000001         3.376614665132613E-006
  -6.95999999999999         3.411303212498380E-006
  -6.77000000000000         3.419039235848776E-006
  -6.58000000000000         3.448161949269716E-006
  -6.39000000000000         3.456085150572202E-006
  -6.20000000000000         3.494127704441233E-006
  -6.01000000000001         3.502012769600645E-006
  -5.81999999999999         3.519112599023825E-006
  -5.63000000000000         3.553483084159539E-006
  -5.44000000000000         3.561502168203382E-006
  -5.25000000000000         3.589871384692495E-006
  -5.06000000000000         3.598033391873685E-006
  -4.87000000000000         3.638648176363391E-006
  -4.67999999999999         3.646879781461195E-006
  -4.48999999999999         3.657818349156486E-006
  -4.30000000000000         3.690648745685080E-006
  -4.11000000000000         3.698872345487028E-006
  -3.92000000000000         3.713258658581023E-006
  -3.73000000000000         3.756489414618284E-006
  -3.53999999999999         3.764865643738086E-006
  -3.34999999999999         3.775861898874444E-006
  -3.16000000000000         3.803124145672746E-006
  -2.97000000000000         3.811842288529200E-006
  -2.78000000000000         3.853259099058628E-006
  -2.59000000000000         3.862069861352692E-006
  -2.40000000000001         3.876101075536089E-006
  -2.20999999999999         3.918131074360027E-006
  -2.02000000000000         3.927568359553093E-006
  -1.83000000000000         3.941274742206535E-006
  -1.64000000000000         3.977657241161989E-006
  -1.45000000000000         3.987314309670352E-006
  -1.26000000000001         4.007104329484034E-006
  -1.06999999999999         4.054955511483421E-006
 -0.879999999999995         4.064754339678182E-006
 -0.689999999999998         4.077198670893173E-006
 -0.500000000000000         4.093415064272562E-006
 -0.310000000000002         4.131280244005748E-006
 -0.120000000000005         4.141173737898850E-006
  7.000000000000739E-002    4.156152598436978E-006
  0.260000000000005         4.180896411644015E-006
  0.450000000000003         4.192251244683124E-006
  0.640000000000001         4.251521776581599E-006
  0.829999999999998         4.262102118945822E-006
   1.02000000000000         4.274938160592234E-006
   1.21000000000001         4.290554353400935E-006
   1.40000000000001         4.306295882264352E-006
   1.59000000000000         4.322675176460721E-006
   1.78000000000000         4.339599173681241E-006
   1.97000000000000         4.357705941826435E-006
   2.16000000000000         4.375520839260296E-006
   2.34999999999999         4.453622017028346E-006
   2.54000000000001         4.465187649552324E-006
   2.73000000000000         4.477048193504333E-006
   2.92000000000000         4.489469957351831E-006
   3.11000000000000         4.502811446257593E-006
   3.30000000000000         4.517291857774982E-006
   3.48999999999999         4.533624517657542E-006
   3.68000000000001         4.551321781081105E-006
   3.87000000000000         4.572818219200395E-006
   4.06000000000000         4.591000711045159E-006
   4.25000000000000         4.613480347326294E-006
   4.44000000000000         4.631675616151100E-006
   4.63000000000000         4.654937271462529E-006
   4.82000000000001         4.673802138083332E-006
   5.01000000000001         4.699578094181209E-006
   5.20000000000000         4.717976856733108E-006
   5.39000000000000         4.741095166270713E-006
   5.58000000000000         4.760315337166632E-006
   5.77000000000000         4.780464734614462E-006
   5.96000000000001         4.801421370475587E-006
   6.15000000000001         4.821676197721979E-006
   6.34000000000000         4.842659927095106E-006
   6.53000000000000         4.862815836157443E-006