  -105.000000000000        -2.517058345638710E-019
  -104.810000000000        -5.837031877940781E-020
  -104.620000000000         1.454464248003453E-019
  -104.430000000000         1.739927982681751E-019
  -104.240000000000         1.096523061749876E-020
  -104.050000000000        -1.768261382797316E-019
  -103.860000000000        -2.002739885653615E-019
  -103.670000000000        -2.949027135927179E-020
  -103.480000000000         1.771683178487894E-019
  -103.290000000000         2.243030695840157E-019
  -103.100000000000         6.655582753775421E-020
  -102.910000000000        -1.473604236849807E-019
  -102.720000000000        -2.159967701790969E-019
  -102.530000000000        -7.683649881300959E-020
  -102.340000000000         1.347406786333908E-019
  -102.150000000000         2.152013741543959E-019
  -101.960000000000         8.725831470000484E-020
  -101.770000000000        -1.265006250157274E-019
  -101.580000000000        -2.209151038069906E-019
  -101.390000000000        -1.044959730196247E-019
  -101.200000000000         1.129360926467814E-019
  -101.010000000000         2.251002920036779E-019
  -100.820000000000         1.262902555849306E-019
  -100.630000000000        -8.784881452011492E-020
  -100.440000000000        -2.119119797495700E-019
  -100.250000000000        -1.269562144819166E-019
  -100.060000000000         8.597363695219950E-020
  -99.8700000000000         2.232940505283685E-019
  -99.6800000000000         1.534480800782307E-019
  -99.4900000000000        -5.724747091788726E-020
  -99.3000000000000        -2.079782693598863E-019
  -99.1100000000000        -1.555489067132158E-019
  -98.9200000000000         4.865936008226518E-020
  -98.7300000000000         2.079290458967421E-019
  -98.5400000000000         1.684305104662726E-019
  -98.3500000000000        -3.344152623445633E-020
  -98.1600000000000        -2.052882504324925E-019
  -97.9700000000000        -1.820628487482474E-019
  -97.7800000000000         1.616395774825965E-020
  -97.5900000000000         2.028034036524547E-019
  -97.4000000000000         2.023537450967270E-019
  -97.2100000000000         1.747706866507720E-020
  -97.0200000000000        -1.740923991252109E-019
  -96.8300000000000        -1.896356631418625E-019
  -96.6400000000000        -1.586708525808216E-020
  -96.4500000000000         1.787255519788773E-019
  -96.2600000000000         2.052097106127341E-019
  -96.0700000000000         3.522519628688824E-020
  -95.8800000000000        -1.712232519407284E-019
  -95.6900000000000        -2.181134266352781E-019
  -95.5000000000000        -6.059560771679707E-020
  -95.3100000000000         1.519252257661590E-019
  -95.1200000000000         2.180805539973045E-019
  -94.9300000000000         7.630165211023594E-020
  -94.7400000000000        -1.368651480444900E-019
  -94.5500000000000        -2.173070122812934E-019
  -94.3600000000000        -8.819568638203819E-020
  -94.1700000000000         1.266852770994527E-019
  -93.9800000000000         2.212289785181550E-019
  -93.7900000000000         1.040685744376704E-019
  -93.6000000000000        -1.139477948291040E-019
  -93.4100000000000        -2.255158672669391E-019
  -93.2200000000000        -1.246710035051213E-019
  -93.0300000000000         9.229254783315096E-020
  -92.8400000000000         2.188178931802574E-019
  -92.6500000000000         1.350389338942772E-019
  -92.4600000000000        -7.808323947793031E-020
  -92.2700000000000        -2.162883678872672E-019
  -92.0800000000000        -1.473041847026198E-019
  -91.8900000000000         6.269006920877934E-020
  -91.7000000000000         2.124388636781413E-019
  -91.5100000000000         1.581679241450572E-019
  -91.3200000000000        -4.890211054996439E-020
  -91.1300000000000        -2.113795637239462E-019
  -90.9400000000000        -1.740437103602760E-019
  -90.7500000000000         2.802112426083099E-020
  -90.5600000000000         2.027676913024410E-019
  -90.3700000000000         1.843168890995921E-019
  -90.1800000000000        -8.832950628139219E-021
  -89.9900000000000        -1.917032865790447E-019
  -89.8000000000000        -1.897284788062114E-019
  -89.6100000000000        -5.430154943676109E-021
  -89.4200000000000         1.843286501838030E-019
  -89.2300000000000         1.975518361755565E-019
  -89.0400000000000         2.104159535246936E-020
  -88.8500000000000        -1.769154809061968E-019
  -88.6600000000000        -2.072460477328781E-019
  -88.4700000000000        -4.081055952893312E-020
  -88.2800000000000         1.636397815522423E-019
  -88.0900000000000         2.111802393883012E-019
  -87.9000000000000         5.699562453875706E-020
  -87.7100000000000        -1.509404405461967E-019
  -87.5200000000000        -2.134053667551158E-019
  -87.3300000000000        -7.032872945454255E-020
  -87.1400000000000         1.416668226791053E-019
  -86.9500000000000         2.195406917796998E-019
  -86.7600000000000         8.780600974528072E-020
  -86.5700000000000        -1.290210243594174E-019
  -86.3800000000000        -2.250371495117832E-019
  -86.1900000000000        -1.094477424098572E-019
  -86.0000000000000         1.069584661814384E-019
  -85.8100000000000         2.179044228749642E-019
  -85.6200000000000         1.186615319970670E-019
  -85.4300000000000        -9.412692318622685E-020
  -85.2400000000000        -2.149324428576967E-019
  -85.0500000000000        -1.258952999105954E-019
  -84.8600000000000         9.009380159957434E-020
  -84.6700000000000         2.280200443629893E-019
  -84.4800000000000         1.563054618931422E-019
  -84.2900000000000        -5.756308858586220E-020
  -84.1000000000000        -2.114941512282930E-019
  -83.9100000000000        -1.616448610478958E-019
  -83.7200000000000         4.059086355537369E-020
  -83.5300000000000         1.980779253791198E-019
  -83.3400000000000         1.565958617556492E-019
  -83.1500000000000        -4.730575572830914E-020
  -82.9600000000000        -2.204945132460159E-019
  -82.7700000000000        -1.971687621340325E-019
  -82.5800000000000         3.010484594420566E-021
  -82.3900000000000         1.936373932261189E-019
  -82.2000000000000         1.991072611915053E-019
  -82.0100000000000         2.132906863821098E-020
  -81.8200000000000        -1.632705617788217E-019
  -81.6300000000000        -1.731866335071585E-019
  -81.4400000000000         4.120283060963972E-021
  -81.2500000000000         1.997685128432779E-019
  -81.0600000000000         2.247097304398072E-019
  -80.8700000000000         5.072694832380992E-020
  -80.6800000000000        -1.620143513146116E-019
  -80.4900000000000        -2.173169850563996E-019
  -80.3000000000000        -6.952261962795973E-020
  -80.1100000000000         1.338057518701489E-019
  -79.9200000000000         1.934754818036790E-019
  -79.7300000000000         4.922763416267996E-020
  -79.5400000000000        -1.625071830735693E-019
  -79.3500000000000        -2.388580516892990E-019
  -79.1600000000000        -1.045529000407075E-019
  -78.9700000000000         1.157353620116609E-019
  -78.7800000000000         2.160874315578030E-019
  -78.5900000000000         1.055969325962777E-019
  -78.4000000000000        -1.054147968888079E-019
  -78.2100000000000        -2.113546751798520E-019
  -78.0200000000000        -1.080624369343280E-019
  -77.8300000000000         1.075066542651891E-019
  -77.6400000000000         2.297861185370010E-019
  -77.4500000000000         1.411337175071510E-019
  -77.2600000000000        -7.534404805528276E-020
  -77.0700000000000        -2.147593128861220E-019
  -76.8800000000000        -1.458619310995883E-019
  -76.6900000000000         6.391631829052799E-020
  -76.5000000000000         2.131797609034061E-019
  -76.3100000000000         1.590503780382409E-019
  -76.1200000000000        -4.633421935037702E-020
  -75.9300000000000        -2.055331423606837E-019
  -75.7400000000000        -1.644448408957579E-019
  -75.5500000000000         4.010451894000968E-020
  -75.3600000000000         2.150017771865937E-019
  -75.1700000000000         1.948489370941248E-019
  -74.9800000000000        -5.064458799093835E-022
  -74.7900000000000        -1.853488905813952E-019
  -74.6000000000000        -1.855692045633339E-019
  -74.4100000000000        -4.669010739361605E-021
  -74.2200000000000         1.799775137137406E-019
  -74.0300000000000         1.869867278746078E-019
  -73.8400000000000         4.913623615370826E-021
  -73.6500000000000        -1.959950604681715E-019
  -73.4600000000000        -2.258722050409336E-019
  -73.2700000000000        -5.639850320550188E-020
  -73.0800000000000         1.521366232143167E-019
  -72.8900000000000         2.036419955081029E-019
  -72.7000000000000         5.283942042888973E-020
  -72.5100000000000        -1.522582515164577E-019
  -72.3200000000000        -2.122341575051817E-019
  -72.1300000000000        -6.706039783484133E-020
  -71.9400000000000         1.463090144826574E-019
  -71.7500000000000         2.247073006704874E-019
  -71.5600000000000         9.306427532746415E-020
  -71.3700000000000        -1.235381880502299E-019
  -71.1800000000000        -2.189883242845307E-019
  -70.9900000000000        -1.025830859734377E-019
  -70.8000000000000         1.147081477230926E-019
  -70.6100000000000         2.262591531244979E-019
  -70.4200000000000         1.268492965006309E-019
  -70.2300000000000        -8.720184636435391E-020
  -70.0400000000000        -2.104278377921844E-019
  -69.8500000000000        -1.248995122776364E-019
  -69.6600000000000         8.689387677733239E-020
  -69.4700000000000         2.209374856447133E-019
  -69.2800000000000         1.467964911826612E-019
  -69.0900000000000        -6.757251003619332E-020
  -68.9000000000000        -2.203591272869342E-019
  -68.7100000000000        -1.681200569100860E-019
  -68.5200000000000         3.762118776458244E-020
  -68.3300000000000         1.997352001105351E-019
  -68.1400000000000         1.638063897599801E-019
  -67.9500000000000        -3.448767184474585E-020
  -67.7600000000000        -2.038746567994716E-019
  -67.5700000000000        -1.807419696578354E-019
  -67.3800000000000         1.425492163281425E-020
  -67.1900000000000         1.958329674546340E-019
  -67.0000000000000         1.910127306742628E-019
  -66.8100000000000         4.388840283950998E-021
  -66.6200000000000        -1.860197597625854E-019
  -66.4300000000000        -1.985677041396381E-019
  -66.2400000000000        -2.141215892060293E-020
  -66.0500000000000         1.762455185790765E-019
  -65.8600000000000         2.059598834618742E-019
  -65.6700000000000         4.013486380406099E-020
  -65.4800000000000        -1.617404756134801E-019
  -65.2900000000000        -2.056319490600668E-019
  -65.1000000000000        -4.851262306285239E-020
  -64.9100000000000         1.602284113702942E-019
  -64.7200000000000         2.212086586670104E-019
  -64.5300000000000         7.552075776395027E-020
  -64.3400000000000        -1.387430249080405E-019
  -64.1500000000000        -2.181466416535198E-019
  -63.9600000000000        -8.801744381876563E-020
  -63.7700000000000         1.264538572796288E-019
  -63.5800000000000         2.198869042801011E-019
  -63.3900000000000         1.027732861125161E-019
  -63.2000000000000        -1.131465464030989E-019
  -63.0100000000000        -2.216505528645560E-019
  -62.8200000000000        -1.191653546540208E-019
  -62.6300000000000         9.599607377197423E-020
  -62.4400000000000         2.173587321213740E-019
  -62.2500000000000         1.275813812201737E-019
  -62.0600000000000        -8.926910211743487E-020
  -61.8700000000000        -2.277275303120232E-019
  -61.6800000000000        -1.567256751537932E-019
  -61.4900000000000         5.562589164110368E-020
  -61.3000000000000         2.071321430956057E-019
  -61.1100000000000         1.543871795585120E-019
  -60.9200000000000        -5.048214592693223E-020
  -60.7300000000000        -2.097582418502795E-019
  -60.5400000000000        -1.691515632032093E-019
  -60.3500000000000         3.472964607971042E-020
  -60.1600000000000         2.093697091127138E-019
  -59.9700000000000         1.901793755833959E-019
  -59.7800000000000        -2.531516066064899E-021
  -59.5900000000000        -1.831959700536907E-019
  -59.4000000000000        -1.783611954981798E-019
  -59.2100000000000         7.515169085720919E-021
  -59.0200000000000         1.961680487285913E-019
  -58.8300000000000         2.057354055666602E-019
  -58.6400000000000         2.451475280040080E-020
  -58.4500000000000        -1.777613791366625E-019
  -58.2600000000000        -2.117882394429136E-019
  -58.0700000000000        -4.897234681698734E-020
  -57.8800000000000         1.518781067139750E-019
  -57.6900000000000         1.966935967206116E-019
  -57.5000000000000         4.178691216567506E-020
  -57.3100000000000        -1.642779733090141E-019
  -57.1200000000000        -2.226869864454414E-019
  -56.9300000000000        -7.460001897965376E-020
  -56.7400000000000         1.423195531385402E-019
  -56.5500000000000         2.251236503849511E-019
  -56.3600000000000         9.902583354544223E-020
  -56.1700000000000        -1.117197088827013E-019
  -55.9800000000000        -2.029959635100536E-019
  -55.7900000000000        -8.614681896118241E-020
  -55.6000000000000         1.270578490744399E-019
  -55.4100000000000         2.310888658875958E-019
  -55.2200000000000         1.232412646975942E-019
  -55.0300000000000        -9.776301471830269E-020
  -54.8400000000000        -2.255772802078581E-019
  -54.6500000000000        -1.428337215726324E-019
  -54.4600000000000         6.731969727646966E-020
  -54.2700000000000         2.011454481576760E-019
  -54.0800000000000         1.292156977987242E-019
  -53.8900000000000        -7.981239415685130E-020
  -53.7000000000000        -2.247482323568438E-019
  -53.5100000000000        -1.642950865026891E-019
  -53.3200000000000         4.741546284125177E-020
  -53.1300000000000         2.118654833159923E-019
  -52.9400000000000         1.751891439153421E-019
  -52.7500000000000        -2.533989768962920E-020
  -52.5600000000000        -1.972132122389830E-019
  -52.3700000000000        -1.765760102642906E-019
  -52.1800000000000         1.547366383713504E-020
  -51.9900000000000         1.933370772698890E-019
  -51.8000000000000         1.846271629352787E-019
  -51.6100000000000        -4.562633258751829E-021
  -51.4200000000000        -1.948733901656901E-019
  -51.2300000000000        -2.045952447923281E-019
  -51.0400000000000        -2.305319470557050E-020
  -50.8500000000000         1.791072929131836E-019
  -50.6600000000000         2.124494893990097E-019
  -50.4700000000000         4.896339100663707E-020
  -50.2800000000000        -1.518238585538431E-019
  -50.0900000000000        -1.956247920282454E-019
  -49.9000000000000        -3.922275096419207E-020
  -49.7100000000000         1.681302534510417E-019
  -49.5200000000000         2.273846278378015E-019
  -49.3300000000000         8.007887307271651E-020
  -49.1400000000000        -1.355829545768777E-019
  -48.9500000000000        -2.164998739938873E-019
  -48.7600000000000        -8.833434402000130E-020
  -48.5700000000000         1.237892329926754E-019
  -48.3800000000000         2.149002417640205E-019
  -48.1900000000000         9.591359214390514E-020
  -48.0000000000000        -1.213400912973025E-019
  -47.8100000000000        -2.309992200444050E-019
  -47.6200000000000        -1.298677103300285E-019
  -47.4300000000000         8.407774012675586E-020
  -47.2400000000000         2.054867909147155E-019
  -47.0500000000000         1.180041474298347E-019
  -46.8600000000000        -9.443704847475521E-020
  -46.6700000000000        -2.276622608591076E-019
  -46.4800000000000        -1.522215392783984E-019
  -46.2900000000000         6.285471473958521E-020
  -46.1000000000000         2.157451877324245E-019
  -45.9100000000000         1.643074552343070E-019
  -45.7200000000000        -3.853867177715411E-020
  -45.5300000000000        -1.958277817713662E-019
  -45.3400000000000        -1.550736751927773E-019
  -45.1500000000000         4.590493787976000E-020
  -44.9600000000000         2.151102235617805E-019
  -44.7700000000000         1.899077212856996E-019
  -44.5800000000000        -7.282591950092598E-021
  -44.3900000000000        -1.899539065627094E-019
  -44.2000000000000        -1.853513105871613E-019
  -44.0100000000000         5.982367554920312E-022
  -43.8200000000000         1.889085867642073E-019
  -43.6300000000000         1.983877759539560E-019
  -43.4400000000000         1.851736080165029E-020
  -43.2500000000000        -1.806390881288260E-019
  -43.0600000000000        -2.107975226999449E-019
  -42.8700000000000        -4.505946333739231E-020
  -42.6800000000000         1.566305094373736E-019
  -42.4900000000000         2.004812391382743E-019
  -42.3000000000000         4.419952194123011E-020
  -42.1100000000000        -1.624746674303847E-019
  -41.9200000000000        -2.208875591372155E-019
  -41.7300000000000        -7.349328897292184E-020
  -41.5400000000000         1.408160697690433E-019
  -41.3500000000000         2.189402404139127E-019
  -41.1600000000000         8.715190907341943E-020
  -40.9700000000000        -1.286696327462979E-019
  -40.7800000000000        -2.231478281178718E-019
  -40.5900000000000        -1.072371293252635E-019
  -40.4000000000000         1.071601159005062E-019
  -40.2100000000000         2.145282583846985E-019
  -40.0200000000000         1.123728941499511E-019
  -39.8300000000000        -1.007616499433939E-019
  -39.6400000000000        -2.194721244370313E-019
  -39.4500000000000        -1.278534714383206E-019
  -39.2600000000000         8.948767059893686E-020
  -39.0700000000000         2.278115132397764E-019
  -38.8800000000000         1.573884258786446E-019
  -38.6900000000000        -5.287343370993211E-020
  -38.5000000000000        -2.014024854753812E-019
  -38.3100000000000        -1.464909134864197E-019
  -38.1200000000000         5.858721916065333E-020
  -37.9300000000000         2.168289280088217E-019
  -37.7400000000000         1.759512692415842E-019
  -37.5500000000000        -2.603738205206514E-020
  -37.3600000000000        -1.971109437076883E-019
  -37.1700000000000        -1.746915164759493E-019
  -36.9800000000000         1.888286553218154E-020
  -36.7900000000000         1.974648161207470E-019
  -36.6000000000000         1.887583900039817E-019
  -36.4100000000000        -1.140442488552239E-021
  -36.2200000000000        -1.935076660291866E-019
  -36.0300000000000        -2.074777825176609E-019
  -35.8400000000000        -3.236394137859210E-020
  -35.6500000000000         1.626521542008282E-019
  -35.4600000000000         1.905307898055838E-019
  -35.2700000000000         2.523959720130109E-020
  -35.0800000000000        -1.734408041002942E-019
  -34.8900000000000        -2.129177367950499E-019
  -34.7000000000000        -5.236506005080129E-020
  -34.5100000000000         1.576414376330121E-019
  -34.3200000000000         2.184590565300306E-019
  -34.1300000000000         7.284343169143006E-020
  -33.9400000000000        -1.403820110893996E-019
  -33.7500000000000        -2.186823476187199E-019
  -33.5600000000000        -8.889502761411605E-020
  -33.3700000000000         1.232615967070932E-019
  -33.1800000000000         2.136216525985570E-019
  -32.9900000000000         9.488951682062582E-020
  -32.8000000000000        -1.198034129358154E-019
  -32.6100000000000        -2.249421193961394E-019
  -32.4200000000000        -1.190068043124737E-019
  -32.2300000000000         9.842094667515774E-020
  -32.0400000000000         2.215745639599843E-019
  -31.8500000000000         1.348652531059281E-019
  -31.6600000000000        -7.676452794922296E-020
  -31.4700000000000        -2.089723093258572E-019
  -31.2800000000000        -1.333135565153851E-019
  -31.0900000000000         7.978980825774351E-020
  -30.9000000000000         2.279553003382739E-019
  -30.7100000000000         1.697883377361768E-019
  -30.5200000000000        -4.034160689265870E-020
  -30.3300000000000        -2.042681912678642E-019
  -30.1400000000000        -1.690090138325161E-019
  -29.9500000000000         2.762446152884360E-020
  -29.7600000000000         1.936764859990996E-019
  -29.5700000000000         1.668840755137668E-019
  -29.3800000000000        -2.988314042213490E-020
  -29.1900000000000        -2.100866313511532E-019
  -29.0000000000000        -2.014409035695455E-019
  -28.8100000000000        -1.039198585957596E-020
  -28.6200000000000         1.838759664500588E-019
  -28.4300000000000         2.001141474134783E-019
  -28.2400000000000         2.740506931375403E-020
  -28.0500000000000        -1.652017571520851E-019
  -27.8600000000000        -1.908386699625695E-019
  -27.6700000000000        -2.374516915141619E-020
  -27.4800000000000         1.760134916761202E-019
  -27.2900000000000         2.156234942403171E-019
  -27.1000000000000         5.407466982481028E-020
  -26.9100000000000        -1.581522505579952E-019
  -26.7200000000000        -2.221695542608536E-019
  -26.5300000000000        -7.994570140071950E-020
  -26.3400000000000         1.308462014801383E-019
  -26.1500000000000         2.086412103391332E-019
  -25.9600000000000         8.050914370886966E-020
  -25.7700000000000        -1.285138676840239E-019
  -25.5800000000000        -2.154585238246200E-019
  -25.3900000000000        -9.396234563366377E-020
  -25.2000000000000         1.227404153155148E-019
  -25.0100000000000         2.297176079387096E-019
  -24.8200000000000         1.259924686093049E-019
  -24.6300000000000        -8.898770064003437E-020
  -24.4400000000000        -2.102469580750782E-019
  -24.2500000000000        -1.229724707049005E-019
  -24.0600000000000         8.787868829446029E-020
  -23.8700000000000         2.188131707573194E-019
  -23.6800000000000         1.423381397958564E-019
  -23.4900000000000        -7.105962637591566E-020
  -23.3000000000000        -2.200661165556388E-019
  -23.1100000000000        -1.646820965107854E-019
  -22.9200000000000         4.018914999015302E-020
  -22.7300000000000         1.973035328799650E-019
  -22.5400000000000         1.555925856725843E-019
  -22.3500000000000        -4.542622754067962E-020
  -22.1600000000000        -2.133383800714264E-019
  -21.9700000000000        -1.866927385995847E-019
  -21.7800000000000         1.058298013285987E-020
  -21.5900000000000         1.917618394641280E-019
  -21.4000000000000         1.853957052642590E-019
  -21.2100000000000        -1.115010270559067E-021
  -21.0200000000000        -1.886283130157203E-019
  -20.8300000000000        -1.972884703197798E-019
  -20.6400000000000        -1.820837931454321E-020
  -20.4500000000000         1.781565849567713E-019
  -20.2600000000000         2.049892680311727E-019
  -20.0700000000000         3.776643610235052E-020
  -19.8800000000000        -1.621321389061449E-019
  -19.6900000000000        -2.014811032317464E-019
  -19.5000000000000        -3.985706326697199E-020
  -19.3100000000000         1.713947254152032E-019
  -19.1200000000000         2.331021519182736E-019
  -18.9300000000000         8.784384294951572E-020
  -18.7400000000000        -1.256408634557676E-019
  -18.5500000000000        -2.050590866666885E-019
  -18.3600000000000        -7.756327784506828E-020
  -18.1700000000000         1.311152376815742E-019
  -17.9800000000000         2.173097991970977E-019
  -17.7900000000000         9.446058634700306E-020
  -17.6000000000000        -1.238176115256296E-019
  -17.4100000000000        -2.319679989747259E-019
  -17.2200000000000        -1.286377190634686E-019
  -17.0300000000000         8.655780451373501E-020
  -16.8400000000000         2.080374385962311E-019
  -16.6500000000000         1.203289862473657E-019
  -16.4600000000000        -9.194835599784698E-020
  -16.2700000000000        -2.251104649645178E-019
  -16.0800000000000        -1.509765408637719E-019
  -15.8900000000000         6.080375859202321E-020
  -15.7000000000000         2.093461302786359E-019
  -15.5100000000000         1.543271007400819E-019
  -15.3200000000000        -5.020099982842857E-020
  -15.1300000000000        -2.076892401910835E-019
  -14.9400000000000        -1.669772756103475E-019
  -14.7500000000000         3.340076364825159E-020
  -14.5600000000000         2.023300824930844E-019
  -14.3700000000000         1.790259815841496E-019
  -14.1800000000000        -1.317696206977625E-020
  -13.9900000000000        -1.891135607995192E-019
  -13.8000000000000        -1.787976973187770E-019
  -13.6100000000000         9.996405896594835E-021
  -13.4200000000000         1.989368924325973E-019
  -13.2300000000000         2.093039949439760E-019
  -13.0400000000000         3.258095360670187E-020
  -12.8500000000000        -1.615604048676016E-019
  -12.6600000000000        -1.875382496085654E-019
  -12.4700000000000        -2.131103193634748E-020
  -12.2800000000000         1.765940074261396E-019
  -12.0900000000000         2.144815469232669E-019
  -11.9000000000000         5.275983691969511E-020
  -11.7100000000000        -1.580092340360581E-019
  -11.5200000000000        -2.206824272354472E-019
  -11.3300000000000        -7.963764529082794E-020
  -11.1400000000000         1.262973053913960E-019
  -10.9500000000000         1.967184956030102E-019
  -10.7600000000000         6.141198023219845E-020
  -10.5700000000000        -1.522362653831310E-019
  -10.3800000000000        -2.406827840123733E-019
  -10.1900000000000        -1.186098103475979E-019
  -10.0000000000000         9.941097583853494E-020
  -9.81000000000000         2.080847406905755E-019
  -9.62000000000000         1.072641417342626E-019
  -9.42999999999999        -1.025193529796748E-019
  -9.23999999999999        -2.161866683881839E-019
  -9.05000000000000        -1.201885291654751E-019
  -8.86000000000000         9.867351102084090E-020
  -8.67000000000000         2.355955498724292E-019
  -8.48000000000000         1.627476549066047E-019
  -8.28999999999999        -4.910023909271569E-020
  -8.09999999999999        -1.982754769965748E-019
  -7.91000000000000        -1.445766809852401E-019
  -7.72000000000000         5.727904397765550E-020
  -7.53000000000000         2.104770331703197E-019
  -7.34000000000000         1.646488092060029E-019
  -7.15000000000001        -4.003801039540046E-020
  -6.95999999999999        -2.108978100778722E-019
  -6.77000000000000        -1.865083631957852E-019
  -6.58000000000000         9.262257766059273E-021
  -6.39000000000000         1.900147501209622E-019
  -6.20000000000000         1.846042998938257E-019
  -6.01000000000001         2.440555116376852E-022
  -5.81999999999999        -1.847294677269552E-019
  -5.63000000000000        -1.914424476774949E-019
  -5.44000000000000        -1.147600125516353E-020
  -5.25000000000000         1.849992464758941E-019
  -5.06000000000000         2.116207892656487E-019
  -4.87000000000000         4.362283829117359E-020
  -4.67999999999999        -1.587099533775410E-019
  -4.48999999999999        -2.032026526525351E-019
  -4.30000000000000        -4.920165419383975E-020
  -4.11000000000000         1.539538695971561E-019
  -3.92000000000000         2.100673115125771E-019
  -3.73000000000000         6.394415286656294E-020
  -3.53999999999999        -1.456025092300743E-019
  -3.34999999999999        -2.182445402350468E-019
  -3.16000000000000        -8.353385589437938E-020
  -2.97000000000000         1.316096234137510E-019
  -2.78000000000000         2.237760150744209E-019
  -2.59000000000000         1.069226393784647E-019
  -2.40000000000001        -1.058767337718395E-019
  -2.20999999999999        -2.108460251360381E-019
  -2.02000000000000        -1.084671643698210E-019
  -1.83000000000000         1.013625620380788E-019
  -1.64000000000000         2.149299313860229E-019
  -1.45000000000000         1.196828628927757E-019
  -1.26000000000001        -9.773082048791090E-020
  -1.06999999999999        -2.336028356710903E-019
 -0.879999999999995        -1.611258308104906E-019
 -0.689999999999998         4.893326097602126E-020
 -0.500000000000000         1.960288477607256E-019
 -0.310000000000002         1.413556917958555E-019
 -0.120000000000005        -5.983270785480656E-020
  7.000000000000739E-002   -2.114771560273509E-019
  0.260000000000005        -1.645696350854390E-019
  0.450000000000003         3.996586277948404E-020
  0.640000000000001         2.099336598107646E-019
  0.829999999999998         1.851911596336618E-019
   1.02000000000000        -9.420500333650011E-021
   1.21000000000001        -1.876315534741032E-019
   1.40000000000001        -1.793941109354715E-019
   1.59000000000000         6.949756203882695E-021
   1.78000000000000         1.928273630207744E-019
   1.97000000000000         2.000949368252038E-019
   2.16000000000000         2.118643633077432E-020
   2.34999999999999        -1.737000833928379E-019
   2.54000000000001        -1.991785458413225E-019
   2.73000000000000        -3.175237606997196E-020
   2.92000000000000         1.677106497104161E-019
   3.11000000000000         2.076283546538908E-019
   3.30000000000000         4.877700112786891E-020
   3.48999999999999        -1.581080525018091E-019
   3.68000000000001        -2.161596100018233E-019
   3.87000000000000        -7.024889666425680E-020
   4.06000000000000         1.405019165295520E-019
   4.25000000000000         2.156057390166000E-019
   4.44000000000000         8.453966880221584E-020
   4.63000000000000        -1.261242585761769E-019
   4.82000000000001        -2.138255893018517E-019
   5.01000000000001        -9.369833497671950E-020
   5.20000000000000         1.201740019019544E-019
   5.39000000000000         2.236088869588185E-019
   5.58000000000000         1.173424851580353E-019
   5.77000000000000        -9.806728209572054E-020
   5.96000000000001        -2.180837077749367E-019
   6.15000000000001        -1.292508010443944E-019
   6.34000000000000         8.271590985051553E-020
   6.53000000000000         2.149066295995567E-019