  -105.000000000000        -1.373266595701117E-020
  -104.810000000000        -3.786689659225753E-020
  -104.620000000000        -5.312753121586099E-020
  -104.430000000000        -5.664486374715915E-020
  -104.240000000000        -4.882851778290403E-020
  -104.050000000000        -3.321660090570810E-020
  -103.860000000000        -1.542475297918718E-020
  -103.670000000000        -1.500737521473081E-021
  -103.480000000000         3.836959716568835E-021
  -103.290000000000        -1.435311486337436E-021
  -103.100000000000        -1.607237187019319E-020
  -102.910000000000        -3.594214585507038E-020
  -102.720000000000        -5.524958683770261E-020
  -102.530000000000        -6.824485944589138E-020
  -102.340000000000        -7.091889995376340E-020
  -102.150000000000        -6.219406922639219E-020
  -101.960000000000        -4.426394482072625E-020
  -101.770000000000        -2.198235662310797E-020
  -101.580000000000        -1.477040784017290E-021
  -101.390000000000         1.161143755954174E-020
  -101.200000000000         1.375476741872130E-020
  -101.010000000000         4.553095887611888E-021
  -100.820000000000        -1.315423168243251E-020
  -100.630000000000        -3.411579743670250E-020
  -100.440000000000        -5.219169428513382E-020
  -100.250000000000        -6.213018812583054E-020
  -100.060000000000        -6.108232517185847E-020
  -99.8700000000000        -4.941672753002527E-020
  -99.6800000000000        -3.060010062482577E-020
  -99.4900000000000        -1.017986755587555E-020
  -99.3000000000000         5.834605201216813E-021
  -99.1100000000000         1.272239180658656E-020
  -98.9200000000000         8.426066339640336E-021
  -98.7300000000000        -5.846968265962511E-021
  -98.5400000000000        -2.597184300241946E-020
  -98.3500000000000        -4.610170403223994E-020
  -98.1600000000000        -6.036326484507007E-020
  -97.9700000000000        -6.455914714503712E-020
  -97.7800000000000        -5.738350227719923E-020
  -97.5900000000000        -4.079998287129827E-020
  -97.4000000000000        -1.947348681098004E-020
  -97.2100000000000         5.799040047079640E-022
  -97.0200000000000         1.373412223369913E-020
  -96.8300000000000         1.638097883764031E-020
  -96.6400000000000         7.972862271255886E-021
  -96.4500000000000        -8.821873660452643E-021
  -96.2600000000000        -2.889599580268219E-020
  -96.0700000000000        -4.618804314017341E-020
  -95.8800000000000        -5.544392094843492E-020
  -95.6900000000000        -5.374343753705946E-020
  -95.5000000000000        -4.134808468487197E-020
  -95.3100000000000        -2.162514632095336E-020
  -95.1200000000000        -7.257733236112091E-023
  -94.9300000000000         1.727146335212028E-020
  -94.7400000000000         2.557482109668481E-020
  -94.5500000000000         2.260901052421858E-020
  -94.3600000000000         9.392962043989613E-021
  -94.1700000000000        -1.010541274144847E-020
  -93.9800000000000        -3.012407267318442E-020
  -93.7900000000000        -4.478269642808639E-020
  -93.6000000000000        -4.979237949757651E-020
  -93.4100000000000        -4.370115462434316E-020
  -93.2200000000000        -2.831094944704208E-020
  -93.0300000000000        -8.143617729161433E-021
  -92.8400000000000         1.088638828866954E-020
  -92.6500000000000         2.320275414331838E-020
  -92.4600000000000         2.519633301527074E-020
  -92.2700000000000         1.628002188546627E-020
  -92.0800000000000        -9.352091509379824E-022
  -91.8900000000000        -2.139347999521665E-020
  -91.7000000000000        -3.905792485778174E-020
  -91.5100000000000        -4.866117571308923E-020
  -91.3200000000000        -4.723510487858609E-020
  -91.1300000000000        -3.497614224943798E-020
  -90.9400000000000        -1.519480418025710E-020
  -90.7500000000000         6.636268413262891E-021
  -90.5600000000000         2.445979369305174E-020
  -90.3700000000000         3.337930875415928E-020
  -90.1800000000000         3.106634102961108E-020
  -89.9900000000000         1.842210059404381E-020
  -89.8000000000000        -6.953356942893301E-022
  -89.6100000000000        -2.059582743817613E-020
  -89.4200000000000        -3.540700308341752E-020
  -89.2300000000000        -4.077315576642290E-020
  -89.0400000000000        -3.511345275549023E-020
  -88.8500000000000        -2.007609205825111E-020
  -88.6600000000000        -5.755763854449756E-023
  -88.4700000000000         1.907342978432182E-020
  -88.2800000000000         3.167913896609803E-020
  -88.0900000000000         3.399240628208056E-020
  -87.9000000000000         2.521820204055496E-020
  -87.7100000000000         7.776130747579852E-021
  -87.5200000000000        -1.338869325997250E-020
  -87.3300000000000        -3.222885081449046E-020
  -87.1400000000000        -4.334239471734335E-020
  -86.9500000000000        -4.354083657095035E-020
  -86.7600000000000        -3.278150633250762E-020
  -86.5700000000000        -1.418977795998875E-020
  -86.3800000000000         6.839160583552027E-021
  -86.1900000000000         2.420072634365416E-020
  -86.0000000000000         3.285181502599473E-020
  -85.8100000000000         3.027725859872904E-020
  -85.6200000000000         1.722314815141721E-020
  -85.4300000000000        -2.518772710958050E-021
  -85.2400000000000        -2.321392011975960E-020
  -85.0500000000000        -3.885427520801243E-020
  -84.8600000000000        -4.490879271587338E-020
  -84.6700000000000        -3.964456149783234E-020
  -84.4800000000000        -2.463217350220045E-020
  -84.2900000000000        -4.286535879847256E-021
  -84.1000000000000         1.542358488771703E-020
  -83.9100000000000         2.872056572710174E-020
  -83.7200000000000         3.170639896916580E-020
  -83.5300000000000         2.349878903541377E-020
  -83.3400000000000         6.482078542607609E-021
  -83.1500000000000        -1.439753621968507E-020
  -82.9600000000000        -3.308207896718108E-020
  -82.7700000000000        -4.417015515513963E-020
  -82.5800000000000        -4.448614804212004E-020
  -82.3900000000000        -3.399475218228907E-020
  -82.2000000000000        -1.580051371739514E-020
  -82.0100000000000         4.760903232536802E-021
  -81.8200000000000         2.167320361429135E-020
  -81.6300000000000         2.998292562172735E-020
  -81.4400000000000         2.723171879233681E-020
  -81.2500000000000         1.416377018636793E-020
  -81.0600000000000        -5.493565985126632E-021
  -80.8700000000000        -2.610987194988246E-020
  -80.6800000000000        -4.178016242302044E-020
  -80.4900000000000        -4.803141182801543E-020
  -80.3000000000000        -4.311250123736310E-020
  -80.1100000000000        -2.849461194581325E-020
  -79.9200000000000        -8.440929948146476E-021
  -79.7300000000000         1.122667206232782E-020
  -79.5400000000000         2.480847374056712E-020
  -79.3500000000000         2.837275897163108E-020
  -79.1600000000000         2.089321377472882E-020
  -78.9700000000000         4.550055271725421E-021
  -78.7800000000000        -1.589285352721876E-020
  -78.5900000000000        -3.445885570878990E-020
  -78.4000000000000        -4.568667311414227E-020
  -78.2100000000000        -4.621898037640338E-020
  -78.0200000000000        -3.579037484824500E-020
  -77.8300000000000        -1.732476134459868E-020
  -77.6400000000000         3.892021419720875E-021
  -77.4500000000000         2.173143949439311E-020
  -77.2600000000000         3.099681758374616E-020
  -77.0700000000000         2.893747861409367E-020
  -76.8800000000000         1.605978940301026E-020
  -76.6900000000000        -4.004228574141672E-021
  -76.5000000000000        -2.553809817435489E-020
  -76.3100000000000        -4.239435276316114E-020
  -76.1200000000000        -4.977929773820158E-020
  -75.9300000000000        -4.564560608746258E-020
  -75.7400000000000        -3.128507308743731E-020
  -75.5500000000000        -1.094922040055404E-020
  -75.3600000000000         9.392255423994238E-021
  -75.1700000000000         2.379346477087502E-020
  -74.9800000000000         2.806362588251732E-020
  -74.7900000000000         2.098031610061832E-020
  -74.6000000000000         4.634584317845446E-021
  -74.4100000000000        -1.618628709183295E-020
  -74.2200000000000        -3.539599281738030E-020
  -74.0300000000000        -4.737969568320142E-020
  -73.8400000000000        -4.862150838718541E-020
  -73.6500000000000        -3.871559564675579E-020
  -73.4600000000000        -2.047124370070443E-020
  -73.2700000000000         9.128300983679300E-022
  -73.0800000000000         1.936125306277234E-020
  -72.8900000000000         2.967994559340809E-020
  -72.7000000000000         2.904752285525766E-020
  -72.5100000000000         1.781005649885611E-020
  -72.3200000000000        -6.446456214903328E-022
  -72.1300000000000        -2.088964551321844E-020
  -71.9400000000000        -3.704197209241138E-020
  -71.7500000000000        -4.446413281696798E-020
  -71.5600000000000        -4.109328702482296E-020
  -71.3700000000000        -2.802051068954826E-020
  -71.1800000000000        -9.158864202190250E-021
  -70.9900000000000         9.901474995868113E-021
  -70.8000000000000         2.351850415108313E-020
  -70.6100000000000         2.763283948569244E-020
  -70.4200000000000         2.094148113945813E-020
  -70.2300000000000         5.276914192060098E-021
  -70.0400000000000        -1.491680848110252E-020
  -69.8500000000000        -3.386252907261716E-020
  -69.6600000000000        -4.611462362072882E-020
  -69.4700000000000        -4.812796132456760E-020
  -69.2800000000000        -3.927931188567553E-020
  -69.0900000000000        -2.204749306606935E-020
  -68.9000000000000        -1.297051150933907E-021
  -68.7100000000000         1.713104896102840E-020
  -68.5200000000000         2.811196223239708E-020
  -68.3300000000000         2.871794349696693E-020
  -68.1400000000000         1.905665194191441E-020
  -67.9500000000000         2.223120750990282E-021
  -67.7600000000000        -1.662127878399751E-020
  -67.5700000000000        -3.177233183575473E-020
  -67.3800000000000        -3.865975346437883E-020
  -67.1900000000000        -3.518697996725189E-020
  -67.0000000000000        -2.234715256941163E-020
  -66.8100000000000        -3.938536471691068E-021
  -66.6200000000000         1.453798203735672E-020
  -66.4300000000000         2.747806360856210E-020
  -66.2400000000000         3.080423236640580E-020
  -66.0500000000000         2.315589737770892E-020
  -65.8600000000000         6.295253046980008E-021
  -65.6700000000000        -1.539112600514499E-020
  -65.4800000000000        -3.615203538125179E-020
  -65.2900000000000        -5.052349010300446E-020
  -65.1000000000000        -5.488874334903237E-020
  -64.9100000000000        -4.849329628828768E-020
  -64.7200000000000        -3.362233046326567E-020
  -64.5300000000000        -1.489310811385350E-020
  -64.3400000000000         2.123206777673850E-021
  -64.1500000000000         1.253995922599014E-020
  -63.9600000000000         1.357525998945374E-020
  -63.7700000000000         5.346257574237018E-021
  -63.5800000000000        -9.188795578921276E-021
  -63.3900000000000        -2.512021957378113E-020
  -63.2000000000000        -3.704409387445133E-020
  -63.0100000000000        -4.066024523364355E-020
  -62.8200000000000        -3.405029687866271E-020
  -62.6300000000000        -1.826815572710409E-020
  -62.4400000000000         2.931650113395193E-021
  -62.2500000000000         2.415361568964864E-020
  -62.0600000000000         3.990199579906921E-020
  -61.8700000000000         4.615646090455948E-020
  -61.6800000000000         4.152897861018597E-020
  -61.4900000000000         2.766537880742624E-020
  -61.3000000000000         8.767670838496297E-021
  -61.1100000000000        -9.629830833655353E-021
  -60.9200000000000        -2.227460022773960E-020
  -60.7300000000000        -2.572903103143233E-020
  -60.5400000000000        -1.937458384141505E-020
  -60.3500000000000        -5.589797952841089E-021
  -60.1600000000000         1.095437680290317E-020
  -59.9700000000000         2.467612315943547E-020
  -59.7800000000000         3.073581806687258E-020
  -59.5900000000000         2.647854605915167E-020
  -59.4000000000000         1.224510287752370E-020
  -59.2100000000000        -8.688569618820526E-021
  -59.0200000000000        -3.102964721648504E-020
  -58.8300000000000        -4.898002474069981E-020
  -58.6400000000000        -5.790673730309080E-020
  -58.4500000000000        -5.568911004261799E-020
  -58.2600000000000        -4.334515658183508E-020
  -58.0700000000000        -2.474357095769404E-020
  -57.8800000000000        -5.479193064319661E-021
  -57.6900000000000         8.759961295395738E-021
  -57.5000000000000         1.385704234098516E-020
  -57.3100000000000         8.473402521401578E-021
  -57.1200000000000        -5.561905139135441E-021
  -56.9300000000000        -2.379840851384893E-020
  -56.7400000000000        -4.048145371098122E-020
  -56.5500000000000        -5.024922305420081E-020
  -56.3600000000000        -4.971504210123787E-020
  -56.1700000000000        -3.847622646061118E-020
  -55.9800000000000        -1.925428092558037E-020
  -55.7900000000000         2.874790516375081E-021
  -55.6000000000000         2.193358685410361E-020
  -55.4100000000000         3.275847920386619E-020
  -55.2200000000000         3.248418799431037E-020
  -55.0300000000000         2.136917315330013E-020
  -54.8400000000000         2.720616625518994E-021
  -54.6500000000000        -1.805876931554256E-020
  -54.4600000000000        -3.502393806391472E-020
  -54.2700000000000        -4.339298128389826E-020
  -54.0800000000000        -4.091488056602512E-020
  -53.8900000000000        -2.850402662100355E-020
  -53.7000000000000        -9.957913931381791E-021
  -53.5100000000000         9.157526359547578E-021
  -53.3200000000000         2.313151165561474E-020
  -53.1300000000000         2.777347181609140E-020
  -52.9400000000000         2.163722377102077E-020
  -52.7500000000000         6.446617597339747E-021
  -52.5600000000000        -1.339903242830084E-020
  -52.3700000000000        -3.209130124020061E-020
  -52.1800000000000        -4.408435831007400E-020
  -51.9900000000000        -4.569332749527093E-020
  -51.8000000000000        -3.615922257586099E-020
  -51.6100000000000        -1.787316937986989E-020
  -51.4200000000000         4.301311028838747E-021
  -51.2300000000000         2.441142816827520E-020
  -51.0400000000000         3.711174061939551E-020
  -50.8500000000000         3.919119007018753E-020
  -50.6600000000000         3.048664318073779E-020
  -50.4700000000000         1.391269427602075E-020
  -50.2800000000000        -5.402273448080760E-021
  -50.0900000000000        -2.162308305678470E-020
  -49.9000000000000        -2.992089416070612E-020
  -49.7100000000000        -2.789082382491004E-020
  -49.5200000000000        -1.625491751051667E-020
  -49.3300000000000         1.354687292099122E-021
  -49.1400000000000         1.946366439876973E-020
  -48.9500000000000         3.236113322591389E-020
  -48.7600000000000         3.577745281121510E-020
  -48.5700000000000         2.814568400144291E-020
  -48.3800000000000         1.107840980229850E-020
  -48.1900000000000        -1.107717591060626E-020
  -48.0000000000000        -3.247629111386288E-020
  -47.8100000000000        -4.745074786024711E-020
  -47.6200000000000        -5.213686608266866E-020
  -47.4300000000000        -4.558212158747045E-020
  -47.2400000000000        -3.000903000794394E-020
  -47.0500000000000        -1.016443481048743E-020
  -46.8600000000000         8.054720607971631E-021
  -46.6700000000000         1.930309321551423E-020
  -46.4800000000000         2.032394772386180E-020
  -46.2900000000000         1.087608136161070E-020
  -46.1000000000000        -6.213406437845760E-021
  -45.9100000000000        -2.588036725266056E-020
  -45.7200000000000        -4.229847860124446E-020
  -45.5300000000000        -5.057198078047893E-020
  -45.3400000000000        -4.815201289530120E-020
  -45.1500000000000        -3.556354491178703E-020
  -44.9600000000000        -1.623811694718109E-020
  -44.7700000000000         4.491059288345563E-021
  -44.5800000000000         2.093689307894058E-020
  -44.3900000000000         2.869786534105648E-020
  -44.2000000000000         2.591155886911883E-020
  -44.0100000000000         1.376438066725690E-020
  -43.8200000000000        -3.878767306047773E-021
  -43.6300000000000        -2.161288656969327E-020
  -43.4400000000000        -3.407366445971280E-020
  -43.2500000000000        -3.750446187543521E-020
  -43.0600000000000        -3.085195520373366E-020
  -42.8700000000000        -1.607132664914470E-020
  -42.6800000000000         2.446667541256527E-021
  -42.4900000000000         1.916196816171723E-020
  -42.3000000000000         2.901132295066154E-020
  -42.1100000000000         2.889561287941706E-020
  -41.9200000000000         1.859060006938307E-020
  -41.7300000000000         8.184854762238034E-022
  -41.5400000000000        -1.953598725585843E-020
  -41.3500000000000        -3.683591147825370E-020
  -41.1600000000000        -4.631838971569975E-020
  -40.9700000000000        -4.546241230322867E-020
  -40.7800000000000        -3.470333595462904E-020
  -40.5900000000000        -1.729073440614483E-020
  -40.4000000000000         1.669063376201499E-021
  -40.2100000000000         1.670844032431520E-020
  -40.0200000000000         2.359224676678276E-020
  -39.8300000000000         2.054095365544171E-020
  -39.6400000000000         8.730070516516521E-021
  -39.4500000000000        -8.073707382580808E-021
  -39.2600000000000        -2.463261214448440E-020
  -39.0700000000000        -3.578728335687041E-020
  -38.8800000000000        -3.797961285617424E-020
  -38.6900000000000        -3.030351418959163E-020
  -38.5000000000000        -1.478121092192580E-020
  -38.3100000000000         4.215661886012539E-021
  -38.1200000000000         2.123804228213326E-020
  -37.9300000000000         3.135547180186623E-020
  -37.7400000000000         3.160374052156826E-020
  -37.5500000000000         2.185619293189144E-020
  -37.3600000000000         4.864996906198266E-021
  -37.1700000000000        -1.453842910241267E-020
  -36.9800000000000        -3.084956150024417E-020
  -36.7900000000000        -3.948956076090725E-020
  -36.6000000000000        -3.812886199655390E-020
  -36.4100000000000        -2.735543545687273E-020
  -36.2200000000000        -1.049881358547794E-020
  -36.0300000000000         7.340990307276530E-021
  -35.8400000000000         2.078227346439409E-020
  -35.6500000000000         2.573669513846603E-020
  -35.4600000000000         2.061247261824570E-020
  -35.2700000000000         6.794408172919857E-021
  -35.0800000000000        -1.174593345515670E-020
  -34.8900000000000        -2.960473317536304E-020
  -34.7000000000000        -4.152812298060951E-020
  -34.5100000000000        -4.395372817926558E-020
  -34.3200000000000        -3.605979542631660E-020
  -34.1300000000000        -2.001837945938197E-020
  -33.9400000000000        -3.773546042547251E-022
  -33.7500000000000         1.725253122379673E-020
  -33.5600000000000         2.782363322112183E-020
  -33.3700000000000         2.831785181124660E-020
  -33.1800000000000         1.863124526666691E-020
  -32.9900000000000         1.619577721008603E-021
  -32.8000000000000        -1.771687501416831E-020
  -32.6100000000000        -3.367915735192156E-020
  -32.4200000000000        -4.152476195008133E-020
  -32.2300000000000        -3.884933977389014E-020
  -32.0400000000000        -2.629515258383395E-020
  -31.8500000000000        -7.378814782435634E-021
  -31.6600000000000         1.251757954100892E-020
  -31.4700000000000         2.770194451860004E-020
  -31.2800000000000         3.382280151038874E-020
  -31.0900000000000         2.913848536386305E-020
  -30.9000000000000         1.503723873420504E-020
  -30.7100000000000        -4.351188176179830E-021
  -30.5200000000000        -2.335055303403902E-020
  -30.3300000000000        -3.639527814455553E-020
  -30.1400000000000        -3.966447897085458E-020
  -29.9500000000000        -3.221396335442499E-020
  -29.7600000000000        -1.627151140626289E-020
  -29.5700000000000         3.397443619624554E-021
  -29.3800000000000         2.087096047288836E-020
  -29.1900000000000         3.079403426628576E-020
  -29.0000000000000         2.994513862955316E-020
  -28.8100000000000         1.819650473280732E-020
  -28.6200000000000        -1.411962535305510E-021
  -28.4300000000000        -2.351620309674917E-020
  -28.2400000000000        -4.195305882710840E-020
  -28.0500000000000        -5.152977586812253E-020
  -27.8600000000000        -4.952845655365155E-020
  -27.6700000000000        -3.650676533359731E-020
  -27.4800000000000        -1.615227959356123E-020
  -27.2900000000000         5.774823689286878E-021
  -27.1000000000000         2.310115751541172E-020
  -26.9100000000000         3.101545773488526E-020
  -26.7200000000000         2.744645814934457E-020
  -26.5300000000000         1.364664618989717E-020
  -26.3400000000000        -6.187032324460324E-021
  -26.1500000000000        -2.614333094288275E-020
  -25.9600000000000        -4.031784522010243E-020
  -25.7700000000000        -4.452885943876029E-020
  -25.5800000000000        -3.753555695287387E-020
  -25.3900000000000        -2.140282371079324E-020
  -25.2000000000000        -8.997942835554223E-022
  -25.0100000000000         1.789372916611668E-020
  -24.8200000000000         2.936353711843579E-020
  -24.6300000000000         3.000292004235553E-020
  -24.4400000000000         1.944501801052742E-020
  -24.2500000000000         5.855307787107575E-022
  -24.0600000000000        -2.123914081681581E-020
  -23.8700000000000        -3.977705256983105E-020
  -23.6800000000000        -4.964960160883292E-020
  -23.4900000000000        -4.789514646379136E-020
  -23.3000000000000        -3.482573646997499E-020
  -23.1100000000000        -1.394597882313622E-020
  -22.9200000000000         9.046094459511093E-021
  -22.7300000000000         2.788777760985749E-020
  -22.5400000000000         3.754048325549732E-020
  -22.3500000000000         3.562223190081320E-020
  -22.1600000000000         2.306694717265544E-020
  -21.9700000000000         3.820353318279037E-021
  -21.7800000000000        -1.633058239616146E-020
  -21.5900000000000        -3.144806774964416E-020
  -21.4000000000000        -3.716713170843157E-020
  -21.2100000000000        -3.195972003018159E-020
  -21.0200000000000        -1.757411456197166E-020
  -20.8300000000000         1.478351461261222E-021
  -20.6400000000000         1.923964496577939E-020
  -20.4500000000000         3.004553824904420E-020
  -20.2600000000000         3.019070759185225E-020
  -20.0700000000000         1.903334971145972E-020
  -19.8800000000000        -7.894146824251113E-022
  -19.6900000000000        -2.410009281333065E-020
  -19.5000000000000        -4.465416004944208E-020
  -19.3100000000000        -5.691959876919315E-020
  -19.1200000000000        -5.765134955059935E-020
  -18.9300000000000        -4.680821088249975E-020
  -18.7400000000000        -2.754908179760812E-020
  -18.5500000000000        -5.313391713678749E-021
  -18.3600000000000         1.374767861423715E-020
  -18.1700000000000         2.454029238717193E-020
  -17.9800000000000         2.448773615451594E-020
  -17.7900000000000         1.425386333928977E-020
  -17.6000000000000        -2.481981863159296E-021
  -17.4100000000000        -2.012909979088693E-020
  -17.2200000000000        -3.284321349554347E-020
  -17.0300000000000        -3.625363499000477E-020
  -16.8400000000000        -2.875451997896325E-020
  -16.6500000000000        -1.198436350083620E-020
  -16.4600000000000         9.638628258462031E-021
  -16.2700000000000         3.018412212049836E-020
  -16.0800000000000         4.391668779407306E-020
  -15.8900000000000         4.695500895915724E-020
  -15.7000000000000         3.840165457490415E-020
  -15.5100000000000         2.061037748663641E-020
  -15.3200000000000        -1.488258928104770E-021
  -15.1300000000000        -2.180718792544935E-020
  -14.9400000000000        -3.485782017538232E-020
  -14.7500000000000        -3.732693830828313E-020
  -14.5600000000000        -2.901110616440886E-020
  -14.3700000000000        -1.283887268959091E-020
  -14.1800000000000         6.014209660495171E-021
  -13.9900000000000         2.165220226209133E-020
  -13.8000000000000         2.918412306378899E-020
  -13.6100000000000         2.614972752148800E-020
  -13.4200000000000         1.323360133568268E-020
  -13.2300000000000        -5.936503410076099E-021
  -13.0400000000000        -2.584743965110021E-020
  -12.8500000000000        -4.071167947909355E-020
  -12.6600000000000        -4.616561050519442E-020
  -12.4700000000000        -4.055540260710491E-020
  -12.2800000000000        -2.543057161309320E-020
  -12.0900000000000        -5.103402163790742E-021
  -11.9000000000000         1.459427630835518E-020
  -11.7100000000000         2.799625452475218E-020
  -11.5200000000000         3.124008614601361E-020
  -11.3300000000000         2.338185824916066E-020
  -11.1400000000000         6.666763629148599E-021
  -10.9500000000000        -1.412024466465287E-020
  -10.7600000000000        -3.304049669472788E-020
  -10.5700000000000        -4.473006977361597E-020
  -10.3800000000000        -4.596749982805349E-020
  -10.1900000000000        -3.661673293848366E-020
  -10.0000000000000        -1.966620656136104E-020
  -9.81000000000000        -3.518666630080443E-022
  -9.62000000000000         1.538176990046163E-020
  -9.42999999999999         2.263273887284779E-020
  -9.23999999999999         1.898923487580835E-020
  -9.05000000000000         5.250679801133796E-021
  -8.86000000000000        -1.478304174593246E-020
  -8.67000000000000        -3.539336467263579E-020
  -8.48000000000000        -5.059070800461666E-020
  -8.28999999999999        -5.585610763838593E-020
  -8.09999999999999        -4.946862322324633E-020
  -7.91000000000000        -3.302723564672050E-020
  -7.72000000000000        -1.100933412026558E-020
  -7.53000000000000         1.051433684908611E-020
  -7.34000000000000         2.563918550664292E-020
  -7.15000000000001         3.034327812936474E-020
  -6.95999999999999         2.365386404073699E-020
  -6.77000000000000         7.926004522404068E-021
  -6.58000000000000        -1.184202526515556E-020
  -6.39000000000000        -2.945747915067683E-020
  -6.20000000000000        -3.932891771208688E-020
  -6.01000000000001        -3.809035010426997E-020
  -5.81999999999999        -2.558607844679492E-020
  -5.63000000000000        -4.934014878092291E-021
  -5.44000000000000         1.835450243001058E-020
  -5.25000000000000         3.795137374542506E-020
  -5.06000000000000         4.852977598410201E-020
  -4.87000000000000         4.729266366148729E-020
  -4.67999999999999         3.476898699930076E-020
  -4.48999999999999         1.465173928035839E-020
  -4.30000000000000        -7.273276811775913E-021
  -4.11000000000000        -2.479821632781948E-020
  -3.92000000000000        -3.307964450703476E-020
  -3.73000000000000        -3.002781215753039E-020
  -3.53999999999999        -1.690604310447957E-020
  -3.34999999999999         2.031038833864998E-021
  -3.16000000000000         2.076637922728638E-020
  -2.97000000000000         3.327131080083286E-020
  -2.78000000000000         3.527150544484875E-020
  -2.59000000000000         2.551228657024073E-020
  -2.40000000000001         6.153735472949844E-021
  -2.20999999999999        -1.782406944579554E-020
  -2.02000000000000        -4.003915809129615E-020
  -1.83000000000000        -5.453746123123319E-020
  -1.64000000000000        -5.750050993027524E-020
  -1.45000000000000        -4.833966733534413E-020
  -1.26000000000001        -2.986628756776679E-020
  -1.06999999999999        -7.486208997070639E-021
 -0.879999999999995         1.235740920163057E-020
 -0.689999999999998         2.404770208246501E-020
 -0.500000000000000         2.442459005927172E-020
 -0.310000000000002         1.370684747933236E-020
 -0.120000000000005        -4.569358512683507E-021
  7.000000000000739E-002   -2.458747432808780E-020
  0.260000000000005        -3.996363868460365E-020
  0.450000000000003        -4.563049827944847E-020
  0.640000000000001        -3.933855984267629E-020
  0.829999999999998        -2.233923022269326E-020
   1.02000000000000         9.486700989379712E-022
   1.21000000000001         2.419343745361079E-020
   1.40000000000001         4.096130044825507E-020
   1.59000000000000         4.655940394883455E-020
   1.78000000000000         3.938329755457392E-020
   1.97000000000000         2.138218528524857E-020
   2.16000000000000        -2.498101023021197E-021
   2.34999999999999        -2.573697218155010E-020
   2.54000000000001        -4.210793100650210E-020
   2.73000000000000        -4.744679718760005E-020
   2.92000000000000        -4.081080317489241E-020
   3.11000000000000        -2.470113005327935E-020
   3.30000000000000        -4.291062760965488E-021
   3.48999999999999         1.410884007694000E-020
   3.68000000000001         2.489704325494145E-020
   3.87000000000000         2.480699892097791E-020
   4.06000000000000         1.385204027362976E-020
   4.25000000000000        -4.680381424576205E-021
   4.44000000000000        -2.518716006260287E-020
   4.63000000000000        -4.138436344087530E-020
   4.82000000000001        -4.814148902789915E-020
   5.01000000000001        -4.298165562291553E-020
   5.20000000000000        -2.681272094196809E-020
   5.39000000000000        -3.677786611535155E-021
   5.58000000000000         2.039717680602505E-020
   5.77000000000000         3.911581133999002E-020
   5.96000000000001         4.768792836281981E-020
   6.15000000000001         4.416825010263416E-020
   6.34000000000000         2.998235263661016E-020
   6.53000000000000         9.491507017109190E-021