  -105.000000000000         0.000000000000000E+000
  -104.810000000000        -9.086580627755741E-021
  -104.620000000000        -2.028032976344809E-020
  -104.430000000000        -2.622346296384803E-020
  -104.240000000000        -2.588545614676678E-020
  -104.050000000000        -2.515160450439383E-020
  -103.860000000000        -3.080117645391928E-020
  -103.670000000000        -4.368063939065422E-020
  -103.480000000000        -5.762470112345885E-020
  -103.290000000000        -6.517298658192218E-020
  -103.100000000000        -6.462393122840252E-020
  -102.910000000000        -6.167221050077000E-020
  -102.720000000000        -6.404020106816527E-020
  -102.530000000000        -7.420567503902596E-020
  -102.340000000000        -8.714494661703628E-020
  -102.150000000000        -9.522007969638110E-020
  -101.960000000000        -9.552644316875235E-020
  -101.770000000000        -9.268278148045338E-020
  -101.580000000000        -9.440579235522207E-020
  -101.390000000000        -1.041038384774233E-019
  -101.200000000000        -1.175741892256329E-019
  -101.010000000000        -1.269675470292937E-019
  -100.820000000000        -1.282347842916216E-019
  -100.630000000000        -1.249429433273337E-019
  -100.440000000000        -1.248224445672219E-019
  -100.250000000000        -1.323519682760697E-019
  -100.060000000000        -1.444646113277145E-019
  -99.8700000000000        -1.534736060853850E-019
  -99.6800000000000        -1.544216856189810E-019
  -99.4900000000000        -1.498302894617535E-019
  -99.3000000000000        -1.473055270046616E-019
  -99.1100000000000        -1.522887800714613E-019
  -98.9200000000000        -1.628873486706081E-019
  -98.7300000000000        -1.717293143707854E-019
  -98.5400000000000        -1.730650415140900E-019
  -98.3500000000000        -1.683204272295627E-019
  -98.1600000000000        -1.647830520420984E-019
  -97.9700000000000        -1.686565826952478E-019
  -97.7800000000000        -1.791025821882086E-019
  -97.5900000000000        -1.889650628064574E-019
  -97.4000000000000        -1.915063405528531E-019
  -97.2100000000000        -1.867426481012558E-019
  -97.0200000000000        -1.813480334708501E-019
  -96.8300000000000        -1.822381544488639E-019
  -96.6400000000000        -1.899741228662995E-019
  -96.4500000000000        -1.982828930615516E-019
  -96.2600000000000        -2.001396708303661E-019
  -96.0700000000000        -1.945883780460612E-019
  -95.8800000000000        -1.877654556757994E-019
  -95.6900000000000        -1.871236927005981E-019
  -95.5000000000000        -1.943558244269300E-019
  -95.3100000000000        -2.037754575918386E-019
  -95.1200000000000        -2.077105901065888E-019
  -94.9300000000000        -2.037730146220363E-019
  -94.7400000000000        -1.970809494963041E-019
  -94.5500000000000        -1.953297162149783E-019
  -94.3600000000000        -2.014232660770071E-019
  -94.1700000000000        -2.107006802174272E-019
  -93.9800000000000        -2.154047558545575E-019
  -93.7900000000000        -2.121224653671820E-019
  -93.6000000000000        -2.050832993426068E-019
  -93.4100000000000        -2.021576487113624E-019
  -93.2200000000000        -2.073731208884542E-019
  -93.0300000000000        -2.170892162920814E-019
  -92.8400000000000        -2.234735507189310E-019
  -92.6500000000000        -2.219585592019740E-019
  -92.4600000000000        -2.155686621714335E-019
  -92.2700000000000        -2.119975700860458E-019
  -92.0800000000000        -2.162344880813892E-019
  -91.8900000000000        -2.257890871444962E-019
  -91.7000000000000        -2.330805747091675E-019
  -91.5100000000000        -2.327030192950570E-019
  -91.3200000000000        -2.266156018193095E-019
  -91.1300000000000        -2.222935505344166E-019
  -90.9400000000000        -2.256023014999582E-019
  -90.7500000000000        -2.351940304095054E-019
  -90.5600000000000        -2.437741967332367E-019
  -90.3700000000000        -2.450344494009499E-019
  -90.1800000000000        -2.396408623721677E-019
  -89.9900000000000        -2.345661448610615E-019
  -89.8000000000000        -2.364119159954590E-019
  -89.6100000000000        -2.451068852147603E-019
  -89.4200000000000        -2.539978830275287E-019
  -89.2300000000000        -2.562346165686614E-019
  -89.0400000000000        -2.513397288238572E-019
  -88.8500000000000        -2.456852394868278E-019
  -88.6600000000000        -2.464173990105125E-019
  -88.4700000000000        -2.546311408573542E-019
  -88.2800000000000        -2.643181439031908E-019
  -88.0900000000000        -2.680977508349903E-019
  -87.9000000000000        -2.642537511248735E-019
  -87.7100000000000        -2.583522093689071E-019
  -87.5200000000000        -2.578996175166579E-019
  -87.3300000000000        -2.651509594042695E-019
  -87.1400000000000        -2.749411684251891E-019
  -86.9500000000000        -2.796172051473931E-019
  -86.7600000000000        -2.763678228963500E-019
  -86.5700000000000        -2.699486436935023E-019
  -86.3800000000000        -2.681871234700295E-019
  -86.1900000000000        -2.745494443439322E-019
  -86.0000000000000        -2.848628287188309E-019
  -85.8100000000000        -2.913150124645795E-019
  -85.6200000000000        -2.899008465445418E-019
  -85.4300000000000        -2.842029993194099E-019
  -85.2400000000000        -2.819031340213007E-019
  -85.0500000000000        -2.873623299103551E-019
  -84.8600000000000        -2.973663461261815E-019
  -84.6700000000000        -3.041179761042630E-019
  -84.4800000000000        -3.026380824808414E-019
  -84.2900000000000        -2.955155616830767E-019
  -84.1000000000000        -2.904710683832612E-019
  -83.9100000000000        -2.930615139427881E-019
  -83.7200000000000        -3.014873389861434E-019
  -83.5300000000000        -3.084478338551498E-019
  -83.3400000000000        -3.082577156179703E-019
  -83.1500000000000        -3.024144867714115E-019
  -82.9600000000000        -2.982789957066447E-019
  -82.7700000000000        -3.021033565700593E-019
  -82.5800000000000        -3.130455097465124E-019
  -82.3900000000000        -3.238789844291065E-019
  -82.2000000000000        -3.277221492162381E-019
  -82.0100000000000        -3.243775418743564E-019
  -81.8200000000000        -3.202629551546345E-019
  -81.6300000000000        -3.220424357151294E-019
  -81.4400000000000        -3.300739537452319E-019
  -81.2500000000000        -3.379567295568340E-019
  -81.0600000000000        -3.386278620547932E-019
  -80.8700000000000        -3.311869732838758E-019
  -80.6800000000000        -3.219148416784683E-019
  -80.4900000000000        -3.184914281555189E-019
  -80.3000000000000        -3.229131577931060E-019
  -80.1100000000000        -3.298446539992612E-019
  -79.9200000000000        -3.319457625629046E-019
  -79.7300000000000        -3.270624062334355E-019
  -79.5400000000000        -3.204019323106935E-019
  -79.3500000000000        -3.196079676969068E-019
  -79.1600000000000        -3.274367787491046E-019
  -78.9700000000000        -3.390399494927714E-019
  -78.7800000000000        -3.464650736678177E-019
  -78.5900000000000        -3.460894415636270E-019
  -78.4000000000000        -3.419017601927103E-019
  -78.2100000000000        -3.415195529894800E-019
  -78.0200000000000        -3.487672495602423E-019
  -77.8300000000000        -3.599160001043342E-019
  -77.6400000000000        -3.671837604294515E-019
  -77.4500000000000        -3.661562418753845E-019
  -77.2600000000000        -3.600337961193090E-019
  -77.0700000000000        -3.566312704980286E-019
  -76.8800000000000        -3.609815560719374E-019
  -76.6900000000000        -3.705974573585417E-019
  -76.5000000000000        -3.779059795548580E-019
  -76.3100000000000        -3.775187123825608E-019
  -76.1200000000000        -3.713897265630844E-019
  -75.9300000000000        -3.669334060621557E-019
  -75.7400000000000        -3.698968320004475E-019
  -75.5500000000000        -3.787967166950758E-019
  -75.3600000000000        -3.862488282559704E-019
  -75.1700000000000        -3.859393756604287E-019
  -74.9800000000000        -3.785958764357890E-019
  -74.7900000000000        -3.712706599074147E-019
  -74.6000000000000        -3.706365383290281E-019
  -74.4100000000000        -3.767014650353785E-019
  -74.2200000000000        -3.829349430294196E-019
  -74.0300000000000        -3.826712327783945E-019
  -73.8400000000000        -3.756573016510966E-019
  -73.6500000000000        -3.684659887112824E-019
  -73.4600000000000        -3.683500974543701E-019
  -73.2700000000000        -3.763881927994362E-019
  -73.0800000000000        -3.864622741102191E-019
  -72.8900000000000        -3.910442233229667E-019
  -72.7000000000000        -3.882746964978713E-019
  -72.5100000000000        -3.835976665952928E-019
  -72.3200000000000        -3.844171595724585E-019
  -72.1300000000000        -3.928983056355614E-019
  -71.9400000000000        -4.038003320605021E-019
  -71.7500000000000        -4.094206030626190E-019
  -71.5600000000000        -4.069289405105309E-019
  -71.3700000000000        -4.010776576191217E-019
  -71.1800000000000        -3.996861033163253E-019
  -70.9900000000000        -4.062000275202014E-019
  -70.8000000000000        -4.164172011277179E-019
  -70.6100000000000        -4.224934106024311E-019
  -70.4200000000000        -4.204016646493497E-019
  -70.2300000000000        -4.137306590925955E-019
  -70.0400000000000        -4.102076401895942E-019
  -69.8500000000000        -4.142810662308910E-019
  -69.6600000000000        -4.228633646654105E-019
  -69.4700000000000        -4.283087941482686E-019
  -69.2800000000000        -4.257783803993526E-019
  -69.0900000000000        -4.179486133187421E-019
  -68.9000000000000        -4.125582138504379E-019
  -68.7100000000000        -4.151227788771928E-019
  -68.5200000000000        -4.237564779584010E-019
  -68.3300000000000        -4.310320521613089E-019
  -68.1400000000000        -4.310971856402257E-019
  -67.9500000000000        -4.252489084488072E-019
  -67.7600000000000        -4.206456362109843E-019
  -67.5700000000000        -4.234022390836221E-019
  -67.3800000000000        -4.326836270609081E-019
  -67.1900000000000        -4.414504123672491E-019
  -67.0000000000000        -4.431476275484778E-019
  -66.8100000000000        -4.379492831523662E-019
  -66.6200000000000        -4.325925016220027E-019
  -66.4300000000000        -4.339510334190699E-019
  -66.2400000000000        -4.424778593355774E-019
  -66.0500000000000        -4.517776641891192E-019
  -65.8600000000000        -4.547150058219558E-019
  -65.6700000000000        -4.502171956618187E-019
  -65.4800000000000        -4.442705169183547E-019
  -65.2900000000000        -4.441626693445379E-019
  -65.1000000000000        -4.514781351317893E-019
  -64.9100000000000        -4.605449066116097E-019
  -64.7200000000000        -4.638274324409627E-019
  -64.5300000000000        -4.591243256924362E-019
  -64.3400000000000        -4.516949195886314E-019
  -64.1500000000000        -4.492741366840068E-019
  -63.9600000000000        -4.547284475430743E-019
  -63.7700000000000        -4.633601881239991E-019
  -63.5800000000000        -4.674269444571298E-019
  -63.3900000000000        -4.635557835457482E-019
  -63.2000000000000        -4.559745070057054E-019
  -63.0100000000000        -4.524778207908143E-019
  -62.8200000000000        -4.569827195343336E-019
  -62.6300000000000        -4.657894875808630E-019
  -62.4400000000000        -4.711307973642239E-019
  -62.2500000000000        -4.686254569180029E-019
  -62.0600000000000        -4.615144286097343E-019
  -61.8700000000000        -4.576260148879051E-019
  -61.6800000000000        -4.619585650103393E-019
  -61.4900000000000        -4.719489120058265E-019
  -61.3000000000000        -4.799311643130691E-019
  -61.1100000000000        -4.804359462545598E-019
  -60.9200000000000        -4.753673510139894E-019
  -60.7300000000000        -4.721211612413802E-019
  -60.5400000000000        -4.764472439995672E-019
  -60.3500000000000        -4.868796981893893E-019
  -60.1600000000000        -4.960584121557340E-019
  -59.9700000000000        -4.976788796231092E-019
  -59.7800000000000        -4.924338716319250E-019
  -59.5900000000000        -4.872802513707253E-019
  -59.4000000000000        -4.887400056284623E-019
  -59.2100000000000        -4.966385990436859E-019
  -59.0200000000000        -5.042658948549134E-019
  -58.8300000000000        -5.048115241070399E-019
  -58.6400000000000        -4.979301052182094E-019
  -58.4500000000000        -4.901637037532845E-019
  -58.2600000000000        -4.888144880751931E-019
  -58.0700000000000        -4.951108278409912E-019
  -57.8800000000000        -5.031750693268817E-019
  -57.6900000000000        -5.057565111603990E-019
  -57.5000000000000        -5.012373141523007E-019
  -57.3100000000000        -4.952096096150223E-019
  -57.1200000000000        -4.951123399141988E-019
  -56.9300000000000        -5.030540704240569E-019
  -56.7400000000000        -5.136888616190795E-019
  -56.5500000000000        -5.191859169458012E-019
  -56.3600000000000        -5.165560084936256E-019
  -56.1700000000000        -5.103512674504600E-019
  -55.9800000000000        -5.081796078979604E-019
  -55.7900000000000        -5.133361026281741E-019
  -55.6000000000000        -5.216024975228842E-019
  -55.4100000000000        -5.252821040660084E-019
  -55.2200000000000        -5.206194025505916E-019
  -55.0300000000000        -5.115076913795899E-019
  -54.8400000000000        -5.059252250399195E-019
  -54.6500000000000        -5.084860985157536E-019
  -54.4600000000000        -5.162032693403580E-019
  -54.2700000000000        -5.214901990932819E-019
  -54.0800000000000        -5.195157781677157E-019
  -53.8900000000000        -5.128766705516136E-019
  -53.7000000000000        -5.091187903645743E-019
  -53.5100000000000        -5.134743213656187E-019
  -53.3200000000000        -5.237609049894085E-019
  -53.1300000000000        -5.323357904046293E-019
  -52.9400000000000        -5.332623318721439E-019
  -52.7500000000000        -5.278645452443129E-019
  -52.5600000000000        -5.233815289230780E-019
  -52.3700000000000        -5.260179095636707E-019
  -52.1800000000000        -5.350286841748044E-019
  -51.9900000000000        -5.434808595214169E-019
  -51.8000000000000        -5.449535663785878E-019
  -51.6100000000000        -5.397612326537937E-019
  -51.4200000000000        -5.347336099896414E-019
  -51.2300000000000        -5.367409167104710E-019
  -51.0400000000000        -5.461341117683014E-019
  -50.8500000000000        -5.563595271550051E-019
  -50.6600000000000        -5.601191692675426E-019
  -50.4700000000000        -5.562093848127743E-019
  -50.2800000000000        -5.505320219426683E-019
  -50.0900000000000        -5.503355003663559E-019
  -49.9000000000000        -5.572010337822620E-019
  -49.7100000000000        -5.654825085079753E-019
  -49.5200000000000        -5.676944810841068E-019
  -49.3300000000000        -5.616978685952934E-019
  -49.1400000000000        -5.528104087885554E-019
  -48.9500000000000        -5.488174936420414E-019
  -48.7600000000000        -5.526402239467086E-019
  -48.5700000000000        -5.596518240704971E-019
  -48.3800000000000        -5.621946328832497E-019
  -48.1900000000000        -5.569795429683213E-019
  -48.0000000000000        -5.483019723769979E-019
  -47.8100000000000        -5.440047790815056E-019
  -47.6200000000000        -5.480466576296196E-019
  -47.4300000000000        -5.567767605206461E-019
  -47.2400000000000        -5.624716569930954E-019
  -47.0500000000000        -5.607484803135243E-019
  -46.8600000000000        -5.547653539117360E-019
  -46.6700000000000        -5.521914049598863E-019
  -46.4800000000000        -5.578360636250515E-019
  -46.2900000000000        -5.689759198581666E-019
  -46.1000000000000        -5.778467208891819E-019
  -45.9100000000000        -5.789291206430574E-019
  -45.7200000000000        -5.740800212629738E-019
  -45.5300000000000        -5.706221679340464E-019
  -45.3400000000000        -5.742336975270643E-019
  -45.1500000000000        -5.834433867945418E-019
  -44.9600000000000        -5.909959078045603E-019
  -44.7700000000000        -5.907829497439980E-019
  -44.5800000000000        -5.837143229450212E-019
  -44.3900000000000        -5.769085977154444E-019
  -44.2000000000000        -5.769602085127804E-019
  -44.0100000000000        -5.837030016223143E-019
  -43.8200000000000        -5.904241983849731E-019
  -43.6300000000000        -5.903257951654449E-019
  -43.4400000000000        -5.830655932339785E-019
  -43.2500000000000        -5.751369145775727E-019
  -43.0600000000000        -5.737293070026178E-019
  -42.8700000000000        -5.799314899971305E-019
  -42.6800000000000        -5.877603196181244E-019
  -42.4900000000000        -5.899347878484279E-019
  -42.3000000000000        -5.848718833458403E-019
  -42.1100000000000        -5.782133761011731E-019
  -41.9200000000000        -5.774202043507440E-019
  -41.7300000000000        -5.846010734851680E-019
  -41.5400000000000        -5.944350503515128E-019
  -41.3500000000000        -5.991855670991975E-019
  -41.1600000000000        -5.960323411679390E-019
  -40.9700000000000        -5.897329313191304E-019
  -40.7800000000000        -5.880784952124630E-019
  -40.5900000000000        -5.944796957008503E-019
  -40.4000000000000        -6.047521565578811E-019
  -40.2100000000000        -6.111561372309022E-019
  -40.0200000000000        -6.098156477762360E-019
  -39.8300000000000        -6.044184968427559E-019
  -39.6400000000000        -6.026588414722332E-019
  -39.4500000000000        -6.088221297938879E-019
  -39.2600000000000        -6.196009284344644E-019
  -39.0700000000000        -6.271492221664207E-019
  -38.8800000000000        -6.264735202704200E-019
  -38.6900000000000        -6.201160962002008E-019
  -38.5000000000000        -6.156674030869099E-019
  -38.3100000000000        -6.184893396992797E-019
  -38.1200000000000        -6.265995982885114E-019
  -37.9300000000000        -6.325948582660418E-019
  -37.7400000000000        -6.307625939424550E-019
  -37.5500000000000        -6.225784887992444E-019
  -37.3600000000000        -6.153343331481153E-019
  -37.1700000000000        -6.152058825648338E-019
  -36.9800000000000        -6.213837957263330E-019
  -36.7900000000000        -6.268800374421210E-019
  -36.6000000000000        -6.252477992959506E-019
  -36.4100000000000        -6.168013832706355E-019
  -36.2200000000000        -6.083961372191575E-019
  -36.0300000000000        -6.069765179113348E-019
  -35.8400000000000        -6.130468465523967E-019
  -35.6500000000000        -6.202855134772276E-019
  -35.4600000000000        -6.216524376354077E-019
  -35.2700000000000        -6.161412002816077E-019
  -35.0800000000000        -6.097188134688390E-019
  -34.8900000000000        -6.095576396840919E-019
  -34.7000000000000        -6.170827961976458E-019
  -34.5100000000000        -6.264983313790336E-019
  -34.3200000000000        -6.302230106618695E-019
  -34.1300000000000        -6.260613180039725E-019
  -33.9400000000000        -6.192699774620131E-019
  -33.7500000000000        -6.175464275203833E-019
  -33.5600000000000        -6.237173103277876E-019
  -33.3700000000000        -6.330973036320610E-019
  -33.1800000000000        -6.380275532952107E-019
  -32.9900000000000        -6.352460612995500E-019
  -32.8000000000000        -6.290390577466655E-019
  -32.6100000000000        -6.271569574007632E-019
  -32.4200000000000        -6.333952675650626E-019
  -32.2300000000000        -6.439297233650431E-019
  -32.0400000000000        -6.509111829900489E-019
  -31.8500000000000        -6.498938008561006E-019
  -31.6600000000000        -6.440077830850273E-019
  -31.4700000000000        -6.408929647729203E-019
  -31.2800000000000        -6.453220468274776E-019
  -31.0900000000000        -6.545637482722408E-019
  -30.9000000000000        -6.609250376388988E-019
  -30.7100000000000        -6.590571406633450E-019
  -30.5200000000000        -6.510598846955144E-019
  -30.3300000000000        -6.445189607365098E-019
  -30.1400000000000        -6.453521184822768E-019
  -29.9500000000000        -6.522865016273953E-019
  -29.7600000000000        -6.582236417113232E-019
  -29.5700000000000        -6.571690606506835E-019
  -29.3800000000000        -6.500899644639965E-019
  -29.1900000000000        -6.440896496465505E-019
  -29.0000000000000        -6.456734622208791E-019
  -28.8100000000000        -6.545292914140679E-019
  -28.6200000000000        -6.637602712967884E-019
  -28.4300000000000        -6.663533287906623E-019
  -28.2400000000000        -6.617222655629087E-019
  -28.0500000000000        -6.561018793329281E-019
  -27.8600000000000        -6.564452765361393E-019
  -27.6700000000000        -6.636779497249986E-019
  -27.4800000000000        -6.717678235202233E-019
  -27.2900000000000        -6.735036102659427E-019
  -27.1000000000000        -6.674553888695828E-019
  -26.9100000000000        -6.594550718925498E-019
  -26.7200000000000        -6.571640511606599E-019
  -26.5300000000000        -6.628933513375867E-019
  -26.3400000000000        -6.715086913350784E-019
  -26.1500000000000        -6.754004834591393E-019
  -25.9600000000000        -6.717603278899554E-019
  -25.7700000000000        -6.652137922328826E-019
  -25.5800000000000        -6.633066071992024E-019
  -25.3900000000000        -6.691774748755921E-019
  -25.2000000000000        -6.784403832293566E-019
  -25.0100000000000        -6.832723625902308E-019
  -24.8200000000000        -6.798115363045160E-019
  -24.6300000000000        -6.718023819020077E-019
  -24.4400000000000        -6.670056834926053E-019
  -24.2500000000000        -6.697989002697122E-019
  -24.0600000000000        -6.770314232392634E-019
  -23.8700000000000        -6.810915255613874E-019
  -23.6800000000000        -6.772524724191704E-019
  -23.4900000000000        -6.682750124303241E-019
  -23.3000000000000        -6.618628049536485E-019
  -23.1100000000000        -6.633949842846313E-019
  -22.9200000000000        -6.708721872996548E-019
  -22.7300000000000        -6.768985620000311E-019
  -22.5400000000000        -6.758022791634424E-019
  -22.3500000000000        -6.690891039840715E-019
  -22.1600000000000        -6.640158156189222E-019
  -21.9700000000000        -6.666440427743494E-019
  -21.7800000000000        -6.760118777932208E-019
  -21.5900000000000        -6.849976672292980E-019
  -21.4000000000000        -6.870608542607195E-019
  -21.2100000000000        -6.824312563321007E-019
  -21.0200000000000        -6.778419102742499E-019
  -20.8300000000000        -6.800620463162646E-019
  -20.6400000000000        -6.894042961368264E-019
  -20.4500000000000        -6.994038684506408E-019
  -20.2600000000000        -7.029719880475180E-019
  -20.0700000000000        -6.991399950684674E-019
  -19.8800000000000        -6.939446337461236E-019
  -19.6900000000000        -6.946022426382907E-019
  -19.5000000000000        -7.025333193571251E-019
  -19.3100000000000        -7.119032360598947E-019
  -19.1200000000000        -7.150858031751788E-019
  -18.9300000000000        -7.098533826062093E-019
  -18.7400000000000        -7.014497993067649E-019
  -18.5500000000000        -6.975818511780737E-019
  -18.3600000000000        -7.011165360780497E-019
  -18.1700000000000        -7.074512553082317E-019
  -17.9800000000000        -7.090527144581114E-019
  -17.7900000000000        -7.028092898569729E-019
  -17.6000000000000        -6.931558380887089E-019
  -17.4100000000000        -6.879722020965195E-019
  -17.2200000000000        -6.911626108673188E-019
  -17.0300000000000        -6.989968412963078E-019
  -16.8400000000000        -7.037063349823519E-019
  -16.6500000000000        -7.009056771350726E-019
  -16.4600000000000        -6.937611428842633E-019
  -16.2700000000000        -6.899359442849761E-019
  -16.0800000000000        -6.942372334709068E-019
  -15.8900000000000        -7.039887757820208E-019
  -15.7000000000000        -7.115453024079630E-019
  -15.5100000000000        -7.115444337308452E-019
  -15.3200000000000        -7.059723567170123E-019
  -15.1300000000000        -7.022125357969843E-019
  -14.9400000000000        -7.059502964478549E-019
  -14.7500000000000        -7.157159367482600E-019
  -14.5600000000000        -7.242758094809613E-019
  -14.3700000000000        -7.255315662356623E-019
  -14.1800000000000        -7.203244850551772E-019
  -13.9900000000000        -7.155930922054091E-019
  -13.8000000000000        -7.176886989005056E-019
  -13.6100000000000        -7.262389024688083E-019
  -13.4200000000000        -7.344282357842449E-019
  -13.2300000000000        -7.354359472828638E-019
  -13.0400000000000        -7.288877845640068E-019
  -12.8500000000000        -7.211634494199463E-019
  -12.6600000000000        -7.192714448916064E-019
  -12.4700000000000        -7.241495711741364E-019
  -12.2800000000000        -7.297970257095679E-019
  -12.0900000000000        -7.290694365769159E-019
  -11.9000000000000        -7.205990636003348E-019
  -11.7100000000000        -7.102240605109512E-019
  -11.5200000000000        -7.055531907702718E-019
  -11.3300000000000        -7.088489566527898E-019
  -11.1400000000000        -7.150196415303070E-019
  -10.9500000000000        -7.166309936831951E-019
  -10.7600000000000        -7.111408081448140E-019
  -10.5700000000000        -7.034336501200520E-019
  -10.3800000000000        -7.012222212756195E-019
  -10.1900000000000        -7.076994409340353E-019
  -10.0000000000000        -7.184584747459970E-019
  -9.81000000000000        -7.256287723301895E-019
  -9.62000000000000        -7.252872107754513E-019
  -9.42999999999999        -7.210734137041072E-019
  -9.23999999999999        -7.205605652753293E-019
  -9.05000000000000        -7.278520555753638E-019
  -8.86000000000000        -7.394823517782723E-019
  -8.67000000000000        -7.475505342333288E-019
  -8.48000000000000        -7.471137173379894E-019
  -8.28999999999999        -7.408017101005236E-019
  -8.09999999999999        -7.362622214943036E-019
  -7.91000000000000        -7.388804776076607E-019
  -7.72000000000000        -7.467179519045830E-019
  -7.53000000000000        -7.524876527139144E-019
  -7.34000000000000        -7.506591326257962E-019
  -7.15000000000001        -7.428867905253404E-019
  -6.95999999999999        -7.365598206001599E-019
  -6.77000000000000        -7.378462616187910E-019
  -6.58000000000000        -7.458656545487880E-019
  -6.39000000000000        -7.535506799734323E-019
  -6.20000000000000        -7.543761729187085E-019
  -6.01000000000001        -7.485374506378173E-019
  -5.81999999999999        -7.426899179529576E-019
  -5.63000000000000        -7.435111190530398E-019
  -5.44000000000000        -7.512433925142802E-019
  -5.25000000000000        -7.593899496208311E-019
  -5.06000000000000        -7.608580339296026E-019
  -4.87000000000000        -7.546866077458854E-019
  -4.67999999999999        -7.469403970998545E-019
  -4.48999999999999        -7.449236157707555E-019
  -4.30000000000000        -7.502424502024117E-019
  -4.11000000000000        -7.573374643504647E-019
  -3.92000000000000        -7.588747438060606E-019
  -3.73000000000000        -7.528285933160533E-019
  -3.53999999999999        -7.444740589075630E-019
  -3.34999999999999        -7.413757750822784E-019
  -3.16000000000000        -7.461561191594788E-019
  -2.97000000000000        -7.539520354344658E-019
  -2.78000000000000        -7.569968443042173E-019
  -2.59000000000000        -7.519633390297810E-019
  -2.40000000000001        -7.430699264737833E-019
  -2.20999999999999        -7.379986640069479E-019
  -2.02000000000000        -7.405389430475238E-019
  -1.83000000000000        -7.469948867218508E-019
  -1.64000000000000        -7.497916419066025E-019
  -1.45000000000000        -7.448294265683189E-019
  -1.26000000000001        -7.355466598796072E-019
  -1.06999999999999        -7.297919758105079E-019
 -0.879999999999995        -7.324703541091366E-019
 -0.689999999999998        -7.409653749000216E-019
 -0.500000000000000        -7.476939049696733E-019
 -0.310000000000002        -7.473457936351624E-019
 -0.120000000000005        -7.418947418268222E-019
  7.000000000000739E-002   -7.386036507720402E-019
  0.260000000000005        -7.429468850498460E-019
  0.450000000000003        -7.532310831542355E-019
  0.640000000000001        -7.620725136122853E-019
  0.829999999999998        -7.633353389511677E-019
   1.02000000000000        -7.579127634272725E-019
   1.21000000000001        -7.528302679654246E-019
   1.40000000000001        -7.545212715839905E-019
   1.59000000000000        -7.626884026073267E-019
   1.78000000000000        -7.706046474317031E-019
   1.97000000000000        -7.715598244510300E-019
   2.16000000000000        -7.652915742509678E-019
   2.34999999999999        -7.582584936993628E-019
   2.54000000000001        -7.574959861582406E-019
   2.73000000000000        -7.639238241219886E-019
   2.92000000000000        -7.714979228618631E-019
   3.11000000000000        -7.730176671471923E-019
   3.30000000000000        -7.670420278295168E-019
   3.48999999999999        -7.593055387711233E-019
   3.68000000000001        -7.572767504080459E-019
   3.87000000000000        -7.630513239660355E-019
   4.06000000000000        -7.713618826936038E-019
   4.25000000000000        -7.746003222344545E-019
   4.44000000000000        -7.700553945968066E-019
   4.63000000000000        -7.624585849153985E-019
   4.82000000000001        -7.594148609685903E-019
   5.01000000000001        -7.640902407955793E-019
   5.20000000000000        -7.721481305152286E-019
   5.39000000000000        -7.758677387662162E-019
   5.58000000000000        -7.715150661979895E-019
   5.77000000000000        -7.629263299155604E-019
   5.96000000000001        -7.578778225167859E-019
   6.15000000000001        -7.607021369686850E-019
   6.34000000000000        -7.681924053382868E-019
   6.53000000000000        -7.726966293622882E-019