  -105.000000000000         0.000000000000000E+000
  -104.810000000000        -2.181336970060897E-020
  -104.620000000000        -4.868495634601758E-020
  -104.430000000000        -6.295129950755964E-020
  -104.240000000000        -6.213856252534422E-020
  -104.050000000000        -6.037544102286423E-020
  -103.860000000000        -7.393674302158325E-020
  -103.670000000000        -1.048546120782753E-019
  -103.480000000000        -1.383283090644641E-019
  -103.290000000000        -1.564480320783357E-019
  -103.100000000000        -1.551288948760801E-019
  -102.910000000000        -1.480417629605818E-019
  -102.720000000000        -1.537254034645774E-019
  -102.530000000000        -1.781285197870498E-019
  -102.340000000000        -2.091912369808744E-019
  -102.150000000000        -2.285761487110084E-019
  -101.960000000000        -2.293082160701662E-019
  -101.770000000000        -2.224774773504419E-019
  -101.580000000000        -2.266163194697140E-019
  -101.390000000000        -2.499094395096831E-019
  -101.200000000000        -2.822533796186844E-019
  -101.010000000000        -3.047831793707754E-019
  -100.820000000000        -3.077808611632861E-019
  -100.630000000000        -2.998541041984963E-019
  -100.440000000000        -2.996155172105656E-019
  -100.250000000000        -3.178156245591731E-019
  -100.060000000000        -3.469993628443017E-019
  -99.8700000000000        -3.685784464279748E-019
  -99.6800000000000        -3.705925954394619E-019
  -99.4900000000000        -3.592101360712344E-019
  -99.3000000000000        -3.529599505029078E-019
  -99.1100000000000        -3.651607867311484E-019
  -98.9200000000000        -3.912951894202060E-019
  -98.7300000000000        -4.133641489821317E-019
  -98.5400000000000        -4.170578680466017E-019
  -98.3500000000000        -4.053743995178258E-019
  -98.1600000000000        -3.957351934959031E-019
  -97.9700000000000        -4.033861614581825E-019
  -97.7800000000000        -4.269286939074267E-019
  -97.5900000000000        -4.497696185053381E-019
  -97.4000000000000        -4.560679534240338E-019
  -97.2100000000000        -4.459008081817151E-019
  -97.0200000000000        -4.351236997531933E-019
  -96.8300000000000        -4.400511737526893E-019
  -96.6400000000000        -4.616090206096853E-019
  -96.4500000000000        -4.841264246350061E-019
  -96.2600000000000        -4.899770547046026E-019
  -96.0700000000000        -4.761704097202687E-019
  -95.8800000000000        -4.571292574028698E-019
  -95.6900000000000        -4.510467323944665E-019
  -95.5000000000000        -4.628648220526403E-019
  -95.3100000000000        -4.801082977992214E-019
  -95.1200000000000        -4.854745347999118E-019
  -94.9300000000000        -4.740243858125571E-019
  -94.7400000000000        -4.584185695946667E-019
  -94.5500000000000        -4.570935013634102E-019
  -94.3600000000000        -4.766081395090207E-019
  -94.1700000000000        -5.050221759339185E-019
  -93.9800000000000        -5.227095423756200E-019
  -93.7900000000000        -5.204117925828553E-019
  -93.6000000000000        -5.074191811856047E-019
  -93.4100000000000        -5.021673672678764E-019
  -93.2200000000000        -5.143007695782654E-019
  -93.0300000000000        -5.353591801882550E-019
  -92.8400000000000        -5.469604604851657E-019
  -92.6500000000000        -5.386246985764450E-019
  -92.4600000000000        -5.181822062787414E-019
  -92.2700000000000        -5.047784358199354E-019
  -92.0800000000000        -5.110851603188315E-019
  -91.8900000000000        -5.316370006375315E-019
  -91.7000000000000        -5.483857221700550E-019
  -91.5100000000000        -5.481359916061025E-019
  -91.3200000000000        -5.351919076348649E-019
  -91.1300000000000        -5.271457776415107E-019
  -90.9400000000000        -5.378621783488302E-019
  -90.7500000000000        -5.639356545310016E-019
  -90.5600000000000        -5.875812471354143E-019
  -90.3700000000000        -5.932421096663257E-019
  -90.1800000000000        -5.821092822718367E-019
  -89.9900000000000        -5.707298623239665E-019
  -89.8000000000000        -5.750650346333107E-019
  -89.6100000000000        -5.952514270103858E-019
  -89.4200000000000        -6.156207931590196E-019
  -89.2300000000000        -6.199149502324920E-019
  -89.0400000000000        -6.070971551885592E-019
  -88.8500000000000        -5.925962556734894E-019
  -88.6600000000000        -5.937398297102238E-019
  -88.4700000000000        -6.132499831242054E-019
  -88.2800000000000        -6.365731377250929E-019
  -88.0900000000000        -6.456528515892572E-019
  -87.9000000000000        -6.360612314533115E-019
  -87.7100000000000        -6.211770313969762E-019
  -87.5200000000000        -6.194457919345781E-019
  -87.3300000000000        -6.368800035418313E-019
  -87.1400000000000        -6.614579946754792E-019
  -86.9500000000000        -6.746995346953008E-019
  -86.7600000000000        -6.693174922962553E-019
  -86.5700000000000        -6.560723354994131E-019
  -86.3800000000000        -6.532831457987911E-019
  -86.1900000000000        -6.690376924902867E-019
  -86.0000000000000        -6.931540942940019E-019
  -85.8100000000000        -7.066482471482977E-019
  -85.6200000000000        -6.997296383860340E-019
  -85.4300000000000        -6.811877703195528E-019
  -85.2400000000000        -6.702293943558587E-019
  -85.0500000000000        -6.785333573859252E-019
  -84.8600000000000        -6.995766168060788E-019
  -84.6700000000000        -7.153241562346419E-019
  -84.4800000000000        -7.138055455752842E-019
  -84.2900000000000        -7.007213023508012E-019
  -84.1000000000000        -6.939588528846085E-019
  -83.9100000000000        -7.062796590141072E-019
  -83.7200000000000        -7.327820846292306E-019
  -83.5300000000000        -7.551897740329138E-019
  -83.3400000000000        -7.589376522993270E-019
  -83.1500000000000        -7.467974684932400E-019
  -82.9600000000000        -7.360620536747277E-019
  -82.7700000000000        -7.419677243373692E-019
  -82.5800000000000        -7.631612645202530E-019
  -82.3900000000000        -7.830777236751464E-019
  -82.2000000000000        -7.859042952554512E-019
  -82.0100000000000        -7.718665233685181E-019
  -81.8200000000000        -7.572200900303123E-019
  -81.6300000000000        -7.589361250676671E-019
  -81.4400000000000        -7.786635444514373E-019
  -81.2500000000000        -8.012272999305315E-019
  -81.0600000000000        -8.090637088949901E-019
  -80.8700000000000        -7.988132980160562E-019
  -80.6800000000000        -7.842523056002167E-019
  -80.4900000000000        -7.828074375275938E-019
  -80.3000000000000        -7.986025707040430E-019
  -80.1100000000000        -8.183063545313811E-019
  -79.9200000000000        -8.238022375041091E-019
  -79.7300000000000        -8.096117979738087E-019
  -79.5400000000000        -7.884433410960707E-019
  -79.3500000000000        -7.795390622679966E-019
  -79.1600000000000        -7.908700820474889E-019
  -78.9700000000000        -8.120809720525959E-019
  -78.7800000000000        -8.248285601341180E-019
  -78.5900000000000        -8.205617779830420E-019
  -78.4000000000000        -8.087087184094086E-019
  -78.2100000000000        -8.074569913894591E-019
  -78.0200000000000        -8.260001211162957E-019
  -77.8300000000000        -8.552970514128073E-019
  -77.6400000000000        -8.762554978749176E-019
  -77.4500000000000        -8.775970475823936E-019
  -77.2600000000000        -8.663837079312135E-019
  -77.0700000000000        -8.611388078710593E-019
  -76.8800000000000        -8.740808271538974E-019
  -76.6900000000000        -8.993923498239981E-019
  -76.5000000000000        -9.187040100814411E-019
  -76.3100000000000        -9.185482691576553E-019
  -76.1200000000000        -9.031292479776684E-019
  -75.9300000000000        -8.902496076735324E-019
  -75.7400000000000        -8.943106587537958E-019
  -75.5500000000000        -9.126185725068307E-019
  -75.3600000000000        -9.280671138215245E-019
  -75.1700000000000        -9.256398743089965E-019
  -74.9800000000000        -9.069698119841020E-019
  -74.7900000000000        -8.890285176744209E-019
  -74.6000000000000        -8.881702189931017E-019
  -74.4100000000000        -9.047465070964451E-019
  -74.2200000000000        -9.229571138087090E-019
  -74.0300000000000        -9.260560107726303E-019
  -73.8400000000000        -9.123963203689673E-019
  -73.6500000000000        -8.970165587531567E-019
  -73.4600000000000        -8.972691671239381E-019
  -73.2700000000000        -9.162199723436162E-019
  -73.0800000000000        -9.396773681531723E-019
  -72.8900000000000        -9.496865435764614E-019
  -72.7000000000000        -9.415860172953031E-019
  -72.5100000000000        -9.283329315693552E-019
  -72.3200000000000        -9.279913378431194E-019
  -72.1300000000000        -9.463635490109949E-019
  -71.9400000000000        -9.713665786225702E-019
  -71.7500000000000        -9.845319321549306E-019
  -71.5600000000000        -9.786506326657578E-019
  -71.3700000000000        -9.646927264830536E-019
  -71.1800000000000        -9.613494729393257E-019
  -70.9900000000000        -9.771498381813379E-019
  -70.8000000000000        -1.002218769573919E-018
  -70.6100000000000        -1.017552117909429E-018
  -70.4200000000000        -1.012973589686720E-018
  -70.2300000000000        -9.966753991183303E-019
  -70.0400000000000        -9.872857347199222E-019
  -69.8500000000000        -9.960648559788611E-019
  -69.6600000000000        -1.016236672836674E-018
  -69.4700000000000        -1.029644981913455E-018
  -69.2800000000000        -1.024363240724698E-018
  -69.0900000000000        -1.006396523812339E-018
  -68.9000000000000        -9.942465448959487E-019
  -68.7100000000000        -1.001487567888641E-018
  -68.5200000000000        -1.023954298308867E-018
  -68.3300000000000        -1.043742646129930E-018
  -68.1400000000000        -1.046198743448592E-018
  -67.9500000000000        -1.033705624099938E-018
  -67.7600000000000        -1.023146118583048E-018
  -67.5700000000000        -1.029506364542538E-018
  -67.3800000000000        -1.051324266445740E-018
  -67.1900000000000        -1.071918436099414E-018
  -67.0000000000000        -1.075232768868670E-018
  -66.8100000000000        -1.061152877342425E-018
  -66.6200000000000        -1.045659459740034E-018
  -66.4300000000000        -1.045664684540414E-018
  -66.2400000000000        -1.062991404454253E-018
  -66.0500000000000        -1.082775321574029E-018
  -65.8600000000000        -1.087814489343452E-018
  -65.6700000000000        -1.075159051535332E-018
  -65.4800000000000        -1.059073009264419E-018
  -65.2900000000000        -1.057509684889975E-018
  -65.1000000000000        -1.075000869222100E-018
  -64.9100000000000        -1.098291636049771E-018
  -64.7200000000000        -1.108888623217144E-018
  -64.5300000000000        -1.100563106972039E-018
  -64.3400000000000        -1.085136188657461E-018
  -64.1500000000000        -1.081048416913780E-018
  -63.9600000000000        -1.095636524565062E-018
  -63.7700000000000        -1.118052838267167E-018
  -63.5800000000000        -1.129603497881194E-018
  -63.3900000000000        -1.121633126416420E-018
  -63.2000000000000        -1.103868700004321E-018
  -63.0100000000000        -1.095252272254124E-018
  -62.8200000000000        -1.106005107112394E-018
  -62.6300000000000        -1.128014256920848E-018
  -62.4400000000000        -1.142683171069560E-018
  -62.2500000000000        -1.138735737479014E-018
  -62.0600000000000        -1.122974775378031E-018
  -61.8700000000000        -1.113728586618097E-018
  -61.6800000000000        -1.123266059044375E-018
  -61.4900000000000        -1.146007418445432E-018
  -61.3000000000000        -1.163807109825211E-018
  -61.1100000000000        -1.163259362114499E-018
  -60.9200000000000        -1.148496161878744E-018
  -60.7300000000000        -1.137256281634468E-018
  -60.5400000000000        -1.143965852711595E-018
  -60.3500000000000        -1.165967351383642E-018
  -60.1600000000000        -1.186043703667474E-018
  -59.9700000000000        -1.188833143817277E-018
  -59.7800000000000        -1.175454651164744E-018
  -59.5900000000000        -1.162371922277289E-018
  -59.4000000000000        -1.165594138472885E-018
  -59.2100000000000        -1.185321346514441E-018
  -59.0200000000000        -1.205707787774541E-018
  -58.8300000000000        -1.209980829699484E-018
  -58.6400000000000        -1.196495711228307E-018
  -58.4500000000000        -1.180394618760770E-018
  -58.2600000000000        -1.179258260727796E-018
  -58.0700000000000        -1.196424105608684E-018
  -57.8800000000000        -1.217889356317310E-018
  -57.6900000000000        -1.225746029138035E-018
  -57.5000000000000        -1.215309071207944E-018
  -57.3100000000000        -1.199588706551889E-018
  -57.1200000000000        -1.196851059478681E-018
  -56.9300000000000        -1.213142425434061E-018
  -56.7400000000000        -1.236451231453718E-018
  -56.5500000000000        -1.248084396351611E-018
  -56.3600000000000        -1.240408289821272E-018
  -56.1700000000000        -1.224021074663828E-018
  -55.9800000000000        -1.217519132357285E-018
  -55.7900000000000        -1.229656617574042E-018
  -55.6000000000000        -1.250955675076463E-018
  -55.4100000000000        -1.262777250016276E-018
  -55.2200000000000        -1.255181802462723E-018
  -55.0300000000000        -1.236518673323338E-018
  -54.8400000000000        -1.225566826461956E-018
  -54.6500000000000        -1.233695778449769E-018
  -54.4600000000000        -1.254058616149891E-018
  -54.2700000000000        -1.268138003950686E-018
  -54.0800000000000        -1.263401943593111E-018
  -53.8900000000000        -1.245223216247421E-018
  -53.7000000000000        -1.231715429202114E-018
  -53.5100000000000        -1.236458917136837E-018
  -53.3200000000000        -1.255630679502502E-018
  -53.1300000000000        -1.271825487159488E-018
  -52.9400000000000        -1.270911356514455E-018
  -52.7500000000000        -1.255798689021639E-018
  -52.5600000000000        -1.243918705362823E-018
  -52.3700000000000        -1.250756417756625E-018
  -52.1800000000000        -1.275122736185992E-018
  -51.9900000000000        -1.300209483733968E-018
  -51.8000000000000        -1.309416429601134E-018
  -51.6100000000000        -1.301867876937793E-018
  -51.4200000000000        -1.292864694999707E-018
  -51.2300000000000        -1.298899336737944E-018
  -51.0400000000000        -1.321581283241295E-018
  -50.8500000000000        -1.345853286803345E-018
  -50.6600000000000        -1.354222399224701E-018
  -50.4700000000000        -1.343406844552886E-018
  -50.2800000000000        -1.327471250087492E-018
  -50.0900000000000        -1.324432231688377E-018
  -49.9000000000000        -1.339108267715931E-018
  -49.7100000000000        -1.358568346387730E-018
  -49.5200000000000        -1.364512549415621E-018
  -49.3300000000000        -1.350777520948563E-018
  -49.1400000000000        -1.329276196618596E-018
  -48.9500000000000        -1.318712436726472E-018
  -48.7600000000000        -1.326856039283845E-018
  -48.5700000000000        -1.343317975008997E-018
  -48.3800000000000        -1.349724866733978E-018
  -48.1900000000000        -1.337555305104852E-018
  -48.0000000000000        -1.316584165659429E-018
  -47.8100000000000        -1.305855093411631E-018
  -47.6200000000000        -1.315770155479255E-018
  -47.4300000000000        -1.338355165885185E-018
  -47.2400000000000        -1.354967810879851E-018
  -47.0500000000000        -1.354078589896734E-018
  -46.8600000000000        -1.342136524447375E-018
  -46.6700000000000        -1.337142388299922E-018
  -46.4800000000000        -1.351092564455344E-018
  -46.2900000000000        -1.378100723530004E-018
  -46.1000000000000        -1.399577602931016E-018
  -45.9100000000000        -1.401563747374821E-018
  -45.7200000000000        -1.387719313138606E-018
  -45.5300000000000        -1.375613666145055E-018
  -45.3400000000000        -1.379875744176043E-018
  -45.1500000000000        -1.398296425591883E-018
  -44.9600000000000        -1.414145241397499E-018
  -44.7700000000000        -1.412450756317224E-018
  -44.5800000000000        -1.394630283948676E-018
  -44.3900000000000        -1.377435435029341E-018
  -44.2000000000000        -1.377179394516215E-018
  -44.0100000000000        -1.394279449464104E-018
  -43.8200000000000        -1.412867744270414E-018
  -43.6300000000000        -1.415874497569016E-018
  -43.4400000000000        -1.401237118095018E-018
  -43.2500000000000        -1.383800618287648E-018
  -43.0600000000000        -1.381119883782456E-018
  -42.8700000000000        -1.396740288300844E-018
  -42.6800000000000        -1.416922406331833E-018
  -42.4900000000000        -1.423907103263115E-018
  -42.3000000000000        -1.413012530674801E-018
  -42.1100000000000        -1.397206724017608E-018
  -41.9200000000000        -1.394761077711297E-018
  -41.7300000000000        -1.411746879532241E-018
  -41.5400000000000        -1.436090773065123E-018
  -41.3500000000000        -1.448906249197109E-018
  -41.1600000000000        -1.442330672292791E-018
  -40.9700000000000        -1.426874611079731E-018
  -40.7800000000000        -1.421299549541485E-018
  -40.5900000000000        -1.434707702565946E-018
  -40.4000000000000        -1.457925874894743E-018
  -40.2100000000000        -1.472365087393170E-018
  -40.0200000000000        -1.467859974141896E-018
  -39.8300000000000        -1.452431630347289E-018
  -39.6400000000000        -1.444631441144942E-018
  -39.4500000000000        -1.455771332678890E-018
  -39.2600000000000        -1.479032970495413E-018
  -39.0700000000000        -1.495888333621266E-018
  -38.8800000000000        -1.493718012325802E-018
  -38.6900000000000        -1.477814478230617E-018
  -38.5000000000000        -1.466320203081254E-018
  -38.3100000000000        -1.472927319154418E-018
  -38.1200000000000        -1.493830037096217E-018
  -37.9300000000000        -1.511368430888947E-018
  -37.7400000000000        -1.510885357548229E-018
  -37.5500000000000        -1.494703416939587E-018
  -37.3600000000000        -1.479875834206016E-018
  -37.1700000000000        -1.481870504839268E-018
  -36.9800000000000        -1.499780463983308E-018
  -36.7900000000000        -1.517174881995356E-018
  -36.6000000000000        -1.517758881050630E-018
  -36.4100000000000        -1.500886257917424E-018
  -36.2200000000000        -1.482121473659711E-018
  -36.0300000000000        -1.478318929559056E-018
  -35.8400000000000        -1.491480294387327E-018
  -35.6500000000000        -1.506839613219502E-018
  -35.4600000000000        -1.507040601845132E-018
  -35.2700000000000        -1.488884047791273E-018
  -35.0800000000000        -1.466658713741939E-018
  -34.8900000000000        -1.458871664403438E-018
  -34.7000000000000        -1.471011611737282E-018
  -34.5100000000000        -1.490728940974371E-018
  -34.3200000000000        -1.499954478280037E-018
  -34.1300000000000        -1.492320470439044E-018
  -33.9400000000000        -1.479199794917603E-018
  -33.7500000000000        -1.478582560263835E-018
  -33.5600000000000        -1.497460047466364E-018
  -33.3700000000000        -1.524631739567956E-018
  -33.1800000000000        -1.540898911239063E-018
  -32.9900000000000        -1.536987669563629E-018
  -32.8000000000000        -1.522143587839169E-018
  -32.6100000000000        -1.515207819262107E-018
  -32.4200000000000        -1.526662767212956E-018
  -32.2300000000000        -1.548740154861290E-018
  -32.0400000000000        -1.562999115754682E-018
  -31.8500000000000        -1.558107286035631E-018
  -31.6600000000000        -1.540815335493042E-018
  -31.4700000000000        -1.529633191951803E-018
  -31.2800000000000        -1.537256080098591E-018
  -31.0900000000000        -1.558528794535953E-018
  -30.9000000000000        -1.575439924227073E-018
  -30.7100000000000        -1.574385293490421E-018
  -30.5200000000000        -1.559225687364735E-018
  -30.3300000000000        -1.547653625492791E-018
  -30.1400000000000        -1.554302040032877E-018
  -29.9500000000000        -1.576700690851955E-018
  -29.7600000000000        -1.597487255430382E-018
  -29.5700000000000        -1.600769805964763E-018
  -29.3800000000000        -1.587046975447347E-018
  -29.1900000000000        -1.572498157172133E-018
  -29.0000000000000        -1.573376782745524E-018
  -28.8100000000000        -1.590428316413891E-018
  -28.6200000000000        -1.608203790807199E-018
  -28.4300000000000        -1.609904766943639E-018
  -28.2400000000000        -1.593548160186724E-018
  -28.0500000000000        -1.573972276152010E-018
  -27.8600000000000        -1.568753845665592E-018
  -27.6700000000000        -1.581505467727157E-018
  -27.4800000000000        -1.598530680669173E-018
  -27.2900000000000        -1.602049674706803E-018
  -27.1000000000000        -1.587383212724008E-018
  -26.9100000000000        -1.567686369982189E-018
  -26.7200000000000        -1.561671918154724E-018
  -26.5300000000000        -1.575981055698831E-018
  -26.3400000000000        -1.598982461363955E-018
  -26.1500000000000        -1.611888006108696E-018
  -25.9600000000000        -1.606552285124467E-018
  -25.7700000000000        -1.592971788686206E-018
  -25.5800000000000        -1.589376478440423E-018
  -25.3900000000000        -1.604443084813024E-018
  -25.2000000000000        -1.628671430933639E-018
  -25.0100000000000        -1.643210182300499E-018
  -24.8200000000000        -1.637746607429310E-018
  -24.6300000000000        -1.620378801083140E-018
  -24.4400000000000        -1.609996119657466E-018
  -24.2500000000000        -1.618380179221601E-018
  -24.0600000000000        -1.639060681514390E-018
  -23.8700000000000        -1.653517272348739E-018
  -23.6800000000000        -1.648782117123704E-018
  -23.4900000000000        -1.629666667685330E-018
  -23.3000000000000        -1.614009467115348E-018
  -23.1100000000000        -1.615550989442404E-018
  -22.9200000000000        -1.630834296425989E-018
  -22.7300000000000        -1.642663648878213E-018
  -22.5400000000000        -1.636803805743398E-018
  -22.3500000000000        -1.615916804528381E-018
  -22.1600000000000        -1.597364450086774E-018
  -21.9700000000000        -1.596936756578744E-018
  -21.7800000000000        -1.614022719353410E-018
  -21.5900000000000        -1.632369034550135E-018
  -21.4000000000000        -1.635706929820592E-018
  -21.2100000000000        -1.623344957063075E-018
  -21.0200000000000        -1.610842235687971E-018
  -20.8300000000000        -1.615101963785925E-018
  -20.6400000000000        -1.638108812514793E-018
  -20.4500000000000        -1.664843409401406E-018
  -20.2600000000000        -1.677366592251318E-018
  -20.0700000000000        -1.671626453769948E-018
  -19.8800000000000        -1.660960943128462E-018
  -19.6900000000000        -1.662984706874144E-018
  -19.5000000000000        -1.682408760245748E-018
  -19.3100000000000        -1.706229849984634E-018
  -19.1200000000000        -1.715930162201189E-018
  -18.9300000000000        -1.705074278152366E-018
  -18.7400000000000        -1.685499810796042E-018
  -18.5500000000000        -1.676165681879048E-018
  -18.3600000000000        -1.685273717851574E-018
  -18.1700000000000        -1.702687923761024E-018
  -17.9800000000000        -1.709838715548215E-018
  -17.7900000000000        -1.697636797655095E-018
  -17.6000000000000        -1.675315612299469E-018
  -17.4100000000000        -1.661792353314484E-018
  -17.2200000000000        -1.667816522319219E-018
  -17.0300000000000        -1.685960186003231E-018
  -16.8400000000000        -1.697993447519962E-018
  -16.6500000000000        -1.692549862861777E-018
  -16.4600000000000        -1.676145693958790E-018
  -16.2700000000000        -1.666986779392508E-018
  -16.0800000000000        -1.677461175473796E-018
  -15.8900000000000        -1.702038182286841E-018
  -15.7000000000000        -1.722162973703735E-018
  -15.5100000000000        -1.723542990841655E-018
  -15.3200000000000        -1.709392790695598E-018
  -15.1300000000000        -1.697040278488258E-018
  -14.9400000000000        -1.701174031942174E-018
  -14.7500000000000        -1.719762312963477E-018
  -14.5600000000000        -1.736092992852156E-018
  -14.3700000000000        -1.734949986627397E-018
  -14.1800000000000        -1.717426440085429E-018
  -13.9900000000000        -1.700173099489217E-018
  -13.8000000000000        -1.699735491474547E-018
  -13.6100000000000        -1.716885161431875E-018
  -13.4200000000000        -1.735902541915535E-018
  -13.2300000000000        -1.739532715316611E-018
  -13.0400000000000        -1.725376705495095E-018
  -12.8500000000000        -1.708105461913728E-018
  -12.6600000000000        -1.705415110675825E-018
  -12.4700000000000        -1.721138658931026E-018
  -12.2800000000000        -1.741606296737793E-018
  -12.0900000000000        -1.748692266860848E-018
  -11.9000000000000        -1.737082069107863E-018
  -11.7100000000000        -1.719282152153165E-018
  -11.5200000000000        -1.713599770663863E-018
  -11.3300000000000        -1.726590723865108E-018
  -11.1400000000000        -1.746760951565543E-018
  -10.9500000000000        -1.755542654807281E-018
  -10.7600000000000        -1.745049761160464E-018
  -10.5700000000000        -1.725649791263529E-018
  -10.3800000000000        -1.716122832608065E-018
  -10.1900000000000        -1.725795619105485E-018
  -10.0000000000000        -1.745695999275191E-018
  -9.81000000000000        -1.757173945191607E-018
  -9.62000000000000        -1.749762592939178E-018
  -9.42999999999999        -1.731218299471271E-018
  -9.23999999999999        -1.720150954450941E-018
  -9.05000000000000        -1.728302180242554E-018
  -8.86000000000000        -1.749414642234972E-018
  -8.67000000000000        -1.765315992724078E-018
  -8.48000000000000        -1.763386243472602E-018
  -8.28999999999999        -1.748704335315182E-018
  -8.09999999999999        -1.739239563871561E-018
  -7.91000000000000        -1.748641125592044E-018
  -7.72000000000000        -1.773054006019072E-018
  -7.53000000000000        -1.794587054864548E-018
  -7.34000000000000        -1.798171136280947E-018
  -7.15000000000001        -1.785753380576698E-018
  -6.95999999999999        -1.774312058831283E-018
  -6.77000000000000        -1.779602726979173E-018
  -6.58000000000000        -1.801125496796202E-018
  -6.39000000000000        -1.822612266291958E-018
  -6.20000000000000        -1.827529351231103E-018
  -6.01000000000001        -1.814775930244567E-018
  -5.81999999999999        -1.799582855767670E-018
  -5.63000000000000        -1.798770737192680E-018
  -5.44000000000000        -1.814492581389169E-018
  -5.25000000000000        -1.832038608918301E-018
  -5.06000000000000        -1.833834211050709E-018
  -4.87000000000000        -1.816288258166188E-018
  -4.67999999999999        -1.793417215801695E-018
  -4.48999999999999        -1.783764159849014E-018
  -4.30000000000000        -1.793046632572721E-018
  -4.11000000000000        -1.809040630158665E-018
  -3.92000000000000        -1.813534828484077E-018
  -3.73000000000000        -1.799892701455671E-018
  -3.53999999999999        -1.779423418573991E-018
  -3.34999999999999        -1.770494992111564E-018
  -3.16000000000000        -1.780838374942873E-018
  -2.97000000000000        -1.799992685433193E-018
  -2.78000000000000        -1.809146959597118E-018
  -2.59000000000000        -1.799014569522835E-018
  -2.40000000000001        -1.778680302930638E-018
  -2.20999999999999        -1.766942678896841E-018
  -2.02000000000000        -1.774381104593527E-018
  -1.83000000000000        -1.793256974295167E-018
  -1.64000000000000        -1.804893858904748E-018
  -1.45000000000000        -1.797498683532934E-018
  -1.26000000000001        -1.777433569963343E-018
  -1.06999999999999        -1.763210205179244E-018
 -0.879999999999995        -1.767948384225138E-018
 -0.689999999999998        -1.787019708523694E-018
 -0.500000000000000        -1.802640854512568E-018
 -0.310000000000002        -1.801004406233567E-018
 -0.120000000000005        -1.785560227704777E-018
  7.000000000000739E-002   -1.773741442186844E-018
  0.260000000000005        -1.780264619891137E-018
  0.450000000000003        -1.802971537920724E-018
  0.640000000000001        -1.824747470214383E-018
  0.829999999999998        -1.829700623365391E-018
   1.02000000000000        -1.818182088685170E-018
   1.21000000000001        -1.806324394572300E-018
   1.40000000000001        -1.810531631863921E-018
   1.59000000000000        -1.831712606136499E-018
   1.78000000000000        -1.854299134807774E-018
   1.97000000000000        -1.860967651538690E-018
   2.16000000000000        -1.848985240634727E-018
   2.34999999999999        -1.832581502870703E-018
   2.54000000000001        -1.829131941049102E-018
   2.73000000000000        -1.842405098778792E-018
   2.92000000000000        -1.858916122147533E-018
   3.11000000000000        -1.860902332764233E-018
   3.30000000000000        -1.843536967850719E-018
   3.48999999999999        -1.819900699578949E-018
   3.68000000000001        -1.808889220848157E-018
   3.87000000000000        -1.817538627676543E-018
   4.06000000000000        -1.834600435372795E-018
   4.25000000000000        -1.841470557682674E-018
   4.44000000000000        -1.830035607399897E-018
   4.63000000000000        -1.810430753157727E-018
   4.82000000000001        -1.801339424064487E-018
   5.01000000000001        -1.812111816886825E-018
   5.20000000000000        -1.833783202394559E-018
   5.39000000000000        -1.847580069761069E-018
   5.58000000000000        -1.842790113004896E-018
   5.77000000000000        -1.826911173035009E-018
   5.96000000000001        -1.818371809637323E-018
   6.15000000000001        -1.828772448869959E-018
   6.34000000000000        -1.851602692428249E-018
   6.53000000000000        -1.868213370312586E-018