  -105.000000000000        -7.055699454157131E-020
  -104.810000000000        -1.945558795031591E-019
  -104.620000000000        -2.729624105225658E-019
  -104.430000000000        -2.910319584959699E-019
  -104.240000000000        -2.508690595009350E-019
  -104.050000000000        -1.706525663370716E-019
  -103.860000000000        -7.923593396729772E-020
  -103.670000000000        -7.692961243638203E-021
  -103.480000000000         1.973255810664476E-020
  -103.290000000000        -7.356758293928781E-021
  -103.100000000000        -8.256277157847308E-020
  -102.910000000000        -1.846544685026759E-019
  -102.720000000000        -2.838567435326637E-019
  -102.530000000000        -3.506270028251998E-019
  -102.340000000000        -3.643666689305645E-019
  -102.150000000000        -3.195387022749809E-019
  -101.960000000000        -2.274138407345627E-019
  -101.770000000000        -1.129315746519894E-019
  -101.580000000000        -7.576306413548042E-021
  -101.390000000000         5.967172677070690E-020
  -101.200000000000         7.068507650170201E-020
  -101.010000000000         2.340840521877597E-020
  -100.820000000000        -6.757248983051310E-020
  -100.630000000000        -1.752777603454004E-019
  -100.440000000000        -2.681591191801276E-019
  -100.250000000000        -3.192281565076704E-019
  -100.060000000000        -3.138402012589792E-019
  -99.8700000000000        -2.538843973142316E-019
  -99.6800000000000        -1.571758257095048E-019
  -99.4900000000000        -5.223307635144393E-020
  -99.3000000000000         3.004344661273034E-020
  -99.1100000000000         6.538088313640444E-020
  -98.9200000000000         4.321642316931118E-020
  -98.7300000000000        -3.020767673592531E-020
  -98.5400000000000        -1.336407562449694E-019
  -98.3500000000000        -2.369912194123596E-019
  -98.1600000000000        -3.100683387636594E-019
  -97.9700000000000        -3.313518558351095E-019
  -97.7800000000000        -2.942380980416373E-019
  -97.5900000000000        -2.089504871937313E-019
  -97.4000000000000        -9.956550130731413E-020
  -97.2100000000000         2.977804992826146E-021
  -97.0200000000000         6.985531756561753E-020
  -96.8300000000000         8.271901750253209E-020
  -96.6400000000000         3.901499266895141E-020
  -96.4500000000000        -4.728971848822321E-020
  -96.2600000000000        -1.497880472553739E-019
  -96.0700000000000        -2.373383289780370E-019
  -95.8800000000000        -2.831521459945189E-019
  -95.6900000000000        -2.726170376024791E-019
  -95.5000000000000        -2.075750350643279E-019
  -95.3100000000000        -1.058119783653364E-019
  -95.1200000000000         4.092711720491552E-021
  -94.9300000000000         9.105923943514798E-020
  -94.7400000000000         1.305378029160450E-019
  -94.5500000000000         1.116575928367081E-019
  -94.3600000000000         4.041798549248452E-020
  -94.1700000000000        -6.201278520439072E-020
  -93.9800000000000        -1.654102527832388E-019
  -93.7900000000000        -2.392529448546753E-019
  -93.6000000000000        -2.615865509033170E-019
  -93.4100000000000        -2.254129091413116E-019
  -93.2200000000000        -1.407408442817838E-019
  -93.0300000000000        -3.170030093707249E-020
  -92.8400000000000         7.044034073493281E-020
  -92.6500000000000         1.363248946105843E-019
  -92.4600000000000         1.470045259829663E-019
  -92.2700000000000         9.942082468069607E-020
  -92.0800000000000         7.294303097202535E-021
  -91.8900000000000        -1.028370700590656E-019
  -91.7000000000000        -1.992848261010559E-019
  -91.5100000000000        -2.543651637783395E-019
  -91.3200000000000        -2.523886528055168E-019
  -91.1300000000000        -1.941623540622063E-019
  -90.9400000000000        -9.669282613759545E-020
  -90.7500000000000         1.182274528743065E-020
  -90.5600000000000         1.002536655868965E-019
  -90.3700000000000         1.436297570315025E-019
  -90.1800000000000         1.304202109642756E-019
  -89.9900000000000         6.587929669123429E-020
  -89.8000000000000        -2.950992300732938E-020
  -89.6100000000000        -1.260361351351522E-019
  -89.4200000000000        -1.934573215179966E-019
  -89.2300000000000        -2.098669115075627E-019
  -89.0400000000000        -1.681511568977884E-019
  -88.8500000000000        -7.815812533063654E-020
  -88.6600000000000         3.605624873472276E-020
  -88.4700000000000         1.431072644560937E-019
  -88.2800000000000         2.132868362826309E-019
  -88.0900000000000         2.270800609912766E-019
  -87.9000000000000         1.807273785351438E-019
  -87.7100000000000         8.723447864688521E-020
  -87.5200000000000        -2.744165033427971E-020
  -87.3300000000000        -1.319073291824393E-019
  -87.1400000000000        -1.983630063191013E-019
  -86.9500000000000        -2.105381357210508E-019
  -86.7600000000000        -1.682420544132876E-019
  -86.5700000000000        -8.722545271889190E-020
  -86.3800000000000         5.592159178863435E-021
  -86.1900000000000         8.012678549692864E-020
  -86.0000000000000         1.120239959279087E-019
  -85.8100000000000         8.984504871188067E-020
  -85.6200000000000         1.845294434926298E-020
  -85.4300000000000        -8.237681002631896E-020
  -85.2400000000000        -1.836994418863872E-019
  -85.0500000000000        -2.558130721042936E-019
  -84.8600000000000        -2.768907443335685E-019
  -84.6700000000000        -2.393338169756382E-019
  -84.4800000000000        -1.520182691069753E-019
  -84.2900000000000        -3.779553470674673E-020
  -84.1000000000000         7.302353924232200E-020
  -83.9100000000000         1.513184596021012E-019
  -83.7200000000000         1.774460226729246E-019
  -83.5300000000000         1.467733196437723E-019
  -83.3400000000000         7.086376433823133E-020
  -83.1500000000000        -2.601524063027900E-020
  -82.9600000000000        -1.140375519902501E-019
  -82.7700000000000        -1.665360777162038E-019
  -82.5800000000000        -1.677650730026933E-019
  -82.3900000000000        -1.174637033814320E-019
  -82.2000000000000        -3.090776476026538E-020
  -82.0100000000000         6.555906855737098E-020
  -81.8200000000000         1.422194380316988E-019
  -81.6300000000000         1.746761716754903E-019
  -81.4400000000000         1.510279607575167E-019
  -81.2500000000000         7.544188847811807E-020
  -81.0600000000000        -3.292392362684065E-020
  -80.8700000000000        -1.453478585934699E-019
  -80.6800000000000        -2.317593501643247E-019
  -80.4900000000000        -2.693659823177085E-019
  -80.3000000000000        -2.491968099228575E-019
  -80.1100000000000        -1.786680080554092E-019
  -79.9200000000000        -7.942653146672113E-020
  -79.7300000000000         1.891097868638793E-020
  -79.5400000000000         8.732489635727260E-020
  -79.3500000000000         1.057986991388332E-019
  -79.1600000000000         6.913521255239068E-020
  -78.9700000000000        -1.151096871678921E-020
  -78.7800000000000        -1.118484488878195E-019
  -78.5900000000000        -2.014994909319483E-019
  -78.4000000000000        -2.528531874567963E-019
  -78.2100000000000        -2.491535485066179E-019
  -78.0200000000000        -1.894676521535867E-019
  -77.8300000000000        -8.908071364149131E-020
  -77.6400000000000         2.480915125137384E-020
  -77.4500000000000         1.208617669295530E-019
  -77.2600000000000         1.725926881639046E-019
  -77.0700000000000         1.660006262214914E-019
  -76.8800000000000         1.036165796102944E-019
  -76.6900000000000         3.793681932036923E-021
  -76.5000000000000        -1.045723041053566E-019
  -76.3100000000000        -1.903793252931890E-019
  -76.1200000000000        -2.293053602115038E-019
  -75.9300000000000        -2.108350037657321E-019
  -75.7400000000000        -1.412749877807403E-019
  -75.5500000000000        -4.187286870353813E-020
  -75.3600000000000         5.741544960036817E-020
  -75.1700000000000         1.266912476262900E-019
  -74.9800000000000         1.448555703989340E-019
  -74.7900000000000         1.057831546035433E-019
  -74.6000000000000         2.013263874932628E-020
  -74.4100000000000        -8.773373234711043E-020
  -74.2200000000000        -1.868298383427648E-019
  -74.0300000000000        -2.485724360225058E-019
  -73.8400000000000        -2.551310358809149E-019
  -73.6500000000000        -2.046651257033823E-019
  -73.4600000000000        -1.119129668745740E-019
  -73.2700000000000        -3.948607220497057E-021
  -73.0800000000000         8.766715699434584E-020
  -72.8900000000000         1.360624261295401E-019
  -72.7000000000000         1.268865121974862E-019
  -72.5100000000000         6.251702359617616E-020
  -72.3200000000000        -3.858617576869706E-020
  -72.1300000000000        -1.471962710066017E-019
  -71.9400000000000        -2.317618325125155E-019
  -71.7500000000000        -2.675232550065737E-019
  -71.5600000000000        -2.436535292996752E-019
  -71.3700000000000        -1.663504651126141E-019
  -71.1800000000000        -5.698994528776467E-020
  -70.9900000000000         5.410885257009901E-020
  -70.8000000000000         1.364761839756174E-019
  -70.6100000000000         1.682701844835429E-019
  -70.4200000000000         1.424842697055301E-019
  -70.2300000000000         6.879474172828449E-020
  -70.0400000000000        -2.945413430748419E-020
  -69.8500000000000        -1.222129866550837E-019
  -69.6600000000000        -1.815880788055188E-019
  -69.4700000000000        -1.900161839837130E-019
  -69.2800000000000        -1.453819976834097E-019
  -69.0900000000000        -6.159858072422477E-020
  -68.9000000000000         3.551208960715586E-020
  -68.7100000000000         1.158347079892792E-019
  -68.5200000000000         1.538455912486210E-019
  -68.3300000000000         1.361651836725140E-019
  -68.1400000000000         6.556729402538455E-020
  -67.9500000000000        -3.972403633526300E-020
  -67.7600000000000        -1.512394932382484E-019
  -67.5700000000000        -2.384501581015411E-019
  -67.3800000000000        -2.775509660384198E-019
  -67.1900000000000        -2.582939804860418E-019
  -67.0000000000000        -1.869000255160284E-019
  -66.8100000000000        -8.422138096467186E-020
  -66.6200000000000         2.029741228673459E-020
  -66.4300000000000         9.710589665872906E-020
  -66.2400000000000         1.250290314837232E-019
  -66.0500000000000         9.730090968825050E-020
  -65.8600000000000         2.341908697851198E-020
  -65.6700000000000        -7.370552948633565E-020
  -65.4800000000000        -1.644703016269355E-019
  -65.2900000000000        -2.212215037432477E-019
  -65.1000000000000        -2.263082224947269E-019
  -64.9100000000000        -1.772209948538721E-019
  -64.7200000000000        -8.733741026183369E-020
  -64.5300000000000         1.793435170748169E-020
  -64.3400000000000         1.085016067348431E-019
  -64.1500000000000         1.583067594141732E-019
  -63.9600000000000         1.529020294799794E-019
  -63.7700000000000         9.368113508235506E-020
  -63.5800000000000        -2.470959282110014E-021
  -63.3900000000000        -1.080221188114172E-019
  -63.2000000000000        -1.927330432344197E-019
  -63.0100000000000        -2.323901844529181E-019
  -62.8200000000000        -2.157977678767523E-019
  -62.6300000000000        -1.480026439784839E-019
  -62.4400000000000        -4.881614573241315E-020
  -62.2500000000000         5.294546202704996E-020
  -62.0600000000000         1.278412800250906E-019
  -61.8700000000000         1.543818203167890E-019
  -61.6800000000000         1.253127110415151E-019
  -61.4900000000000         4.977666108909035E-020
  -61.3000000000000        -4.928812220046267E-020
  -61.1100000000000        -1.417800068630501E-019
  -60.9200000000000        -1.991928244892853E-019
  -60.7300000000000        -2.029690706888697E-019
  -60.5400000000000        -1.500163229402151E-019
  -60.3500000000000        -5.376613052264618E-020
  -60.1600000000000         5.955590265472365E-020
  -59.9700000000000         1.583864209478548E-019
  -59.7800000000000         2.148583417206999E-019
  -59.5900000000000         2.128054925182455E-019
  -59.4000000000000         1.524269439952279E-019
  -59.2100000000000         5.025625590951919E-020
  -59.0200000000000        -6.557465225352152E-020
  -58.8300000000000        -1.634278826853933E-019
  -58.6400000000000        -2.172735894861370E-019
  -58.4500000000000        -2.141776597340206E-019
  -58.2600000000000        -1.579787287877041E-019
  -58.0700000000000        -6.807955057537148E-020
  -57.8800000000000         2.629449914269321E-020
  -57.6900000000000         9.469288105623874E-020
  -57.5000000000000         1.143858355790638E-019
  -57.3100000000000         7.705418525940161E-020
  -57.1200000000000        -8.723170350902066E-021
  -56.9300000000000        -1.199088830726240E-019
  -56.7400000000000        -2.256655169454746E-019
  -56.5500000000000        -2.962962141472539E-019
  -56.3600000000000        -3.118699891689074E-019
  -56.1700000000000        -2.680292288012891E-019
  -55.9800000000000        -1.772926865502188E-019
  -55.7900000000000        -6.546715593337637E-020
  -55.6000000000000         3.580151246463319E-020
  -55.4100000000000         9.817928955969146E-020
  -55.2200000000000         1.048349949879823E-019
  -55.0300000000000         5.528683373466111E-020
  -54.8400000000000        -3.450328785107576E-020
  -54.6500000000000        -1.368081537983154E-019
  -54.4600000000000        -2.202183367438467E-019
  -54.2700000000000        -2.587776039759097E-019
  -54.0800000000000        -2.395185275270325E-019
  -53.8900000000000        -1.662118156145020E-019
  -53.7000000000000        -5.824229110959830E-020
  -53.5100000000000         5.505255115890363E-020
  -53.3200000000000         1.429153836879549E-019
  -53.1300000000000         1.820721369177935E-019
  -52.9400000000000         1.634133451188321E-019
  -52.7500000000000         9.452962074182709E-020
  -52.5600000000000        -2.605633581915465E-021
  -52.3700000000000        -9.810496231176777E-020
  -52.1800000000000        -1.628923896715447E-019
  -51.9900000000000        -1.771528133091964E-019
  -51.8000000000000        -1.360656651601793E-019
  -51.6100000000000        -5.117512398897923E-020
  -51.4200000000000         5.298836402893041E-020
  -51.2300000000000         1.460487526755612E-019
  -51.0400000000000         2.006149985859147E-019
  -50.8500000000000         2.002415535970828E-019
  -50.6600000000000         1.442079506674114E-019
  -50.4700000000000         4.772659134197884E-020
  -50.2800000000000        -6.247856923803357E-020
  -50.0900000000000        -1.559223328776647E-019
  -49.9000000000000        -2.071665065643511E-019
  -49.7100000000000        -2.031210130369714E-019
  -49.5200000000000        -1.467310958301497E-019
  -49.3300000000000        -5.600640199788565E-020
  -49.1400000000000         4.129981703490988E-020
  -48.9500000000000         1.158006181396410E-019
  -48.7600000000000         1.450177570695741E-019
  -48.5700000000000         1.198841296728125E-019
  -48.3800000000000         4.732952812758263E-020
  -48.1900000000000        -5.178855606026155E-020
  -48.0000000000000        -1.487952878599158E-019
  -47.8100000000000        -2.155677172928322E-019
  -47.6200000000000        -2.327344739005703E-019
  -47.4300000000000        -1.953320428639071E-019
  -47.2400000000000        -1.142783129507131E-019
  -47.0500000000000        -1.323210787464166E-020
  -46.8600000000000         7.825536677636987E-020
  -46.6700000000000         1.333143529344224E-019
  -46.4800000000000         1.355703224966126E-019
  -46.2900000000000         8.392788943341511E-020
  -46.1000000000000        -7.072331453009723E-021
  -45.9100000000000        -1.114382547224184E-019
  -45.7200000000000        -1.992439031070643E-019
  -45.5300000000000        -2.452975320542331E-019
  -45.3400000000000        -2.364395817857866E-019
  -45.1500000000000        -1.753484995415593E-019
  -44.9600000000000        -7.975276999937057E-020
  -44.7700000000000         2.271357273835632E-020
  -44.5800000000000         1.025154102893337E-019
  -44.3900000000000         1.367682131187116E-019
  -44.2000000000000         1.158726667753876E-019
  -44.0100000000000         4.631620400508055E-020
  -43.8200000000000        -5.117789102076983E-020
  -43.6300000000000        -1.476339064239799E-019
  -43.4400000000000        -2.142222786085547E-019
  -43.2500000000000        -2.306482700429693E-019
  -43.0600000000000        -1.910955008525645E-019
  -42.8700000000000        -1.059864333491732E-019
  -42.6800000000000         9.678967627980666E-022
  -42.4900000000000         9.958554452284615E-020
  -42.3000000000000         1.619277025149248E-019
  -42.1100000000000         1.703835462036125E-019
  -41.9200000000000         1.227787614489410E-019
  -41.7300000000000         3.302113681481349E-020
  -41.5400000000000        -7.291057995431642E-020
  -41.3500000000000        -1.644805570654119E-019
  -41.1600000000000        -2.154443613760383E-019
  -40.9700000000000        -2.114711179206911E-019
  -40.7800000000000        -1.543220774068134E-019
  -40.5900000000000        -6.135942908777938E-020
  -40.4000000000000         3.948423327082315E-020
  -40.2100000000000         1.178227520464593E-019
  -40.0200000000000         1.496676925853036E-019
  -39.8300000000000         1.244472632227764E-019
  -39.6400000000000         4.815506399214006E-020
  -39.4500000000000        -5.829036870584785E-020
  -39.2600000000000        -1.650111652574649E-019
  -39.0700000000000        -2.417483189313935E-019
  -38.8800000000000        -2.665809474088981E-019
  -38.6900000000000        -2.322632955138994E-019
  -38.5000000000000        -1.483350387558606E-019
  -38.3100000000000        -3.838207419359919E-020
  -38.1200000000000         6.676571131165008E-020
  -37.9300000000000         1.379297690964800E-019
  -37.7400000000000         1.559890915089558E-019
  -37.5500000000000         1.173546806327318E-019
  -37.3600000000000         3.492527702337263E-020
  -37.1700000000000        -6.574222843817169E-020
  -36.9800000000000        -1.539222318581569E-019
  -36.7900000000000        -2.026884698143287E-019
  -36.6000000000000        -1.967596150566096E-019
  -36.4100000000000        -1.369518864105270E-019
  -36.2200000000000        -3.995180844996047E-020
  -36.0300000000000         6.652402660079062E-020
  -35.8400000000000         1.517797339525302E-019
  -35.6500000000000         1.910643172239398E-019
  -35.4600000000000         1.727720985940096E-019
  -35.2700000000000         1.018217516641154E-019
  -35.0800000000000        -1.766562463896024E-021
  -34.8900000000000        -1.086747942246751E-019
  -34.7000000000000        -1.887786478935424E-019
  -34.5100000000000        -2.198592546089973E-019
  -34.3200000000000        -1.940070665084094E-019
  -34.1300000000000        -1.198628815819476E-019
  -33.9400000000000        -2.005154873305582E-020
  -33.7500000000000         7.544038641943807E-020
  -33.5600000000000         1.380153537139010E-019
  -33.3700000000000         1.487978388481683E-019
  -33.1800000000000         1.041254690734002E-019
  -32.9900000000000         1.660330517931779E-020
  -32.8000000000000        -8.857851967595835E-020
  -32.6100000000000        -1.809845836207012E-019
  -32.4200000000000        -2.337910416716923E-019
  -32.2300000000000        -2.315835703721710E-019
  -32.0400000000000        -1.748359468108677E-019
  -31.8500000000000        -7.977892863960946E-020
  -31.6600000000000         2.629570282339815E-020
  -31.4700000000000         1.129371761729795E-019
  -31.2800000000000         1.553615284274387E-019
  -31.0900000000000         1.416455804231558E-019
  -30.9000000000000         7.619574009871102E-020
  -30.7100000000000        -2.152718864591662E-020
  -30.5200000000000        -1.226664509053764E-019
  -30.3300000000000        -1.973684984251432E-019
  -30.1400000000000        -2.234750870210588E-019
  -29.9500000000000        -1.929738186884684E-019
  -29.7600000000000        -1.143315248845458E-019
  -29.5700000000000        -1.003974666932131E-020
  -29.3800000000000         8.990655712296774E-020
  -29.1900000000000         1.567008116017622E-019
  -29.0000000000000         1.710677229331638E-019
  -28.8100000000000         1.288439991571085E-019
  -28.6200000000000         4.218594599904984E-020
  -28.4300000000000        -6.394362457453978E-020
  -28.2400000000000        -1.589955855356769E-019
  -28.0500000000000        -2.156759997273394E-019
  -27.8600000000000        -2.178487108641877E-019
  -27.6700000000000        -1.652064234187434E-019
  -27.4800000000000        -7.335462903903118E-020
  -27.2900000000000         3.071560321875407E-020
  -27.1000000000000         1.164535899738669E-019
  -26.9100000000000         1.586071567270430E-019
  -26.7200000000000         1.445484322841986E-019
  -26.5300000000000         7.794561777352375E-020
  -26.3400000000000        -2.228643475063785E-020
  -26.1500000000000        -1.274595903255224E-019
  -25.9600000000000        -2.074273397582213E-019
  -25.7700000000000        -2.393260606784002E-019
  -25.5800000000000        -2.141981644652710E-019
  -25.3900000000000        -1.395710890911687E-019
  -25.2000000000000        -3.724845548768723E-020
  -25.0100000000000         6.303508341812510E-020
  -24.8200000000000         1.322438405846814E-019
  -24.6300000000000         1.504481823249306E-019
  -24.4400000000000         1.125770736398676E-019
  -24.2500000000000         2.986385878495103E-020
  -24.0600000000000        -7.341950508901234E-020
  -23.8700000000000        -1.669912918048579E-019
  -23.6800000000000        -2.233262851087608E-019
  -23.4900000000000        -2.256339671882200E-019
  -23.3000000000000        -1.727430292092360E-019
  -23.1100000000000        -7.946965585041168E-020
  -22.9200000000000         2.765128023612614E-020
  -22.7300000000000         1.180432056121862E-019
  -22.5400000000000         1.659434782655838E-019
  -22.3500000000000         1.578599764813272E-019
  -22.1600000000000         9.646106263239536E-020
  -21.9700000000000        -2.270140191071352E-022
  -21.7800000000000        -1.040775262041149E-019
  -21.5900000000000        -1.850456300469287E-019
  -21.4000000000000        -2.198959836302905E-019
  -21.2100000000000        -1.989365282879119E-019
  -21.0200000000000        -1.288004506893333E-019
  -20.8300000000000        -3.047137881434894E-020
  -20.6400000000000         6.686613704016664E-020
  -20.4500000000000         1.343541665069908E-019
  -20.2600000000000         1.518825393989053E-019
  -20.0700000000000         1.139559927822443E-019
  -19.8800000000000         3.130572796764522E-020
  -19.6900000000000        -7.221978178517933E-020
  -19.5000000000000        -1.665803842035776E-019
  -19.3100000000000        -2.242761988752933E-019
  -19.1200000000000        -2.283550281650813E-019
  -18.9300000000000        -1.773747779338251E-019
  -18.7400000000000        -8.587483878591806E-020
  -18.5500000000000         1.980072244914466E-020
  -18.3600000000000         1.091404370576025E-019
  -18.1700000000000         1.563553977747593E-019
  -17.9800000000000         1.479246920063443E-019
  -17.7900000000000         8.657384210038604E-020
  -17.6000000000000        -9.494272873290741E-021
  -17.4100000000000        -1.118967685531885E-019
  -17.2200000000000        -1.903439127181032E-019
  -17.0300000000000        -2.214684288950803E-019
  -16.8400000000000        -1.956385977585914E-019
  -16.6500000000000        -1.197767778280786E-019
  -16.4600000000000        -1.536689757465901E-020
  -16.2700000000000         8.776974982485435E-020
  -16.0800000000000         1.601233035274861E-019
  -15.8900000000000         1.810595086486386E-019
  -15.7000000000000         1.448171918890588E-019
  -15.5100000000000         6.220092727954338E-020
  -15.3200000000000        -4.252619401437477E-020
  -15.1300000000000        -1.386580199002334E-019
  -14.9400000000000        -1.979429101042750E-019
  -14.7500000000000        -2.027847045782763E-019
  -14.5600000000000        -1.513638697703565E-019
  -14.3700000000000        -5.818708175161254E-020
  -14.1800000000000         5.009876097163970E-020
  -13.9900000000000         1.424174281359344E-019
  -13.8000000000000         1.922662306124009E-019
  -13.6100000000000         1.853999316603755E-019
  -13.4200000000000         1.239585248177524E-019
  -13.2300000000000         2.582680616582109E-020
  -13.0400000000000        -8.059623467160640E-020
  -12.8500000000000        -1.646895940279572E-019
  -12.6600000000000        -2.025322190923328E-019
  -12.4700000000000        -1.838442553444621E-019
  -12.2800000000000        -1.149329114188005E-019
  -12.0900000000000        -1.680918781425516E-020
  -11.9000000000000         8.095073471110458E-020
  -11.7100000000000         1.488019887973751E-019
  -11.5200000000000         1.657925434395797E-019
  -11.3300000000000         1.256196086973486E-019
  -11.1400000000000         3.844103009874219E-020
  -10.9500000000000        -7.206972455990634E-020
  -10.7600000000000        -1.755631960129691E-019
  -10.5700000000000        -2.437647790694311E-019
  -10.3800000000000        -2.586051777627517E-019
  -10.1900000000000        -2.173804308980008E-019
  -10.0000000000000        -1.334524748414703E-019
  -9.81000000000000        -3.229664606008094E-020
  -9.62000000000000         5.594338489482130E-020
  -9.42999999999999         1.052188122035864E-019
  -9.23999999999999         1.011080406336685E-019
  -9.05000000000000         4.494033792604402E-020
  -8.86000000000000        -4.666644507589799E-020
  -8.67000000000000        -1.466982262294584E-019
  -8.48000000000000        -2.256308004871486E-019
  -8.28999999999999        -2.600107655405976E-019
  -8.09999999999999        -2.392365797046582E-019
  -7.91000000000000        -1.685782897683972E-019
  -7.72000000000000        -6.758284019336905E-020
  -7.53000000000000         3.563705721967066E-020
  -7.34000000000000         1.125442485348330E-019
  -7.15000000000001         1.423827448915702E-019
  -6.95999999999999         1.180935239682801E-019
  -6.77000000000000         4.826757947552104E-020
  -6.58000000000000        -4.539396331030502E-020
  -6.39000000000000        -1.343650472690938E-019
  -6.20000000000000        -1.915192200010459E-019
  -6.01000000000001        -1.989399004978413E-019
  -5.81999999999999        -1.530795988658619E-019
  -5.63000000000000        -6.578442306755709E-020
  -5.44000000000000         3.911828011601572E-020
  -5.25000000000000         1.326940004365172E-019
  -5.06000000000000         1.892548628671279E-019
  -4.87000000000000         1.937727524847022E-019
  -4.67999999999999         1.461996480767225E-019
  -4.48999999999999         6.144378510348816E-020
  -4.30000000000000        -3.498536929227508E-020
  -4.11000000000000        -1.143969892596979E-019
  -3.92000000000000        -1.532571910807049E-019
  -3.73000000000000        -1.400403370720324E-019
  -3.53999999999999        -7.861877750788133E-020
  -3.34999999999999         1.278951020359756E-020
  -3.16000000000000         1.068229509380039E-019
  -2.97000000000000         1.748446585136430E-019
  -2.78000000000000         1.952240414726142E-019
  -2.59000000000000         1.596538119813785E-019
  -2.40000000000001         7.568138531046768E-020
  -2.20999999999999        -3.528953398307823E-020
  -2.02000000000000        -1.439826558606060E-019
  -1.83000000000000        -2.215345663586586E-019
  -1.64000000000000        -2.477285330454184E-019
  -1.45000000000000        -2.168158279354432E-019
  -1.26000000000001        -1.392287777269139E-019
  -1.06999999999999        -3.864759238743364E-020
 -0.879999999999995         5.478556478712416E-020
 -0.689999999999998         1.131821855615762E-019
 -0.500000000000000         1.190360243841881E-019
 -0.310000000000002         7.038337112073090E-020
 -0.120000000000005        -1.854314466960374E-020
  7.000000000000739E-002   -1.213942272783231E-019
  0.260000000000005        -2.073528007198120E-019
  0.450000000000003        -2.501333337569719E-019
  0.640000000000001        -2.357110526603752E-019
  0.829999999999998        -1.665259320911854E-019
   1.02000000000000        -6.092334180208763E-020
   1.21000000000001         5.203446365353014E-020
   1.40000000000001         1.409114927935339E-019
   1.59000000000000         1.809943553276328E-019
   1.78000000000000         1.615011171688480E-019
   1.97000000000000         8.878948098068676E-020
   2.16000000000000        -1.540150452931910E-020
   2.34999999999999        -1.202020253715016E-019
   2.54000000000001        -1.945620561472854E-019
   2.73000000000000        -2.163019308064826E-019
   2.92000000000000        -1.786130166444300E-019
   3.11000000000000        -9.208903736764640E-020
   3.30000000000000         1.833118962268017E-020
   3.48999999999999         1.206372222657632E-019
   3.68000000000001         1.851186656356440E-019
   3.87000000000000         1.930879263285324E-019
   4.06000000000000         1.423839384968836E-019
   4.25000000000000         4.802130431710606E-020
   4.44000000000000        -6.222560203507386E-020
   4.63000000000000        -1.560104722571643E-019
   4.82000000000001        -2.059507886786546E-019
   5.01000000000001        -1.976826649673582E-019
   5.20000000000000        -1.340554569605762E-019
   5.39000000000000        -3.424493015725664E-020
   5.58000000000000         7.192840592509191E-020
   5.77000000000000         1.527824205872893E-019
   5.96000000000001         1.840688196415398E-019
   6.15000000000001         1.560599231889953E-019
   6.34000000000000         7.636416685840150E-020
   6.53000000000000        -3.234032141260466E-020