  -105.000000000000        -4.671622017479063E-020
  -104.810000000000        -1.042655306383385E-019
  -104.620000000000        -8.810331529284211E-020
  -104.430000000000        -2.881463994161554E-020
  -104.240000000000         5.513913892988623E-021
  -104.050000000000        -2.527004569507272E-020
  -103.860000000000        -9.526033880897236E-020
  -103.670000000000        -1.379050591266833E-019
  -103.480000000000        -1.104961386630058E-019
  -103.290000000000        -3.598285303633439E-020
  -103.100000000000         1.800067364122608E-020
  -102.910000000000         3.003247644775033E-021
  -102.720000000000        -6.443555664026750E-020
  -102.530000000000        -1.187848912147615E-019
  -102.340000000000        -1.080391582426758E-019
  -102.150000000000        -4.309291591808171E-020
  -101.960000000000         1.304519092890967E-020
  -101.770000000000         5.771923307221129E-021
  -101.580000000000        -5.870260683211685E-020
  -101.390000000000        -1.191169739793826E-019
  -101.200000000000        -1.175837267525933E-019
  -101.010000000000        -5.484705895400110E-020
  -100.820000000000         1.043022639200141E-020
  -100.630000000000         1.764851270273060E-020
  -100.440000000000        -3.797127962868364E-020
  -100.250000000000        -1.009822632962054E-019
  -100.060000000000        -1.087983620369782E-019
  -99.8700000000000        -5.153960342876415E-020
  -99.6800000000000         1.850749293600923E-020
  -99.4900000000000         3.680186253566086E-020
  -99.3000000000000        -1.191100250624289E-020
  -99.1100000000000        -7.923940389725972E-020
  -98.9200000000000        -9.960608053769387E-020
  -98.7300000000000        -5.301504375651219E-020
  -98.5400000000000         1.591637174466940E-020
  -98.3500000000000         4.084413719699539E-020
  -98.1600000000000        -2.523425374755740E-021
  -97.9700000000000        -7.280462427056507E-020
  -97.7800000000000        -1.021943324468875E-019
  -97.5900000000000        -6.115674700437711E-020
  -97.4000000000000         1.327598593513022E-020
  -97.2100000000000         5.268124874421732E-020
  -97.0200000000000         2.232106750506244E-020
  -96.8300000000000        -4.599178195573741E-020
  -96.6400000000000        -8.455289227387162E-020
  -96.4500000000000        -5.462982149652994E-020
  -96.2600000000000         1.644028387919748E-020
  -96.0700000000000         6.139612753212442E-020
  -95.8800000000000         3.747173661780014E-020
  -95.6900000000000        -3.254419266967813E-020
  -95.5000000000000        -8.194287088196328E-020
  -95.3100000000000        -6.377140561517251E-020
  -95.1200000000000         4.316061654642111E-021
  -94.9300000000000         5.689565519477380E-020
  -94.7400000000000         4.324992128695606E-020
  -94.5500000000000        -2.414052193316653E-020
  -94.3600000000000        -8.142492045463399E-020
  -94.1700000000000        -7.432086368211080E-020
  -93.9800000000000        -9.985291810871022E-021
  -93.7900000000000         4.979637621418956E-020
  -93.6000000000000         4.764990072268560E-020
  -93.4100000000000        -1.452694946364487E-020
  -93.2200000000000        -7.730715867194825E-020
  -93.0300000000000        -8.044648117617293E-020
  -92.8400000000000        -2.047128901376452E-020
  -92.6500000000000         4.581218145071486E-020
  -92.4600000000000         5.530832979827036E-020
  -92.2700000000000        -1.311839552369859E-021
  -92.0800000000000        -7.076933143930849E-020
  -91.8900000000000        -8.797651035771573E-020
  -91.7000000000000        -3.796836432977585E-020
  -91.5100000000000         3.012084435899809E-020
  -91.3200000000000         5.026904696586860E-020
  -91.1300000000000         2.790804195235101E-021
  -90.9400000000000        -6.682470990131294E-020
  -90.7500000000000        -9.144926074030559E-020
  -90.5600000000000        -4.663769289001207E-020
  -90.3700000000000         2.574174783703547E-020
  -90.1800000000000         5.721394881051487E-020
  -89.9900000000000         1.788466031533304E-020
  -89.8000000000000        -5.508962226286810E-020
  -89.6100000000000        -9.289270850958927E-020
  -89.4200000000000        -6.052178907048777E-020
  -89.2300000000000         1.008444889463540E-020
  -89.0400000000000         5.079133443268500E-020
  -88.8500000000000         2.246030718278908E-020
  -88.6600000000000        -4.769523099249012E-020
  -88.4700000000000        -9.223283257088841E-020
  -88.2800000000000        -6.804236401120507E-020
  -88.0900000000000         2.379018508457542E-021
  -87.9000000000000         5.233114860075996E-020
  -87.7100000000000         3.450414952608645E-020
  -87.5200000000000        -3.395409857889941E-020
  -87.3300000000000        -8.788058930975920E-020
  -87.1400000000000        -7.630555177396428E-020
  -86.9500000000000        -1.097989828658979E-020
  -86.7600000000000         4.512245618490268E-020
  -86.5700000000000         3.823041327537081E-020
  -86.3800000000000        -2.475640856734212E-020
  -86.1900000000000        -8.297873817167551E-020
  -86.0000000000000        -8.001429056999083E-020
  -85.8100000000000        -1.806711051653438E-020
  -85.6200000000000         4.390809574450238E-020
  -85.4300000000000         4.646121131993114E-020
  -85.2400000000000        -1.339811410472682E-020
  -85.0500000000000        -7.901981460140147E-020
  -84.8600000000000        -8.786821454735305E-020
  -84.6700000000000        -3.094046855345112E-020
  -84.4800000000000         3.883050832040309E-020
  -84.2900000000000         5.707806135899991E-020
  -84.1000000000000         9.077254895551929E-021
  -83.9100000000000        -5.688258148678023E-020
  -83.7200000000000        -7.642960203184117E-020
  -83.5300000000000        -3.130749839354270E-020
  -83.3400000000000         3.281065351297945E-020
  -83.1500000000000         5.010207000410933E-020
  -82.9600000000000        -1.852254568632060E-021
  -82.7700000000000        -7.965062181105230E-020
  -82.5800000000000        -1.144517326241050E-019
  -82.3900000000000        -7.677207048804094E-020
  -82.2000000000000        -3.946328903633788E-021
  -82.0100000000000         3.589644878740512E-020
  -81.8200000000000         8.926979455494062E-021
  -81.6300000000000        -5.238186188727110E-020
  -81.4400000000000        -8.092721904291255E-020
  -81.2500000000000        -4.004738261819716E-020
  -81.0600000000000         4.029623405734059E-020
  -80.8700000000000         9.098901222731392E-020
  -80.6800000000000         6.884184088625973E-020
  -80.4900000000000        -2.726421773260702E-021
  -80.3000000000000        -5.618325180409687E-020
  -80.1100000000000        -4.410606196504268E-020
  -79.9200000000000         1.609788922357864E-020
  -79.7300000000000         5.958203754030613E-020
  -79.5400000000000         3.684607852795544E-020
  -79.3500000000000        -3.817979186608343E-020
  -79.1600000000000        -1.007911181607258E-019
  -78.9700000000000        -9.687787641739683E-020
  -78.7800000000000        -3.441383138534140E-020
  -78.5900000000000         2.413905999104594E-020
  -78.4000000000000         2.136836371841703E-020
  -78.2100000000000        -4.034181936739825E-020
  -78.0200000000000        -1.011112518519457E-019
  -77.8300000000000        -1.007840601533650E-019
  -77.6400000000000        -3.649938933589707E-020
  -77.4500000000000         3.431256697719206E-020
  -77.2600000000000         4.833896165194735E-020
  -77.0700000000000        -3.697074815308464E-021
  -76.8800000000000        -6.865028516519046E-020
  -76.6900000000000        -8.195623978573069E-020
  -76.5000000000000        -2.930209427936301E-020
  -76.3100000000000         3.986822501674578E-020
  -76.1200000000000         5.984981406137575E-020
  -75.9300000000000         1.172938088243113E-020
  -75.7400000000000        -5.831069637505668E-020
  -75.5500000000000        -8.292176435303270E-020
  -75.3600000000000        -3.774729027872195E-020
  -75.1700000000000         3.543700346937337E-020
  -74.9800000000000         6.860606543470348E-020
  -74.7900000000000         3.227344743211846E-020
  -74.6000000000000        -3.663218737843391E-020
  -74.4100000000000        -7.036890046056443E-020
  -74.2200000000000        -3.541250711356909E-020
  -74.0300000000000         3.526637935037582E-020
  -73.8400000000000         7.354528097020328E-020
  -73.6500000000000         4.113329138199896E-020
  -73.4600000000000        -3.389805365564132E-020
  -73.2700000000000        -8.385601622758061E-020
  -73.0800000000000        -6.582008298336487E-020
  -72.8900000000000        -2.203121870141915E-021
  -72.7000000000000         4.117609037880764E-020
  -72.5100000000000         1.847353412894341E-020
  -72.3200000000000        -5.198158856308548E-020
  -72.1300000000000        -1.049525249202573E-019
  -71.9400000000000        -9.050142731489043E-020
  -71.7500000000000        -2.163875076541847E-020
  -71.5600000000000         3.810385143935592E-020
  -71.3700000000000         3.522541069074664E-020
  -71.1800000000000        -2.298315773202395E-020
  -70.9900000000000        -7.596858620507200E-020
  -70.8000000000000        -6.847563138470818E-020
  -70.6100000000000        -4.039279120750288E-021
  -70.4200000000000         5.788935464306334E-020
  -70.2300000000000         5.855913091022226E-020
  -70.0400000000000        -3.811289041620844E-021
  -69.8500000000000        -7.193645468806504E-020
  -69.6600000000000        -8.363976320389748E-020
  -69.4700000000000        -3.065979471425744E-020
  -69.2800000000000         3.399895904129465E-020
  -69.0900000000000         4.714001224877424E-020
  -68.9000000000000        -3.984046162615802E-021
  -68.7100000000000        -6.948456438619830E-020
  -68.5200000000000        -8.476966668532513E-020
  -68.3300000000000        -3.271554261714678E-020
  -68.1400000000000         3.944871875091126E-020
  -67.9500000000000         6.478937811656140E-020
  -67.7600000000000         2.030450841405392E-020
  -67.5700000000000        -5.118669417678860E-020
  -67.3800000000000        -8.186621414163592E-020
  -67.1900000000000        -4.354533427282754E-020
  -67.0000000000000         2.562612209387267E-020
  -66.8100000000000         5.790581521862823E-020
  -66.6200000000000         2.100230792817105E-020
  -66.4300000000000        -5.082475741006206E-020
  -66.2400000000000        -8.938663131085995E-020
  -66.0500000000000        -5.778680357445619E-020
  -65.8600000000000         1.405069905962572E-020
  -65.6700000000000         5.759258078021763E-020
  -65.4800000000000         3.091974396475315E-020
  -65.2900000000000        -4.118971404445244E-020
  -65.1000000000000        -9.063914375422412E-020
  -64.9100000000000        -7.065099303790689E-020
  -64.7200000000000        -5.676954853180402E-023
  -64.5300000000000         5.491763343628264E-020
  -64.3400000000000         4.385995244282094E-020
  -64.1500000000000        -1.997919959453322E-020
  -63.9600000000000        -7.277905089738580E-020
  -63.7700000000000        -6.158727865189527E-020
  -63.5800000000000         4.636292156281173E-021
  -63.3900000000000         6.322909461525842E-020
  -63.2000000000000         5.756266471368493E-020
  -63.0100000000000        -8.717336305801683E-021
  -62.8200000000000        -7.479756519108344E-020
  -62.6300000000000        -8.025898773088104E-020
  -62.4400000000000        -2.224869850810190E-020
  -62.2500000000000         4.216772617839336E-020
  -62.0600000000000         5.061433202177873E-020
  -61.8700000000000        -5.156916495186995E-021
  -61.6800000000000        -7.167780869693254E-020
  -61.4900000000000        -8.518712124830011E-020
  -61.3000000000000        -3.287002702470888E-020
  -61.1100000000000         3.463878114575072E-020
  -60.9200000000000         5.145936906791202E-020
  -60.7300000000000        -6.182142527105754E-022
  -60.5400000000000        -7.451058600933409E-020
  -60.3500000000000        -1.022862251652386E-019
  -60.1600000000000        -5.929294255024215E-020
  -59.9700000000000         1.310459783167002E-020
  -59.7800000000000         4.765377352607343E-020
  -59.5900000000000         1.563717979224809E-020
  -59.4000000000000        -4.607546255591357E-020
  -59.2100000000000        -7.111434766469656E-020
  -59.0200000000000        -2.815180593487426E-020
  -58.8300000000000         4.797802945368131E-020
  -58.6400000000000         8.851182559165377E-020
  -58.4500000000000         5.574035479207528E-020
  -58.2600000000000        -2.121392139250261E-020
  -58.0700000000000        -7.398327088062638E-020
  -57.8800000000000        -5.958027090555798E-020
  -57.6900000000000        -3.970890996141024E-022
  -57.5000000000000         3.844411614348531E-020
  -57.3100000000000         1.247889042132913E-020
  -57.1200000000000        -5.872751323501342E-020
  -56.9300000000000        -1.097232957898033E-019
  -56.7400000000000        -9.150848100510561E-020
  -56.5500000000000        -1.849946234777928E-020
  -56.3600000000000         4.482529832671219E-020
  -56.1700000000000         4.492046204018461E-020
  -55.9800000000000        -1.045307046297838E-020
  -55.7900000000000        -6.057461045591045E-020
  -55.6000000000000        -5.069919751282407E-020
  -55.4100000000000         1.492886009931019E-020
  -55.2200000000000         7.674464465761189E-020
  -55.0300000000000         7.672699756272562E-020
  -54.8400000000000         1.409542116266880E-020
  -54.6500000000000        -5.350179508579340E-020
  -54.4600000000000        -6.463752065217103E-020
  -54.2700000000000        -1.248571798851092E-020
  -54.0800000000000         4.888910696415954E-020
  -53.8900000000000         5.641357340457445E-020
  -53.7000000000000        -1.494901592015038E-021
  -53.5100000000000        -7.361262366596743E-020
  -53.3200000000000        -9.459446716364769E-020
  -53.1300000000000        -4.719702174267365E-020
  -52.9400000000000         2.135198808564431E-020
  -52.7500000000000         4.449232170251407E-020
  -52.5600000000000        -1.047889942709063E-022
  -52.3700000000000        -6.929100132925250E-020
  -52.1800000000000        -9.585301779415879E-020
  -51.9900000000000        -5.300732586801729E-020
  -51.8000000000000         1.969857489267853E-020
  -51.6100000000000         5.389706124183014E-020
  -51.4200000000000         1.756992660703487E-020
  -51.2300000000000        -5.432957282805763E-020
  -51.0400000000000        -9.309448161387564E-020
  -50.8500000000000        -6.168647753933429E-020
  -50.6600000000000         1.007464510161639E-020
  -50.4700000000000         5.417305984879967E-020
  -50.2800000000000         2.955337064357567E-020
  -50.0900000000000        -3.845294913334591E-020
  -49.9000000000000        -8.211366904490081E-020
  -49.7100000000000        -5.588644771754338E-020
  -49.5200000000000         1.993907882717937E-020
  -49.3300000000000         7.817602177714714E-020
  -49.1400000000000         6.823786786726596E-020
  -48.9500000000000         3.684560553686629E-021
  -48.7600000000000        -5.143695222279794E-020
  -48.5700000000000        -4.424066855978641E-020
  -48.3800000000000         1.634473824870869E-020
  -48.1900000000000         6.826948808152335E-020
  -48.0000000000000         5.602780558202593E-020
  -47.8100000000000        -1.571991179144561E-020
  -47.6200000000000        -8.581980150584732E-020
  -47.4300000000000        -9.419211385651189E-020
  -47.2400000000000        -3.842756983801739E-020
  -47.0500000000000         2.456075059528477E-020
  -46.8600000000000         3.330499634717485E-020
  -46.6700000000000        -1.944802211529951E-020
  -46.4800000000000        -8.009597110541717E-020
  -46.2900000000000        -8.590280323422442E-020
  -46.1000000000000        -2.559997862355492E-020
  -45.9100000000000         4.905007288454547E-020
  -45.7200000000000         7.186603981657422E-020
  -45.5300000000000         2.475859851031004E-020
  -45.3400000000000        -4.544506201489536E-020
  -45.1500000000000        -7.184942637169414E-020
  -44.9600000000000        -3.110308991883265E-020
  -44.7700000000000         3.494969816226409E-020
  -44.5800000000000         6.004448913767012E-020
  -44.3900000000000         1.748705918197467E-020
  -44.2000000000000        -5.390651611054011E-020
  -44.0100000000000        -8.671732145583749E-020
  -43.8200000000000        -4.938513895244559E-020
  -43.6300000000000         2.344979579222298E-020
  -43.4400000000000         6.383309395563734E-020
  -43.2500000000000         3.524032551979435E-020
  -43.0600000000000        -3.271619349574359E-020
  -42.8700000000000        -7.280307298295923E-020
  -42.6800000000000        -4.463659272669210E-020
  -42.4900000000000         2.650102953423209E-020
  -42.3000000000000         7.357998787159026E-020
  -42.1100000000000         5.164379704552107E-020
  -41.9200000000000        -1.940971600652805E-020
  -41.7300000000000        -7.394571781887158E-020
  -41.5400000000000        -6.331404886784448E-020
  -41.3500000000000        -2.190363930100767E-021
  -41.1600000000000         4.576799431710299E-020
  -40.9700000000000         2.920765842014301E-020
  -40.7800000000000        -4.131833854744768E-020
  -40.5900000000000        -1.028995248942483E-019
  -40.4000000000000        -9.992673133834427E-020
  -40.2100000000000        -3.690888448530660E-020
  -40.0200000000000         2.602461096861708E-020
  -39.8300000000000         3.064154179107667E-020
  -39.6400000000000        -2.386521097474871E-020
  -39.4500000000000        -8.044912179885338E-020
  -39.2600000000000        -7.928334021215792E-020
  -39.0700000000000        -1.565498830754693E-020
  -38.8800000000000         5.475791662979883E-020
  -38.6900000000000         6.847858649825214E-020
  -38.5000000000000         1.464817833879000E-020
  -38.3100000000000        -5.441032277304664E-020
  -38.1200000000000        -7.268634078558505E-020
  -37.9300000000000        -2.289999211545557E-020
  -37.7400000000000         4.763273481059498E-020
  -37.5500000000000         7.266929321977935E-020
  -37.3600000000000         3.049236139420418E-020
  -37.1700000000000        -3.547850022623582E-020
  -36.9800000000000        -5.857020919377864E-020
  -36.7900000000000        -1.320434296833590E-020
  -36.6000000000000         5.985407986724066E-020
  -36.4100000000000         9.168063139679651E-020
  -36.2200000000000         5.053784512676808E-020
  -36.0300000000000        -2.794266730028950E-020
  -35.8400000000000        -7.453866722735627E-020
  -35.6500000000000        -5.191657695110470E-020
  -35.4600000000000         1.061974035314547E-020
  -35.2700000000000         4.611201434503481E-020
  -35.0800000000000         1.484302808489053E-020
  -34.8900000000000        -5.691870832336890E-020
  -34.7000000000000        -1.014549943017176E-019
  -34.5100000000000        -7.412827908284035E-020
  -34.3200000000000         3.669075894653916E-021
  -34.1300000000000         6.420979580457242E-020
  -33.9400000000000         5.705183615253800E-020
  -33.7500000000000        -4.007679424594325E-021
  -33.5600000000000        -5.522505909700146E-020
  -33.3700000000000        -4.456753965810044E-020
  -33.1800000000000         1.823265467242938E-020
  -32.9900000000000         7.100063315392311E-020
  -32.8000000000000         5.884368643807495E-020
  -32.6100000000000        -1.286261938417415E-020
  -32.4200000000000        -8.293726466234496E-020
  -32.2300000000000        -9.209668124062689E-020
  -32.0400000000000        -3.881288218609413E-020
  -31.8500000000000         1.994928375713698E-020
  -31.6600000000000         2.371185211586948E-020
  -31.4700000000000        -3.340054026892925E-020
  -31.2800000000000        -9.693213039412200E-020
  -31.0900000000000        -1.042098414660741E-019
  -30.9000000000000        -4.447383075066733E-020
  -30.7100000000000         3.046670594950728E-020
  -30.5200000000000         5.524580288759467E-020
  -30.3300000000000         1.280423708390735E-020
  -30.1400000000000        -4.992907365986893E-020
  -29.9500000000000        -6.740926055458176E-020
  -29.7600000000000        -1.847837454672195E-020
  -29.5700000000000         5.322557344128540E-020
  -29.3800000000000         8.096086483814790E-020
  -29.1900000000000         3.879496004947493E-020
  -29.0000000000000        -3.342087040969053E-020
  -28.8100000000000        -6.792037041402007E-020
  -28.6200000000000        -3.351628878486157E-020
  -28.4300000000000         3.491709481109583E-020
  -28.2400000000000         7.008978029911297E-020
  -28.0500000000000         3.687044601203860E-020
  -27.8600000000000        -3.394605217923335E-020
  -27.6700000000000        -7.501240163928594E-020
  -27.4800000000000        -4.692871055833803E-020
  -27.2900000000000         2.382873008997446E-020
  -27.1000000000000         6.991993665384837E-020
  -26.9100000000000         4.725024626184770E-020
  -26.7200000000000        -2.308820502734487E-020
  -26.5300000000000        -7.510235401934791E-020
  -26.3400000000000        -6.101696139749230E-020
  -26.1500000000000         3.052924716149245E-021
  -25.9600000000000         5.252937333583799E-020
  -25.7700000000000         3.625927275635197E-020
  -25.5800000000000        -3.420971241277659E-020
  -25.3900000000000        -9.511603696603762E-020
  -25.2000000000000        -9.082359748449269E-020
  -25.0100000000000        -2.643665832800650E-020
  -24.8200000000000         3.749001987354612E-020
  -24.6300000000000         4.297968947096425E-020
  -24.4400000000000        -1.009051103509118E-020
  -24.2500000000000        -6.426328572924478E-020
  -24.0600000000000        -6.006035815362758E-020
  -23.8700000000000         6.276668861688984E-021
  -23.6800000000000         7.816828272977202E-020
  -23.4900000000000         9.183519457262650E-020
  -23.3000000000000         3.660452068659524E-020
  -23.1100000000000        -3.513464671794157E-020
  -22.9200000000000        -5.780933937820705E-020
  -22.7300000000000        -1.478720220426205E-020
  -22.5400000000000         4.645917861057184E-020
  -22.3500000000000         6.050697887584670E-020
  -22.1600000000000         7.297582692769202E-021
  -21.9700000000000        -6.793778657977708E-020
  -21.7800000000000        -9.727283207515383E-020
  -21.5900000000000        -5.460772485834906E-020
  -21.4000000000000         1.944226039286765E-020
  -21.2100000000000         5.602403700357442E-020
  -21.0200000000000         2.318334142278208E-020
  -20.8300000000000        -4.439946173861014E-020
  -20.6400000000000        -7.928651442919626E-020
  -20.4500000000000        -4.626610575678148E-020
  -20.2600000000000         2.372582478350180E-020
  -20.0700000000000         6.317798615943776E-020
  -19.8800000000000         3.275308538666337E-020
  -19.6900000000000        -4.075171745636832E-020
  -19.5000000000000        -8.957213989107105E-020
  -19.3100000000000        -6.928895704925156E-020
  -19.1200000000000        -9.392640873518982E-022
  -18.9300000000000         4.923953589704313E-020
  -18.7400000000000         3.311817089235778E-020
  -18.5500000000000        -3.336909357121791E-020
  -18.3600000000000        -8.548466339043566E-020
  -18.1700000000000        -7.154894942241207E-020
  -17.9800000000000        -2.270754566851628E-021
  -17.7900000000000         5.952469466118667E-020
  -17.6000000000000         5.882380335246061E-020
  -17.4100000000000         6.957757878728533E-022
  -17.2200000000000        -5.497073135454908E-020
  -17.0300000000000        -5.116044094628649E-020
  -16.8400000000000         1.132160611568421E-020
  -16.6500000000000         7.423864391403785E-020
  -16.4600000000000         7.736581001764253E-020
  -16.2700000000000         1.601256799013168E-020
  -16.0800000000000        -5.438089314898751E-020
  -15.8900000000000        -7.094571500585742E-020
  -15.7000000000000        -2.299691670717609E-020
  -15.5100000000000         3.834707196622561E-020
  -15.3200000000000         4.963078132010868E-020
  -15.1300000000000        -3.717630166438333E-021
  -14.9400000000000        -7.299127059352714E-020
  -14.7500000000000        -9.252097934866460E-020
  -14.5600000000000        -4.252398638264708E-020
  -14.3700000000000         3.161288582077508E-020
  -14.1800000000000         6.213497481349172E-020
  -13.9900000000000         2.300417005579115E-020
  -13.8000000000000        -4.582891805789707E-020
  -13.6100000000000        -7.699526525784442E-020
  -13.4200000000000        -4.017794963613692E-020
  -13.2300000000000         2.911355341596978E-020
  -13.0400000000000         6.391196627580266E-020
  -12.8500000000000         3.036752477188380E-020
  -12.6600000000000        -3.934299609289847E-020
  -12.4700000000000        -7.739442939281948E-020
  -12.2800000000000        -4.504445557954985E-020
  -12.0900000000000         3.012864711156311E-020
  -11.9000000000000         8.012370587113186E-020
  -11.7100000000000         6.092783692493952E-020
  -11.5200000000000        -5.970080660746880E-021
  -11.3300000000000        -5.456384187509271E-020
  -11.1400000000000        -3.775372756189536E-020
  -10.9500000000000         2.740905854333511E-020
  -10.7600000000000         7.592267198424263E-020
  -10.5700000000000         5.702805798876374E-020
  -10.3800000000000        -1.699569209951417E-020
  -10.1900000000000        -8.203597970269231E-020
  -10.0000000000000        -8.270961828925324E-020
  -9.81000000000000        -2.455866252305924E-020
  -9.62000000000000         3.187955449186159E-020
  -9.42999999999999         2.940750452424957E-020
  -9.23999999999999        -3.088918205924224E-020
  -9.05000000000000        -9.064430581851002E-020
  -8.86000000000000        -9.019392656469195E-020
  -8.67000000000000        -2.600493259788854E-020
  -8.48000000000000         4.534806353581781E-020
  -8.28999999999999         6.052541756501182E-020
  -8.09999999999999         9.279462536292812E-021
  -7.91000000000000        -5.621977355712257E-020
  -7.72000000000000        -7.147775333203624E-020
  -7.53000000000000        -2.135731314176700E-020
  -7.34000000000000         4.558053029501468E-020
  -7.15000000000001         6.375161251735924E-020
  -6.95999999999999         1.357028385117696E-020
  -6.77000000000000        -5.943246243515531E-020
  -6.58000000000000        -8.765929217477195E-020
  -6.39000000000000        -4.560787165348549E-020
  -6.20000000000000         2.601693244455962E-020
  -6.01000000000001         5.921804793793203E-020
  -5.81999999999999         2.352796761853992E-020
  -5.63000000000000        -4.511633429772771E-020
  -5.44000000000000        -7.896353125113774E-020
  -5.25000000000000        -4.335934168364698E-020
  -5.06000000000000         3.009442760915627E-020
  -4.87000000000000         7.375040022306150E-020
  -4.67999999999999         4.852622205931289E-020
  -4.48999999999999        -1.884828849180263E-020
  -4.30000000000000        -6.152144394013023E-020
  -4.11000000000000        -3.660517843215355E-020
  -3.92000000000000         3.359381526344412E-020
  -3.73000000000000         8.266598163450005E-020
  -3.53999999999999         6.343118628143111E-020
  -3.34999999999999        -6.967272936198939E-021
  -3.16000000000000        -6.325861190311486E-020
  -2.97000000000000        -5.403489123250058E-020
  -2.78000000000000         9.634157982306572E-021
  -2.59000000000000         6.528148849895044E-020
  -2.40000000000001         5.910479794912692E-020
  -2.20999999999999        -2.473589672423443E-021
  -2.02000000000000        -5.907502965274585E-020
  -1.83000000000000        -5.445885526326538E-020
  -1.64000000000000         9.158652155922521E-021
  -1.45000000000000         7.257345311080864E-020
  -1.26000000000001         7.555036027660307E-020
  -1.06999999999999         1.391899362911259E-020
 -0.879999999999995        -5.663766862982280E-020
 -0.689999999999998        -7.367549747656330E-020
 -0.500000000000000        -2.722828718682018E-020
 -0.310000000000002         3.139806267041710E-020
 -0.120000000000005         3.959505595394135E-020
  7.000000000000739E-002   -1.575018861516089E-020
  0.260000000000005        -8.492747292761385E-020
  0.450000000000003        -1.024294948489217E-019
  0.640000000000001        -4.950329698123978E-020
  0.829999999999998         2.750399665584184E-020
   1.02000000000000         6.065039655107839E-020
   1.21000000000001         2.441309944972014E-020
   1.40000000000001        -4.077085842032202E-020
   1.59000000000000        -6.783215373897269E-020
   1.78000000000000        -2.760216999656323E-020
   1.97000000000000         4.316366361062880E-020
   2.16000000000000         7.700130558111550E-020
   2.34999999999999         4.045650804727727E-020
   2.54000000000001        -3.356758086393459E-020
   2.73000000000000        -7.678292033134963E-020
   2.92000000000000        -5.033069681454837E-020
   3.11000000000000         1.840023639677004E-020
   3.30000000000000         6.215400955431631E-020
   3.48999999999999         3.823371723272781E-020
   3.68000000000001        -3.059398761405004E-020
   3.87000000000000        -7.781373692403010E-020
   4.06000000000000        -5.673281345019382E-020
   4.25000000000000         1.480489798020187E-020
   4.44000000000000         7.122462208425269E-020
   4.63000000000000         6.151192526598729E-020
   4.82000000000001        -2.416495393916807E-021
   5.01000000000001        -5.740765441703142E-020
   5.20000000000000        -4.966095053240736E-020
   5.39000000000000         1.368371405748928E-020
   5.58000000000000         7.127203327703893E-020
   5.77000000000000         6.614904036951522E-020
   5.96000000000001         2.682289876414357E-022
   6.15000000000001        -6.712576177421461E-020
   6.34000000000000        -7.566242013901743E-020
   6.53000000000000        -2.096272956612977E-020