  -105.000000000000         0.000000000000000E+000
  -104.810000000000        -1.932357137347126E-020
  -104.620000000000        -5.328338930325135E-020
  -104.430000000000        -9.408039848710137E-020
  -104.240000000000        -1.329892257070080E-019
  -104.050000000000        -1.627872501419776E-019
  -103.860000000000        -1.797277272457588E-019
  -103.670000000000        -1.844900086834073E-019
  -103.480000000000        -1.818373601571660E-019
  -103.290000000000        -1.790886749416609E-019
  -103.100000000000        -1.838547805130576E-019
  -102.910000000000        -2.017024512155090E-019
  -102.720000000000        -2.344281265148572E-019
  -102.530000000000        -2.794441498300981E-019
  -102.340000000000        -3.304561227242657E-019
  -102.150000000000        -3.792350078757940E-019
  -101.960000000000        -4.179699510716863E-019
  -101.770000000000        -4.415186650354920E-019
  -101.580000000000        -4.489005311319009E-019
  -101.390000000000        -4.435958681680839E-019
  -101.200000000000        -4.325606914314094E-019
  -101.010000000000        -4.242396263213127E-019
  -100.820000000000        -4.261514534560890E-019
  -100.630000000000        -4.427463568529332E-019
  -100.440000000000        -4.741546483746298E-019
  -100.250000000000        -5.161870370054954E-019
  -100.060000000000        -5.615829273119423E-019
  -99.8700000000000        -6.021420401550538E-019
  -99.6800000000000        -6.311201617709193E-019
  -99.4900000000000        -6.451946115463474E-019
  -99.3000000000000        -6.454302119419541E-019
  -99.1100000000000        -6.369662492967067E-019
  -98.9200000000000        -6.275158360792957E-019
  -98.7300000000000        -6.251139364815927E-019
  -98.5400000000000        -6.357689269015336E-019
  -98.3500000000000        -6.617010221670063E-019
  -98.1600000000000        -7.006802540296238E-019
  -97.9700000000000        -7.466563483636402E-019
  -97.7800000000000        -7.914968199323213E-019
  -97.5900000000000        -8.273281641663811E-019
  -97.4000000000000        -8.488011950744633E-019
  -97.2100000000000        -8.546244963189686E-019
  -97.0200000000000        -8.479222934563980E-019
  -96.8300000000000        -8.353135963954166E-019
  -96.6400000000000        -8.249799377080737E-019
  -96.4500000000000        -8.242822385470916E-019
  -96.2600000000000        -8.376183665172001E-019
  -96.0700000000000        -8.651434991344218E-019
  -95.8800000000000        -9.027248231788268E-019
  -95.6900000000000        -9.431429004972818E-019
  -95.5000000000000        -9.781894907869677E-019
  -95.3100000000000        -1.001051975730696E-018
  -95.1200000000000        -1.008292802836700E-018
  -94.9300000000000        -1.000851125892902E-018
  -94.7400000000000        -9.837778510408278E-019
  -94.5500000000000        -9.647821378817977E-019
  -94.3600000000000        -9.520110885592846E-019
  -94.1700000000000        -9.517060229383264E-019
  -93.9800000000000        -9.664145894249933E-019
  -93.7900000000000        -9.942769971578189E-019
  -93.6000000000000        -1.029592505443127E-018
  -93.4100000000000        -1.064499446759250E-018
  -93.2200000000000        -1.091277730141971E-018
  -93.0300000000000        -1.104602126330496E-018
  -92.8400000000000        -1.103090329206950E-018
  -92.6500000000000        -1.089696665495251E-018
  -92.4600000000000        -1.070839194646156E-018
  -92.2700000000000        -1.054516118614927E-018
  -92.0800000000000        -1.047960297749433E-018
  -91.8900000000000        -1.055514329490174E-018
  -91.7000000000000        -1.077344833797245E-018
  -91.5100000000000        -1.109371322635120E-018
  -91.3200000000000        -1.144432228332706E-018
  -91.1300000000000        -1.174350532078642E-018
  -90.9400000000000        -1.192298850349888E-018
  -90.7500000000000        -1.194775918953661E-018
  -90.5600000000000        -1.182619611540009E-018
  -90.3700000000000        -1.160762867875078E-018
  -90.1800000000000        -1.136805072246615E-018
  -89.9900000000000        -1.118815091576258E-018
  -89.8000000000000        -1.113003907619336E-018
  -89.6100000000000        -1.121941195465092E-018
  -89.4200000000000        -1.143831453925691E-018
  -89.2300000000000        -1.173057777836771E-018
  -89.0400000000000        -1.201834086890689E-018
  -88.8500000000000        -1.222485312515283E-018
  -88.6600000000000        -1.229692506491231E-018
  -88.4700000000000        -1.222049858297636E-018
  -88.2800000000000        -1.202481152773193E-018
  -88.0900000000000        -1.177395615552440E-018
  -87.9000000000000        -1.154829901057234E-018
  -87.7100000000000        -1.142117417804166E-018
  -87.5200000000000        -1.143762879324867E-018
  -87.3300000000000        -1.160139289980510E-018
  -87.1400000000000        -1.187384800816240E-018
  -86.9500000000000        -1.218528534155551E-018
  -86.7600000000000        -1.245518333631300E-018
  -86.5700000000000        -1.261561528014201E-018
  -86.3800000000000        -1.263098178566868E-018
  -86.1900000000000        -1.250832826546496E-018
  -86.0000000000000        -1.229525008525667E-018
  -85.8100000000000        -1.206600283528268E-018
  -85.6200000000000        -1.189986667035545E-018
  -85.4300000000000        -1.185806475112497E-018
  -85.2400000000000        -1.196594889803402E-018
  -85.0500000000000        -1.220562113622174E-018
  -84.8600000000000        -1.252111963493515E-018
  -84.6700000000000        -1.283465401078526E-018
  -84.4800000000000        -1.306917591889167E-018
  -84.2900000000000        -1.317073118321741E-018
  -84.1000000000000        -1.312409616377937E-018
  -83.9100000000000        -1.295714818216088E-018
  -83.7200000000000        -1.273269596765703E-018
  -83.5300000000000        -1.253014876321119E-018
  -83.3400000000000        -1.242236846006737E-018
  -83.1500000000000        -1.245445648322398E-018
  -82.9600000000000        -1.263065655136297E-018
  -82.7700000000000        -1.291317704200641E-018
  -82.5800000000000        -1.323326062951439E-018
  -82.3900000000000        -1.351127172895111E-018
  -82.2000000000000        -1.367996036345734E-018
  -82.0100000000000        -1.370414382932854E-018
  -81.8200000000000        -1.359108587356865E-018
  -81.6300000000000        -1.338854433357312E-018
  -81.4400000000000        -1.317102902342940E-018
  -81.2500000000000        -1.301823793354327E-018
  -81.0600000000000        -1.299192676345348E-018
  -80.8700000000000        -1.311793637595623E-018
  -80.6800000000000        -1.337860929887949E-018
  -80.4900000000000        -1.371780671487213E-018
  -80.3000000000000        -1.405707385839970E-018
  -80.1100000000000        -1.431826241678976E-018
  -79.9200000000000        -1.444604889500394E-018
  -79.7300000000000        -1.442382804327598E-018
  -79.5400000000000        -1.427838585353799E-018
  -79.3500000000000        -1.407200380329328E-018
  -79.1600000000000        -1.388428524605672E-018
  -78.9700000000000        -1.378898007774003E-018
  -78.7800000000000        -1.383254226998015E-018
  -78.5900000000000        -1.402065446239386E-018
  -78.4000000000000        -1.431663895754137E-018
  -78.2100000000000        -1.465221584444623E-018
  -78.0200000000000        -1.494747026274655E-018
  -77.8300000000000        -1.513420803720223E-018
  -77.6400000000000        -1.517590169087229E-018
  -77.4500000000000        -1.507843100542718E-018
  -77.2600000000000        -1.488849565285969E-018
  -77.0700000000000        -1.468014756371062E-018
  -76.8800000000000        -1.453333474529008E-018
  -76.6900000000000        -1.451067054719265E-018
  -76.5000000000000        -1.463916752326949E-018
  -76.3100000000000        -1.490225219026951E-018
  -76.1200000000000        -1.524441106985445E-018
  -75.9300000000000        -1.558715290081957E-018
  -75.7400000000000        -1.585167072932197E-018
  -75.5500000000000        -1.598162967246836E-018
  -75.3600000000000        -1.595946905063805E-018
  -75.1700000000000        -1.581148996088926E-018
  -74.9800000000000        -1.560024797260044E-018
  -74.7900000000000        -1.540644900673651E-018
  -74.6000000000000        -1.530558807139489E-018
  -74.4100000000000        -1.534609009266029E-018
  -74.2200000000000        -1.553527842574749E-018
  -74.0300000000000        -1.583724365188080E-018
  -73.8400000000000        -1.618325156484948E-018
  -73.6500000000000        -1.649169180139271E-018
  -73.4600000000000        -1.669178750626178E-018
  -73.2700000000000        -1.674418438699054E-018
  -73.0800000000000        -1.665243667078350E-018
  -72.8900000000000        -1.646204404937316E-018
  -72.7000000000000        -1.624730655682445E-018
  -72.5100000000000        -1.608980394192200E-018
  -72.3200000000000        -1.605473599820438E-018
  -72.1300000000000        -1.617197677719032E-018
  -71.9400000000000        -1.642733213062344E-018
  -71.7500000000000        -1.676654273024494E-018
  -71.5600000000000        -1.711088645081335E-018
  -71.3700000000000        -1.737987102553169E-018
  -71.1800000000000        -1.751445173687313E-018
  -70.9900000000000        -1.749405705258662E-018
  -70.8000000000000        -1.734249975301456E-018
  -70.6100000000000        -1.712107381435661E-018
  -70.4200000000000        -1.691085068408296E-018
  -70.2300000000000        -1.678930724392973E-018
  -70.0400000000000        -1.680804083455264E-018
  -69.8500000000000        -1.697799946631303E-018
  -69.6600000000000        -1.726647842828491E-018
  -69.4700000000000        -1.760673072576010E-018
  -69.2800000000000        -1.791738942434459E-018
  -69.0900000000000        -1.812606147924561E-018
  -68.9000000000000        -1.819024272671893E-018
  -68.7100000000000        -1.810947637738050E-018
  -68.5200000000000        -1.792522568888461E-018
  -68.3300000000000        -1.770852145427151E-018
  -68.1400000000000        -1.753901468764287E-018
  -67.9500000000000        -1.748156218396020E-018
  -67.7600000000000        -1.756718015626304E-018
  -67.5700000000000        -1.778392363237072E-018
  -67.3800000000000        -1.808035695916916E-018
  -67.1900000000000        -1.838061712862042E-018
  -67.0000000000000        -1.860670610544799E-018
  -66.8100000000000        -1.870154571214076E-018
  -66.6200000000000        -1.864608416987608E-018
  -66.4300000000000        -1.846544181389181E-018
  -66.2400000000000        -1.822225815793265E-018
  -66.0500000000000        -1.799913148134361E-018
  -65.8600000000000        -1.787522305046638E-018
  -65.6700000000000        -1.790379865777525E-018
  -65.4800000000000        -1.809720483838153E-018
  -65.2900000000000        -1.842360030232107E-018
  -65.1000000000000        -1.881632738174881E-018
  -64.9100000000000        -1.919314087847263E-018
  -64.7200000000000        -1.947968635510944E-018
  -64.5300000000000        -1.963043049765660E-018
  -64.3400000000000        -1.964101549018605E-018
  -64.1500000000000        -1.954851650542988E-018
  -63.9600000000000        -1.941960117336717E-018
  -63.7700000000000        -1.933009524164739E-018
  -63.5800000000000        -1.934193973127705E-018
  -63.3900000000000        -1.948427480106785E-018
  -63.2000000000000        -1.974418001277800E-018
  -63.0100000000000        -2.006977824823164E-018
  -62.8200000000000        -2.038480341119924E-018
  -62.6300000000000        -2.061040609838038E-018
  -62.4400000000000        -2.068788436897044E-018
  -62.2500000000000        -2.059576494262478E-018
  -62.0600000000000        -2.035629607974659E-018
  -61.8700000000000        -2.002947534368567E-018
  -61.6800000000000        -1.969633232291871E-018
  -61.4900000000000        -1.943628131791731E-018
  -61.3000000000000        -1.930507087484505E-018
  -61.1100000000000        -1.931968980602117E-018
  -60.9200000000000        -1.945457427287240E-018
  -60.7300000000000        -1.965017579348711E-018
  -60.5400000000000        -1.983135769023260E-018
  -60.3500000000000        -1.993023386622523E-018
  -60.1600000000000        -1.990677534343562E-018
  -59.9700000000000        -1.976116447787355E-018
  -59.7800000000000        -1.953428482633177E-018
  -59.5900000000000        -1.929618866826874E-018
  -59.4000000000000        -1.912588085297874E-018
  -59.2100000000000        -1.908829263751819E-018
  -59.0200000000000        -1.921515604840883E-018
  -58.8300000000000        -1.949537047898722E-018
  -58.6400000000000        -1.987769832925696E-018
  -58.4500000000000        -2.028504172004295E-018
  -58.2600000000000        -2.063618001588496E-018
  -58.0700000000000        -2.086867014417406E-018
  -57.8800000000000        -2.095627471720439E-018
  -57.6900000000000        -2.091588729678055E-018
  -57.5000000000000        -2.080198250745677E-018
  -57.3100000000000        -2.069022931494587E-018
  -57.1200000000000        -2.065503433505331E-018
  -56.9300000000000        -2.074753302237051E-018
  -56.7400000000000        -2.098040609001624E-018
  -56.5500000000000        -2.132390828489219E-018
  -56.3600000000000        -2.171424698698661E-018
  -56.1700000000000        -2.207187763434643E-018
  -55.9800000000000        -2.232441051480406E-018
  -55.7900000000000        -2.242748656159278E-018
  -55.6000000000000        -2.237758150246473E-018
  -55.4100000000000        -2.221305210263203E-018
  -55.2200000000000        -2.200313902928735E-018
  -55.0300000000000        -2.182810738620263E-018
  -54.8400000000000        -2.175625552007467E-018
  -54.6500000000000        -2.182442042397451E-018
  -54.4600000000000        -2.202759061639870E-018
  -54.2700000000000        -2.232060835260732E-018
  -54.0800000000000        -2.263146217926334E-018
  -53.8900000000000        -2.288232282422755E-018
  -53.7000000000000        -2.301222219564476E-018
  -53.5100000000000        -2.299479299070728E-018
  -53.3200000000000        -2.284592918495161E-018
  -53.1300000000000        -2.261916317465599E-018
  -52.9400000000000        -2.239012114933392E-018
  -52.7500000000000        -2.223458457676031E-018
  -52.5600000000000        -2.220653227042020E-018
  -52.3700000000000        -2.232252418395305E-018
  -52.1800000000000        -2.255693352235046E-018
  -51.9900000000000        -2.284939298664567E-018
  -51.8000000000000        -2.312229395425789E-018
  -51.6100000000000        -2.330326607148097E-018
  -51.4200000000000        -2.334611562887953E-018
  -51.2300000000000        -2.324414856272872E-018
  -51.0400000000000        -2.303201958373327E-018
  -50.8500000000000        -2.277558624268949E-018
  -50.6600000000000        -2.255273747413735E-018
  -50.4700000000000        -2.243078897281455E-018
  -50.2800000000000        -2.244701882149308E-018
  -50.0900000000000        -2.259797890390010E-018
  -49.9000000000000        -2.284065618773488E-018
  -49.7100000000000        -2.310512486880928E-018
  -49.5200000000000        -2.331501168856998E-018
  -49.3300000000000        -2.340984507893517E-018
  -49.1400000000000        -2.336281967353813E-018
  -48.9500000000000        -2.318883054558625E-018
  -48.7600000000000        -2.294043897324690E-018
  -48.5700000000000        -2.269292656811688E-018
  -48.3800000000000        -2.252276603056155E-018
  -48.1900000000000        -2.248575004848384E-018
  -48.0000000000000        -2.260111396641171E-018
  -47.8100000000000        -2.284624219510870E-018
  -47.6200000000000        -2.316347082158201E-018
  -47.4300000000000        -2.347698272256200E-018
  -47.2400000000000        -2.371486714034460E-018
  -47.0500000000000        -2.382993368755199E-018
  -46.8600000000000        -2.381324345098974E-018
  -46.6700000000000        -2.369643122341282E-018
  -46.4800000000000        -2.354214801751451E-018
  -46.2900000000000        -2.342541741788454E-018
  -46.1000000000000        -2.341135182521082E-018
  -45.9100000000000        -2.353573438524914E-018
  -45.7200000000000        -2.379413903629490E-018
  -45.5300000000000        -2.414277559695464E-018
  -45.3400000000000        -2.451082141327349E-018
  -45.1500000000000        -2.482064324128203E-018
  -44.9600000000000        -2.501002178601613E-018
  -44.7700000000000        -2.504992662765708E-018
  -44.5800000000000        -2.495269136585527E-018
  -44.3900000000000        -2.476822934779714E-018
  -44.2000000000000        -2.456941268758961E-018
  -44.0100000000000        -2.443089230661027E-018
  -43.8200000000000        -2.440753232810609E-018
  -43.6300000000000        -2.451872436336802E-018
  -43.4400000000000        -2.474312175925121E-018
  -43.2500000000000        -2.502528798717089E-018
  -43.0600000000000        -2.529227288162926E-018
  -42.8700000000000        -2.547524609752880E-018
  -42.6800000000000        -2.552987279773589E-018
  -42.4900000000000        -2.544950839104088E-018
  -42.3000000000000        -2.526738483647762E-018
  -42.1100000000000        -2.504715855609602E-018
  -41.9200000000000        -2.486456966526601E-018
  -41.7300000000000        -2.478554190609566E-018
  -41.5400000000000        -2.484708686274265E-018
  -41.3500000000000        -2.504656858612557E-018
  -41.1600000000000        -2.534245919349340E-018
  -40.9700000000000        -2.566636483412194E-018
  -40.7800000000000        -2.594280803168291E-018
  -40.5900000000000        -2.611099306215487E-018
  -40.4000000000000        -2.614221627446984E-018
  -40.2100000000000        -2.604786876504126E-018
  -40.0200000000000        -2.587573279458427E-018
  -39.8300000000000        -2.569568706541987E-018
  -39.6400000000000        -2.557901205846899E-018
  -39.4500000000000        -2.557733828468750E-018
  -39.2600000000000        -2.570738051233469E-018
  -39.0700000000000        -2.594591887611676E-018
  -38.8800000000000        -2.623650287891625E-018
  -38.6900000000000        -2.650593260169535E-018
  -38.5000000000000        -2.668571181803012E-018
  -38.3100000000000        -2.673220632302475E-018
  -38.1200000000000        -2.663961155435495E-018
  -37.9300000000000        -2.644193462721714E-018
  -37.7400000000000        -2.620340489354065E-018
  -37.5500000000000        -2.600009408301717E-018
  -37.3600000000000        -2.589807495108659E-018
  -37.1700000000000        -2.593444925856147E-018
  -36.9800000000000        -2.610674368810227E-018
  -36.7900000000000        -2.637374478199466E-018
  -36.6000000000000        -2.666753014413528E-018
  -36.4100000000000        -2.691321373510983E-018
  -36.2200000000000        -2.705068539781384E-018
  -36.0300000000000        -2.705203726739869E-018
  -35.8400000000000        -2.692962017307674E-018
  -35.6500000000000        -2.673240266161670E-018
  -35.4600000000000        -2.653170386951980E-018
  -35.2700000000000        -2.640044633610660E-018
  -35.0800000000000        -2.639194841318617E-018
  -34.8900000000000        -2.652441083080888E-018
  -34.7000000000000        -2.677560066531770E-018
  -34.5100000000000        -2.708927841300433E-018
  -34.3200000000000        -2.739151394594025E-018
  -34.1300000000000        -2.761216820085918E-018
  -33.9400000000000        -2.770529657262547E-018
  -33.7500000000000        -2.766251347754694E-018
  -33.5600000000000        -2.751539137570032E-018
  -33.3700000000000        -2.732616395420062E-018
  -33.1800000000000        -2.716941827544965E-018
  -32.9900000000000        -2.711009764511833E-018
  -32.8000000000000        -2.718423049254385E-018
  -32.6100000000000        -2.738802373934473E-018
  -32.4200000000000        -2.767853190450316E-018
  -32.2300000000000        -2.798574999169914E-018
  -32.0400000000000        -2.823266109320678E-018
  -31.8500000000000        -2.835745158126802E-018
  -31.6600000000000        -2.833145556579036E-018
  -31.4700000000000        -2.816760794182915E-018
  -31.2800000000000        -2.791693210391288E-018
  -31.0900000000000        -2.765406640176027E-018
  -30.9000000000000        -2.745602431185385E-018
  -30.7100000000000        -2.738035185831469E-018
  -30.5200000000000        -2.744901352031662E-018
  -30.3300000000000        -2.764265639430095E-018
  -30.1400000000000        -2.790687025347375E-018
  -29.9500000000000        -2.816857011244301E-018
  -29.7600000000000        -2.835769479550444E-018
  -29.5700000000000        -2.842788630628598E-018
  -29.3800000000000        -2.837012530205332E-018
  -29.1900000000000        -2.821535208074520E-018
  -29.0000000000000        -2.802530864507962E-018
  -28.8100000000000        -2.787427262573382E-018
  -28.6200000000000        -2.782701695799222E-018
  -28.4300000000000        -2.791943546130150E-018
  -28.2400000000000        -2.814750093156232E-018
  -28.0500000000000        -2.846780100092011E-018
  -27.8600000000000        -2.880953319148053E-018
  -27.6700000000000        -2.909451055549439E-018
  -27.4800000000000        -2.925940493734863E-018
  -27.2900000000000        -2.927380990583523E-018
  -27.1000000000000        -2.914891253002701E-018
  -26.9100000000000        -2.893426657352509E-018
  -26.7200000000000        -2.870359190109976E-018
  -26.5300000000000        -2.853370392692486E-018
  -26.3400000000000        -2.848267147588937E-018
  -26.1500000000000        -2.857352121164512E-018
  -25.9600000000000        -2.878819031490886E-018
  -25.7700000000000        -2.907344667605610E-018
  -25.5800000000000        -2.935700848775641E-018
  -25.3900000000000        -2.956912294997344E-018
  -25.2000000000000        -2.966328477639812E-018
  -25.0100000000000        -2.963004226924734E-018
  -24.8200000000000        -2.949985459812739E-018
  -24.6300000000000        -2.933414316102810E-018
  -24.4400000000000        -2.920711759102333E-018
  -24.2500000000000        -2.918366001732546E-018
  -24.0600000000000        -2.929972386455068E-018
  -23.8700000000000        -2.955099867741221E-018
  -23.6800000000000        -2.989321053805279E-018
  -23.4900000000000        -3.025404867602261E-018
  -23.3000000000000        -3.055331172529490E-018
  -23.1100000000000        -3.072545817647721E-018
  -22.9200000000000        -3.073804301039702E-018
  -22.7300000000000        -3.060072394032967E-018
  -22.5400000000000        -3.036225965748376E-018
  -22.3500000000000        -3.009639716682470E-018
  -22.1600000000000        -2.988075051302643E-018
  -21.9700000000000        -2.977478419653631E-018
  -21.7800000000000        -2.980325579449590E-018
  -21.5900000000000        -2.994988054323737E-018
  -21.4000000000000        -3.016301540700402E-018
  -21.2100000000000        -3.037167320694818E-018
  -21.0200000000000        -3.050717552236069E-018
  -20.8300000000000        -3.052410946282918E-018
  -20.6400000000000        -3.041445177329161E-018
  -20.4500000000000        -3.021071214440753E-018
  -20.2600000000000        -2.997714551247808E-018
  -20.0700000000000        -2.979155305202624E-018
  -19.8800000000000        -2.972292662467823E-018
  -19.6900000000000        -2.981140825611729E-018
  -19.5000000000000        -3.005638319674906E-018
  -19.3100000000000        -3.041618165852159E-018
  -19.1200000000000        -3.081950722276539E-018
  -18.9300000000000        -3.118531751501522E-018
  -18.7400000000000        -3.144543406549728E-018
  -18.5500000000000        -3.156335687924263E-018
  -18.3600000000000        -3.154384931629279E-018
  -18.1700000000000        -3.143053882842405E-018
  -17.9800000000000        -3.129226263039286E-018
  -17.7900000000000        -3.120214981056604E-018
  -17.6000000000000        -3.121553565713026E-018
  -17.4100000000000        -3.135315246239947E-018
  -17.2200000000000        -3.159452044385639E-018
  -17.0300000000000        -3.188349799310856E-018
  -16.8400000000000        -3.214440857157309E-018
  -16.6500000000000        -3.230407725999141E-018
  -16.4600000000000        -3.231337079018359E-018
  -16.2700000000000        -3.216195070010135E-018
  -16.0800000000000        -3.188191126632485E-018
  -15.8900000000000        -3.153921666353234E-018
  -15.7000000000000        -3.121540658011527E-018
  -15.5100000000000        -3.098485865160775E-018
  -15.3200000000000        -3.089417401755647E-018
  -15.1300000000000        -3.094962751684536E-018
  -14.9400000000000        -3.111627482213413E-018
  -14.7500000000000        -3.132892431701537E-018
  -14.5600000000000        -3.151175437793224E-018
  -14.3700000000000        -3.160086951880229E-018
  -14.1800000000000        -3.156324537784635E-018
  -13.9900000000000        -3.140656404799677E-018
  -13.8000000000000        -3.117709737789704E-018
  -13.6100000000000        -3.094627933274779E-018
  -13.4200000000000        -3.078989387117612E-018
  -13.2300000000000        -3.076593896828149E-018
  -13.0400000000000        -3.089759716952552E-018
  -12.8500000000000        -3.116624388235545E-018
  -12.6600000000000        -3.151650237855654E-018
  -12.4700000000000        -3.187187082074953E-018
  -12.2800000000000        -3.215640542588998E-018
  -12.0900000000000        -3.231620483195547E-018
  -11.9000000000000        -3.233449816687226E-018
  -11.7100000000000        -3.223598357416205E-018
  -11.5200000000000        -3.207916985880237E-018
  -11.3300000000000        -3.193895000706204E-018
  -11.1400000000000        -3.188447870937939E-018
  -10.9500000000000        -3.195880095134537E-018
  -10.7600000000000        -3.216616821208848E-018
  -10.5700000000000        -3.247073090443257E-018
  -10.3800000000000        -3.280697702373133E-018
  -10.1900000000000        -3.309886604086349E-018
  -10.0000000000000        -3.328207640246996E-018
  -9.81000000000000        -3.332288507954968E-018
  -9.62000000000000        -3.322818679655030E-018
  -9.42999999999999        -3.304373439308974E-018
  -9.23999999999999        -3.284109187104873E-018
  -9.05000000000000        -3.269706984663066E-018
  -8.86000000000000        -3.267161174802460E-018
  -8.67000000000000        -3.279055654442050E-018
  -8.48000000000000        -3.303827928900821E-018
  -8.28999999999999        -3.336233442058301E-018
  -8.09999999999999        -3.368873658742298E-018
  -7.91000000000000        -3.394341359893573E-018
  -7.72000000000000        -3.407357021473985E-018
  -7.53000000000000        -3.406275110933607E-018
  -7.34000000000000        -3.393525395292467E-018
  -7.15000000000001        -3.374864817924907E-018
  -6.95999999999999        -3.357660802185672E-018
  -6.77000000000000        -3.348708721442838E-018
  -6.58000000000000        -3.352221630883726E-018
  -6.39000000000000        -3.368578366614230E-018
  -6.20000000000000        -3.394193866329977E-018
  -6.01000000000001        -3.422549386554528E-018
  -5.81999999999999        -3.446083260941355E-018
  -5.63000000000000        -3.458391764972530E-018
  -5.44000000000000        -3.456099309732691E-018
  -5.25000000000000        -3.439854245359338E-018
  -5.06000000000000        -3.414160415685307E-018
  -4.87000000000000        -3.386091260396342E-018
  -4.67999999999999        -3.363257705660463E-018
  -4.48999999999999        -3.351619789263010E-018
  -4.30000000000000        -3.353779194027177E-018
  -4.11000000000000        -3.368251002456653E-018
  -3.92000000000000        -3.389928980751003E-018
  -3.73000000000000        -3.411611222251470E-018
  -3.53999999999999        -3.426142207702705E-018
  -3.34999999999999        -3.428545534495109E-018
  -3.16000000000000        -3.417523577932915E-018
  -2.97000000000000        -3.395884682722124E-018
  -2.78000000000000        -3.369770248541893E-018
  -2.59000000000000        -3.346903297365038E-018
  -2.40000000000001        -3.334365774300006E-018
  -2.20999999999999        -3.336550125913801E-018
  -2.02000000000000        -3.353881326981197E-018
  -1.83000000000000        -3.382683127385517E-018
  -1.64000000000000        -3.416230240049185E-018
  -1.45000000000000        -3.446681938672618E-018
  -1.26000000000001        -3.467334334988953E-018
  -1.06999999999999        -3.474535497987523E-018
 -0.879999999999995        -3.468706301694495E-018
 -0.689999999999998        -3.454170911661322E-018
 -0.500000000000000        -3.437848307896098E-018
 -0.310000000000002        -3.427188234280917E-018
 -0.120000000000005        -3.427953638943520E-018
  7.000000000000739E-002   -3.442494913957040E-018
  0.260000000000005        -3.469019006671341E-018
  0.450000000000003        -3.502069265356189E-018
  0.640000000000001        -3.534080576533122E-018
  0.829999999999998        -3.557561035822640E-018
   1.02000000000000        -3.567268159860759E-018
   1.21000000000001        -3.561746925092423E-018
   1.40000000000001        -3.543779062513596E-018
   1.59000000000000        -3.519607954261445E-018
   1.78000000000000        -3.497160402244064E-018
   1.97000000000000        -3.483778730445804E-018
   2.16000000000000        -3.484118330146774E-018
   2.34999999999999        -3.498818593525795E-018
   2.54000000000001        -3.524333447169915E-018
   2.73000000000000        -3.553972735478569E-018
   2.92000000000000        -3.579854023236402E-018
   3.11000000000000        -3.595199961955081E-018
   3.30000000000000        -3.596315242076357E-018
   3.48999999999999        -3.583667020536710E-018
   3.68000000000001        -3.561750264318242E-018
   3.87000000000000        -3.537773700500939E-018
   4.06000000000000        -3.519548404938120E-018
   4.25000000000000        -3.513195009683684E-018
   4.44000000000000        -3.521339341068412E-018
   4.63000000000000        -3.542325805037662E-018
   4.82000000000001        -3.570682061137091E-018
   5.01000000000001        -3.598702389457922E-018
   5.20000000000000        -3.618689857467098E-018
   5.39000000000000        -3.625205544241029E-018
   5.58000000000000        -3.616670071683169E-018
   5.77000000000000        -3.595848666528335E-018
   5.96000000000001        -3.569074584823172E-018
   6.15000000000001        -3.544433562659985E-018
   6.34000000000000        -3.529434613371876E-018
   6.53000000000000        -3.528841498640214E-018