  -105.000000000000        -5.352789854147161E-019
  -104.810000000000        -4.054361926955357E-019
  -104.620000000000        -1.893958796141262E-019
  -104.430000000000         5.230420952752021E-020
  -104.240000000000         2.523768084470057E-019
  -104.050000000000         3.561647460163016E-019
  -103.860000000000         3.373461403360882E-019
  -103.670000000000         2.053997219913994E-019
  -103.480000000000         2.660296101499775E-021
  -103.290000000000        -2.081659497756801E-019
  -103.100000000000        -3.623702252369680E-019
  -102.910000000000        -4.121330913267807E-019
  -102.720000000000        -3.404528536258393E-019
  -102.530000000000        -1.660927861198531E-019
  -102.340000000000         6.185838622269146E-020
  -102.150000000000         2.782255389372979E-019
  -101.960000000000         4.206711698638841E-019
  -101.770000000000         4.478351209805241E-019
  -101.580000000000         3.514273977901938E-019
  -101.390000000000         1.587399937079542E-019
  -101.200000000000        -7.518314755062913E-020
  -101.010000000000        -2.834596189715380E-019
  -100.820000000000        -4.067334144617262E-019
  -100.630000000000        -4.103431613532535E-019
  -100.440000000000        -2.942963188135373E-019
  -100.250000000000        -9.317179156735341E-020
  -100.060000000000         1.339827552170516E-019
  -99.8700000000000         3.208030810871493E-019
  -99.6800000000000         4.128440953029598E-019
  -99.4900000000000         3.833476282499097E-019
  -99.3000000000000         2.409851257854247E-019
  -99.1100000000000         2.732550061395331E-020
  -98.9200000000000        -1.952496847564395E-019
  -98.7300000000000        -3.616867040898752E-019
  -98.5400000000000        -4.231884998762269E-019
  -98.3500000000000        -3.614165262366863E-019
  -98.1600000000000        -1.938189050249129E-019
  -97.9700000000000         3.145769433063067E-020
  -97.7800000000000         2.495603139784236E-019
  -97.5900000000000         3.977372112459208E-019
  -97.4000000000000         4.335105169965705E-019
  -97.2100000000000         3.469668727721966E-019
  -97.0200000000000         1.636147977399223E-019
  -96.8300000000000        -6.302045356341052E-020
  -96.6400000000000        -2.669240866027794E-019
  -96.4500000000000        -3.887486739914364E-019
  -96.2600000000000        -3.930472201416368E-019
  -96.0700000000000        -2.785648594787553E-019
  -95.8800000000000        -7.858042310387365E-020
  -95.6900000000000         1.487946545365195E-019
  -95.5000000000000         3.375098433783469E-019
  -95.3100000000000         4.327329040920804E-019
  -95.1200000000000         4.067175637064083E-019
  -94.9300000000000         2.668032661572456E-019
  -94.7400000000000         5.325313869685215E-020
  -94.5500000000000        -1.724283611223627E-019
  -94.3600000000000        -3.453181080763136E-019
  -94.1700000000000        -4.158900860837993E-019
  -93.9800000000000        -3.643723336886110E-019
  -93.7900000000000        -2.064570790161432E-019
  -93.6000000000000         1.131764457578347E-020
  -93.4100000000000         2.251705798726240E-019
  -93.2200000000000         3.726838557949084E-019
  -93.0300000000000         4.109748839908729E-019
  -92.8400000000000         3.291375786192262E-019
  -92.6500000000000         1.513519982657833E-019
  -92.4600000000000        -7.020484260015318E-020
  -92.2700000000000        -2.705610849233967E-019
  -92.0800000000000        -3.908546428320001E-019
  -91.8900000000000        -3.954701541919799E-019
  -91.7000000000000        -2.824372446205834E-019
  -91.5100000000000        -8.405586869009356E-020
  -91.3200000000000         1.424543476911498E-019
  -91.1300000000000         3.315785450052765E-019
  -90.9400000000000         4.285664727831962E-019
  -90.7500000000000         4.053566763829321E-019
  -90.5600000000000         2.687101454648048E-019
  -90.3700000000000         5.820088541641957E-020
  -90.1800000000000        -1.653134337425818E-019
  -89.9900000000000        -3.373627898458313E-019
  -89.8000000000000        -4.085449252819409E-019
  -89.6100000000000        -3.588080502726635E-019
  -89.4200000000000        -2.032151094315847E-019
  -89.2300000000000         1.246578551693020E-020
  -89.0400000000000         2.250715631391847E-019
  -88.8500000000000         3.724108489929628E-019
  -88.6600000000000         4.113529686853832E-019
  -88.4700000000000         3.303616989154728E-019
  -88.2800000000000         1.528208226124735E-019
  -88.0900000000000        -6.980118353317678E-020
  -87.9000000000000        -2.729426936880239E-019
  -87.7100000000000        -3.977270020434747E-019
  -87.5200000000000        -4.080595328238640E-019
  -87.3300000000000        -3.010831074816382E-019
  -87.1400000000000        -1.079840028692689E-019
  -86.9500000000000         1.150674200432662E-019
  -86.7600000000000         3.032300579736212E-019
  -86.5700000000000         4.018433193970462E-019
  -86.3800000000000         3.823269410814242E-019
  -86.1900000000000         2.504838227273640E-019
  -86.0000000000000         4.478966694096617E-020
  -85.8100000000000        -1.748229502680213E-019
  -85.6200000000000        -3.444161930657948E-019
  -85.4300000000000        -4.146428424917625E-019
  -85.2400000000000        -3.650639647608660E-019
  -85.0500000000000        -2.100450430074474E-019
  -84.8600000000000         5.440783554856860E-021
  -84.6700000000000         2.188711017830744E-019
  -84.4800000000000         3.683286531320954E-019
  -84.2900000000000         4.104994010076678E-019
  -84.1000000000000         3.332769035469681E-019
  -83.9100000000000         1.592915038375229E-019
  -83.7200000000000        -6.067869822157043E-020
  -83.5300000000000        -2.625121919724029E-019
  -83.3400000000000        -3.874468872587771E-019
  -83.1500000000000        -3.992023406714373E-019
  -82.9600000000000        -2.945164058294858E-019
  -82.7700000000000        -1.040528999017715E-019
  -82.5800000000000         1.165442882860182E-019
  -82.3900000000000         3.028323128268496E-019
  -82.2000000000000         4.002913258588088E-019
  -82.0100000000000         3.801701430224097E-019
  -81.8200000000000         2.478769646416815E-019
  -81.6300000000000         4.147858766810560E-020
  -81.4400000000000        -1.792914688575964E-019
  -81.2500000000000        -3.503598886325270E-019
  -81.0600000000000        -4.219412260181070E-019
  -80.8700000000000        -3.730285607216215E-019
  -80.6800000000000        -2.175193713833536E-019
  -80.4900000000000        -1.931510662999976E-022
  -80.3000000000000         2.162841693560287E-019
  -80.1100000000000         3.695348481326135E-019
  -79.9200000000000         4.155327699228502E-019
  -79.7300000000000         3.413333462881099E-019
  -79.5400000000000         1.688084778579939E-019
  -79.3500000000000        -5.169942661537655E-020
  -79.1600000000000        -2.559927670910630E-019
  -78.9700000000000        -3.846741289662268E-019
  -78.7800000000000        -4.004155129462267E-019
  -78.5900000000000        -2.988152430299214E-019
  -78.4000000000000        -1.096742153943317E-019
  -78.2100000000000         1.116965889322424E-019
  -78.0200000000000         3.006001214533080E-019
  -77.8300000000000         4.017842681042232E-019
  -77.6400000000000         3.854967842525343E-019
  -77.4500000000000         2.561348119733588E-019
  -77.2600000000000         5.100481047527397E-020
  -77.0700000000000        -1.704578136524363E-019
  -76.8800000000000        -3.439019953548590E-019
  -76.6900000000000        -4.187290143331693E-019
  -76.5000000000000        -3.728190884298500E-019
  -76.3100000000000        -2.190421401244208E-019
  -76.1200000000000        -1.614823767837781E-021
  -75.9300000000000         2.166869874313505E-019
  -75.7400000000000         3.727392946149929E-019
  -75.5500000000000         4.213838365005507E-019
  -75.3600000000000         3.485276119625523E-019
  -75.1700000000000         1.752434862605048E-019
  -74.9800000000000        -4.831862167564303E-020
  -74.7900000000000        -2.574460679288180E-019
  -74.6000000000000        -3.915871374155596E-019
  -74.4100000000000        -4.118734399495762E-019
  -74.2200000000000        -3.124013657787191E-019
  -74.0300000000000        -1.220019025910514E-019
  -73.8400000000000         1.040655856660695E-019
  -73.6500000000000         3.001233564381280E-019
  -73.4600000000000         4.091380170091674E-019
  -73.2700000000000         3.992925122875196E-019
  -73.0800000000000         2.732545850506911E-019
  -72.8900000000000         6.743731617279267E-020
  -72.7000000000000        -1.585453674412015E-019
  -72.5100000000000        -3.391542138083414E-019
  -72.3200000000000        -4.219078191234816E-019
  -72.1300000000000        -3.825888488841185E-019
  -71.9400000000000        -2.322860005218562E-019
  -71.7500000000000        -1.421917159809509E-020
  -71.5600000000000         2.087510965376204E-019
  -71.3700000000000         3.723098708501136E-019
  -71.1800000000000         4.292947247311875E-019
  -70.9900000000000         3.633313442812718E-019
  -70.8000000000000         1.935419365260415E-019
  -70.6100000000000        -3.103271020583248E-020
  -70.4200000000000        -2.456501111368860E-019
  -70.2300000000000        -3.885790326209240E-019
  -70.0400000000000        -4.189059311287084E-019
  -69.8500000000000        -3.283111640207791E-019
  -69.6600000000000        -1.434164418374299E-019
  -69.4700000000000         8.197672822914962E-020
  -69.2800000000000         2.825114783475042E-019
  -69.0900000000000         4.002515441210639E-019
  -68.9000000000000         4.015168886752233E-019
  -68.7100000000000         2.866602192727061E-019
  -68.5200000000000         8.989901971526598E-020
  -68.3300000000000        -1.307409085441701E-019
  -68.1400000000000        -3.103996203489687E-019
  -67.9500000000000        -3.963171079931155E-019
  -67.7600000000000        -3.632285423956820E-019
  -67.5700000000000        -2.207475088386372E-019
  -67.3800000000000        -1.060067216849372E-020
  -67.1900000000000         2.054603673786586E-019
  -67.0000000000000         3.635716624232660E-019
  -66.8100000000000         4.163466730123067E-019
  -66.6200000000000         3.467612568409662E-019
  -66.4300000000000         1.732445982684041E-019
  -66.2400000000000        -5.555949964024531E-020
  -66.0500000000000        -2.748427859052191E-019
  -65.8600000000000        -4.223934575793038E-019
  -65.6700000000000        -4.565943858653751E-019
  -65.4800000000000        -3.683913665741045E-019
  -65.2900000000000        -1.837440872249282E-019
  -65.1000000000000         4.408194654822127E-020
  -64.9100000000000         2.500499171385302E-019
  -64.7200000000000         3.761809808577778E-019
  -64.5300000000000         3.882524931238507E-019
  -64.3400000000000         2.855511836166616E-019
  -64.1500000000000         1.008763083283898E-019
  -63.9600000000000        -1.091673139693518E-019
  -63.7700000000000        -2.807490896106487E-019
  -63.5800000000000        -3.614697511388795E-019
  -63.3900000000000        -3.256790634884970E-019
  -63.2000000000000        -1.819751350235286E-019
  -63.0100000000000         2.928828943502865E-020
  -62.8200000000000         2.477076891591372E-019
  -62.6300000000000         4.103169434656286E-019
  -62.4400000000000         4.697997145033405E-019
  -62.2500000000000         4.081701843006921E-019
  -62.0600000000000         2.419719478745862E-019
  -61.8700000000000         1.751325403332259E-020
  -61.6800000000000        -2.024709577993352E-019
  -61.4900000000000        -3.568990635156017E-019
  -61.3000000000000        -4.039594854525765E-019
  -61.1100000000000        -3.331455281859373E-019
  -60.9200000000000        -1.681912846633675E-019
  -60.7300000000000         3.994355642445489E-020
  -60.5400000000000         2.279936862960175E-019
  -60.3500000000000         3.388772819452542E-019
  -60.1600000000000         3.383721406439463E-019
  -59.9700000000000         2.251212908024984E-019
  -59.7800000000000         3.107065518351484E-020
  -59.5900000000000        -1.877793428615682E-019
  -59.4000000000000        -3.676443208571919E-019
  -59.2100000000000        -4.555446713329465E-019
  -59.0200000000000        -4.247950683871628E-019
  -58.8300000000000        -2.828626584247277E-019
  -58.6400000000000        -6.929512608383182E-020
  -58.4500000000000         1.556927837783790E-019
  -58.2600000000000         3.286652840800416E-019
  -58.0700000000000         4.013450284176619E-019
  -57.8800000000000         3.545484583217878E-019
  -57.6900000000000         2.036492213294818E-019
  -57.5000000000000        -5.960101974729412E-021
  -57.3100000000000        -2.120726111311282E-019
  -57.1200000000000        -3.537220698331790E-019
  -56.9300000000000        -3.888486989709363E-019
  -56.7400000000000        -3.064518759840184E-019
  -56.5500000000000        -1.297410172256948E-019
  -56.3600000000000         9.060402973576445E-020
  -56.1700000000000         2.911295482054958E-019
  -55.9800000000000         4.140078494983737E-019
  -55.7900000000000         4.237703765007556E-019
  -55.6000000000000         3.175189493203614E-019
  -55.4100000000000         1.257165471246117E-019
  -55.2200000000000        -9.662446055396268E-020
  -55.0300000000000        -2.858165566668717E-019
  -54.8400000000000        -3.878580887197081E-019
  -54.6500000000000        -3.739758684884716E-019
  -54.4600000000000        -2.488851628377752E-019
  -54.2700000000000        -4.940745276287011E-020
  -54.0800000000000         1.661860988692733E-019
  -53.8900000000000         3.350727799085908E-019
  -53.7000000000000         4.081123998744789E-019
  -53.5100000000000         3.640847668093973E-019
  -53.3200000000000         2.157955804430720E-019
  -53.1300000000000         6.304750765794494E-021
  -52.9400000000000        -2.036162125996166E-019
  -52.7500000000000        -3.531420117271447E-019
  -52.5600000000000        -3.990144594818747E-019
  -52.3700000000000        -3.280261076580799E-019
  -52.1800000000000        -1.608036728470626E-019
  -51.9900000000000         5.417866117169181E-020
  -51.8000000000000         2.546505550945786E-019
  -51.6100000000000         3.826109690429781E-019
  -51.4200000000000         4.011540818542522E-019
  -51.2300000000000         3.051576533092041E-019
  -51.0400000000000         1.227267646768614E-019
  -50.8500000000000        -9.303205676357326E-020
  -50.6600000000000        -2.795021252890384E-019
  -50.4700000000000        -3.827655124690589E-019
  -50.2800000000000        -3.732139438462251E-019
  -50.0900000000000        -2.540642698829802E-019
  -49.9000000000000        -6.036398127317384E-020
  -49.7100000000000         1.511962917276288E-019
  -49.5200000000000         3.187075606524344E-019
  -49.3300000000000         3.929606530809980E-019
  -49.1400000000000         3.517000624787611E-019
  -48.9500000000000         2.061009539818781E-019
  -48.7600000000000        -2.435366230816666E-021
  -48.5700000000000        -2.142711013149231E-019
  -48.3800000000000        -3.688214833174954E-019
  -48.1900000000000        -4.221049861650514E-019
  -48.0000000000000        -3.594579245682053E-019
  -47.8100000000000        -1.997240935631957E-019
  -47.6200000000000         1.029563848561241E-020
  -47.4300000000000         2.094944132892213E-019
  -47.2400000000000         3.402157079645250E-019
  -47.0500000000000         3.649772403591460E-019
  -46.8600000000000         2.773462354976803E-019
  -46.6700000000000         1.037977238819812E-019
  -46.4800000000000        -1.040238400785226E-019
  -46.2900000000000        -2.843906009868242E-019
  -46.1000000000000        -3.835128883990078E-019
  -45.9100000000000        -3.712523296604934E-019
  -45.7200000000000        -2.499498881273947E-019
  -45.5300000000000        -5.376525113323300E-020
  -45.3400000000000         1.612852861781382E-019
  -45.1500000000000         3.336379038073164E-019
  -44.9600000000000         4.140545792053237E-019
  -44.7700000000000         3.798894832210236E-019
  -44.5800000000000         2.416253635908823E-019
  -44.3900000000000         3.976355166042576E-020
  -44.2000000000000        -1.670257042332498E-019
  -44.0100000000000        -3.190038849727068E-019
  -43.8200000000000        -3.727202597399346E-019
  -43.6300000000000        -3.135882565686037E-019
  -43.4400000000000        -1.600244654750152E-019
  -43.2500000000000         4.205355529445153E-020
  -43.0600000000000         2.327193311879053E-019
  -42.8700000000000         3.555305143835654E-019
  -42.6800000000000         3.739365842162684E-019
  -42.4900000000000         2.818812960340071E-019
  -42.3000000000000         1.055477169482865E-019
  -42.1100000000000        -1.042586968188318E-019
  -41.9200000000000        -2.868729408854772E-019
  -41.7300000000000        -3.893981047571998E-019
  -41.5400000000000        -3.820963067476741E-019
  -41.3500000000000        -2.670606204568155E-019
  -41.1600000000000        -7.760397025132787E-020
  -40.9700000000000         1.314749115445611E-019
  -40.7800000000000         2.998841193600908E-019
  -40.5900000000000         3.793956181634274E-019
  -40.4000000000000         3.478413344696860E-019
  -40.2100000000000         2.154805014637580E-019
  -40.0200000000000         2.191068894018508E-020
  -39.8300000000000        -1.755421667964946E-019
  -39.6400000000000        -3.185629727683834E-019
  -39.4500000000000        -3.648642698855271E-019
  -39.2600000000000        -3.005433133929712E-019
  -39.0700000000000        -1.441707452007103E-019
  -38.8800000000000         5.859911362993513E-020
  -38.6900000000000         2.483393530313975E-019
  -38.5000000000000         3.692097267039766E-019
  -38.3100000000000         3.852888467158686E-019
  -38.1200000000000         2.910863115457778E-019
  -37.9300000000000         1.131656690821775E-019
  -37.7400000000000        -9.755934391413188E-020
  -37.5500000000000        -2.805863672933613E-019
  -37.3600000000000        -3.833613279929905E-019
  -37.1700000000000        -3.765100334235936E-019
  -36.9800000000000        -2.623453306137626E-019
  -36.7900000000000        -7.419464888713550E-020
  -36.6000000000000         1.332459035071052E-019
  -36.4100000000000         2.997560339905476E-019
  -36.2200000000000         3.770631388340751E-019
  -36.0300000000000         3.428503155313794E-019
  -35.8400000000000         2.072033715736387E-019
  -35.6500000000000         9.643436667172078E-021
  -35.4600000000000        -1.923580572955373E-019
  -35.2700000000000        -3.400543226945914E-019
  -35.0800000000000        -3.904718574602823E-019
  -34.8900000000000        -3.288848113188878E-019
  -34.7000000000000        -1.730967124038887E-019
  -34.5100000000000         3.169588573602724E-020
  -34.3200000000000         2.259869197146973E-019
  -34.1300000000000         3.532572940516087E-019
  -33.9400000000000         3.764860577418764E-019
  -33.7500000000000         2.890277195792059E-019
  -33.5600000000000         1.166352344961006E-019
  -33.3700000000000        -8.997712672781575E-020
  -33.1800000000000        -2.698754803868786E-019
  -32.9900000000000        -3.696772237030761E-019
  -32.8000000000000        -3.591700813722557E-019
  -32.6100000000000        -2.402075300762756E-019
  -32.4200000000000        -4.628787268020146E-020
  -32.2300000000000         1.670553620175402E-019
  -32.0400000000000         3.382842477739592E-019
  -31.8500000000000         4.176911455371269E-019
  -31.6600000000000         3.818604113117536E-019
  -31.4700000000000         2.405213682966080E-019
  -31.2800000000000         3.376693694275288E-020
  -31.0900000000000        -1.795667929257053E-019
  -30.9000000000000        -3.389740619591801E-019
  -30.7100000000000        -3.998174945737014E-019
  -30.5200000000000        -3.462083434415161E-019
  -30.3300000000000        -1.954874935968882E-019
  -30.1400000000000         6.963989483498933E-021
  -29.9500000000000         2.010392684427358E-019
  -29.7600000000000         3.294547708584507E-019
  -29.5700000000000         3.544390997623210E-019
  -29.3800000000000         2.687319032560839E-019
  -29.1900000000000         9.770142481294030E-020
  -29.0000000000000        -1.080537848193242E-019
  -28.8100000000000        -2.874801983496347E-019
  -28.6200000000000        -3.869090610827299E-019
  -28.4300000000000        -3.757533710568920E-019
  -28.2400000000000        -2.554975044237732E-019
  -28.0500000000000        -5.936875679394507E-020
  -27.8600000000000         1.572155860015380E-019
  -27.6700000000000         3.326398397772912E-019
  -27.4800000000000         4.168681810738462E-019
  -27.2900000000000         3.858790700687587E-019
  -27.1000000000000         2.486110268523370E-019
  -26.9100000000000         4.440087513407069E-020
  -26.7200000000000        -1.683842056797919E-019
  -26.5300000000000        -3.292396762865219E-019
  -26.3400000000000        -3.930254481751588E-019
  -26.1500000000000        -3.429899376952535E-019
  -25.9600000000000        -1.955325703144011E-019
  -25.7700000000000         4.694042789282661E-021
  -25.5800000000000         1.979150955215191E-019
  -25.3900000000000         3.267386033028991E-019
  -25.2000000000000         3.529205916218422E-019
  -25.0100000000000         2.685461605793551E-019
  -24.8200000000000         9.840378387633951E-020
  -24.6300000000000        -1.071630667438585E-019
  -24.4400000000000        -2.868919565288180E-019
  -24.2500000000000        -3.864859305348464E-019
  -24.0600000000000        -3.745456111809341E-019
  -23.8700000000000        -2.519031794433494E-019
  -23.6800000000000        -5.159633609204111E-020
  -23.4900000000000         1.705681127355138E-019
  -23.3000000000000         3.521235404154729E-019
  -23.1100000000000         4.419989397852542E-019
  -22.9200000000000         4.152462714326491E-019
  -22.7300000000000         2.801806448159074E-019
  -22.5400000000000         7.589531250177128E-020
  -22.3500000000000        -1.391020411655235E-019
  -22.1600000000000        -3.038236490531136E-019
  -21.9700000000000        -3.724041951515556E-019
  -21.7800000000000        -3.272940464871534E-019
  -21.5900000000000        -1.842385457761314E-019
  -21.4000000000000         1.240183884343360E-020
  -21.2100000000000         2.026467715557906E-019
  -21.0200000000000         3.284442519225643E-019
  -20.8300000000000         3.506693351967757E-019
  -20.6400000000000         2.606147904335723E-019
  -20.4500000000000         8.262327713398429E-020
  -20.2600000000000        -1.328924417661949E-019
  -20.0700000000000        -3.240056318666083E-019
  -19.8800000000000        -4.352023789115081E-019
  -19.6900000000000        -4.334994714480321E-019
  -19.5000000000000        -3.180706956806991E-019
  -19.3100000000000        -1.205736910561524E-019
  -19.1200000000000         1.039204210359036E-019
  -18.9300000000000         2.927804481101289E-019
  -18.7400000000000         3.938884674147766E-019
  -18.5500000000000         3.806935642525551E-019
  -18.3600000000000         2.598418972822993E-019
  -18.1700000000000         6.915709186271122E-020
  -17.9800000000000        -1.334165601228475E-019
  -17.7900000000000        -2.866999069004376E-019
  -17.6000000000000        -3.441300795151396E-019
  -17.4100000000000        -2.873993800214554E-019
  -17.2200000000000        -1.318824592665684E-019
  -17.0300000000000         7.774784151702940E-020
  -16.8400000000000         2.804484488814101E-019
  -16.6500000000000         4.165516848369893E-019
  -16.4600000000000         4.451900838626796E-019
  -16.2700000000000         3.562862706211278E-019
  -16.0800000000000         1.735600249752352E-019
  -15.8900000000000        -5.231168802072884E-020
  -15.7000000000000        -2.583439194169897E-019
  -15.5100000000000        -3.874329486322314E-019
  -15.3200000000000        -4.048147737955340E-019
  -15.1300000000000        -3.080160831021242E-019
  -14.9400000000000        -1.274298880677407E-019
  -14.7500000000000         8.260231015055468E-020
  -14.5600000000000         2.595981164731583E-019
  -14.3700000000000         3.510783430083680E-019
  -14.1800000000000         3.297983071845333E-019
  -13.9900000000000         2.016214411361601E-019
  -13.8000000000000         3.743421189847835E-021
  -13.6100000000000        -2.061844420432420E-019
  -13.4200000000000        -3.668436528449187E-019
  -13.2300000000000        -4.310612303010024E-019
  -13.0400000000000        -3.794695611797862E-019
  -12.8500000000000        -2.260714220807749E-019
  -12.6600000000000        -1.415497504684851E-020
  -12.4700000000000         1.962156151040355E-019
  -12.2800000000000         3.455268672436395E-019
  -12.0900000000000         3.919835765891704E-019
  -11.9000000000000         3.235676665568394E-019
  -11.7100000000000         1.614934145413740E-019
  -11.5200000000000        -4.596638121691693E-020
  -11.3300000000000        -2.375306206584751E-019
  -11.1400000000000        -3.567688078908666E-019
  -10.9500000000000        -3.685457583854896E-019
  -10.7600000000000        -2.692394227173596E-019
  -10.5700000000000        -8.776572563619328E-020
  -10.3800000000000         1.228728591872746E-019
  -10.1900000000000         3.010489072733321E-019
  -10.0000000000000         3.944645000741429E-019
  -9.81000000000000         3.753655403852935E-019
  -9.62000000000000         2.486263724685969E-019
  -9.42999999999999         5.038814011212251E-020
  -9.23999999999999        -1.623836499250490E-019
  -9.05000000000000        -3.284319274570917E-019
  -8.86000000000000        -4.000080193960416E-019
  -8.67000000000000        -3.567256182598118E-019
  -8.48000000000000        -2.114470553659823E-019
  -8.28999999999999        -6.501482728961222E-021
  -8.09999999999999         1.986846407956721E-019
  -7.91000000000000         3.449318440681683E-019
  -7.72000000000000         3.905144631798476E-019
  -7.53000000000000         3.232078975279700E-019
  -7.34000000000000         1.637357818952817E-019
  -7.15000000000001        -4.034796754364291E-020
  -6.95999999999999        -2.285854569639368E-019
  -6.77000000000000        -3.452905868067746E-019
  -6.58000000000000        -3.557846617621889E-019
  -6.39000000000000        -2.564754566549450E-019
  -6.20000000000000        -7.590084511917143E-020
  -6.01000000000001         1.335635966127722E-019
  -5.81999999999999         3.109520874142204E-019
  -5.63000000000000         4.044587055683014E-019
  -5.44000000000000         3.864988679643001E-019
  -5.25000000000000         2.617386509883966E-019
  -5.06000000000000         6.579849348840656E-020
  -4.87000000000000        -1.450304862350333E-019
  -4.67999999999999        -3.101284858289740E-019
  -4.48999999999999        -3.821972620947619E-019
  -4.30000000000000        -3.410638134435057E-019
  -4.11000000000000        -1.996168937637574E-019
  -3.92000000000000        -1.180943523036968E-022
  -3.73000000000000         1.980957354357855E-019
  -3.53999999999999         3.359462232363344E-019
  -3.34999999999999         3.718915056675346E-019
  -3.16000000000000         2.940980235069105E-019
  -2.97000000000000         1.239761487377991E-019
  -2.78000000000000        -8.995797793272743E-020
  -2.59000000000000        -2.861337427097971E-019
  -2.40000000000001        -4.078081628484288E-019
  -2.20999999999999        -4.195803172742655E-019
  -2.02000000000000        -3.177451339868308E-019
  -1.83000000000000        -1.314490930567130E-019
  -1.64000000000000         8.574554128078786E-020
  -1.45000000000000         2.714488173711194E-019
  -1.26000000000001         3.726103412122827E-019
  -1.06999999999999         3.609517809307561E-019
 -0.879999999999995         2.411688016660510E-019
 -0.689999999999998         4.950730559698644E-020
 -0.500000000000000        -1.568567908600075E-019
 -0.310000000000002        -3.164952431518641E-019
 -0.120000000000005        -3.816030568120330E-019
  7.000000000000739E-002   -3.319340083319320E-019
  0.260000000000005        -1.807802207907877E-019
  0.450000000000003         2.877970936054891E-020
  0.640000000000001         2.363116866319793E-019
  0.829999999999998         3.815328324486631E-019
   1.02000000000000         4.218381940847384E-019
   1.21000000000001         3.447819338085966E-019
   1.40000000000001         1.718350602028181E-019
   1.59000000000000        -4.774394002129648E-020
   1.78000000000000        -2.511324160421567E-019
   1.97000000000000        -3.800906232473263E-019
   2.16000000000000        -3.978023179515706E-019
   2.34999999999999        -2.995731375373451E-019
   2.54000000000001        -1.142502677156435E-019
   2.73000000000000         1.040997382498922E-019
   2.92000000000000         2.918379235222467E-019
   3.11000000000000         3.942010691801909E-019
   3.30000000000000         3.812604338205244E-019
   3.48999999999999         2.567461129867489E-019
   3.68000000000001         5.705838223921749E-020
   3.87000000000000        -1.593149100965598E-019
   4.06000000000000        -3.288615043873006E-019
   4.25000000000000        -4.015990758771214E-019
   4.44000000000000        -3.557377447236063E-019
   4.63000000000000        -2.041493664869353E-019
   4.82000000000001         9.305478631434963E-021
   5.01000000000001         2.225169061401656E-019
   5.20000000000000         3.731795356022969E-019
   5.39000000000000         4.169296213792287E-019
   5.58000000000000         3.403305428524743E-019
   5.77000000000000         1.648940872667586E-019
   5.96000000000001        -5.908752193842770E-020
   6.15000000000001        -2.670934314425849E-019
   6.34000000000000        -3.990535888212412E-019
   6.53000000000000        -4.167512980052403E-019