  -105.000000000000         5.115589904513280E-021
  -104.810000000000         1.410586396011510E-020
  -104.620000000000         1.979054927523103E-020
  -104.430000000000         2.110065964549677E-020
  -104.240000000000         1.818883397474983E-020
  -104.050000000000         1.237310319239985E-020
  -103.860000000000         5.745368670532134E-021
  -103.670000000000         5.584740283205862E-022
  -103.480000000000        -1.429906954679175E-021
  -103.290000000000         5.340649918378577E-022
  -103.100000000000         5.986565136268165E-021
  -102.910000000000         1.338835004570168E-020
  -102.720000000000         2.058066871341200E-020
  -102.530000000000         2.542159510321709E-020
  -102.340000000000         2.641767588729130E-020
  -102.150000000000         2.316749194180549E-020
  -101.960000000000         1.648824489835722E-020
  -101.770000000000         8.188129734702520E-021
  -101.580000000000         5.498193310297848E-022
  -101.390000000000        -4.325613816215825E-021
  -101.200000000000        -5.123985267176893E-021
  -101.010000000000        -1.696377780912182E-021
  -100.820000000000         4.899678140215595E-021
  -100.630000000000         1.270818297751467E-020
  -100.440000000000         1.944201414478043E-020
  -100.250000000000         2.314467522325034E-020
  -100.060000000000         2.275457353361359E-020
  -99.8700000000000         1.840867503460578E-020
  -99.6800000000000         1.139820966151178E-020
  -99.4900000000000         3.789977371381233E-021
  -99.3000000000000        -2.176593989507568E-021
  -99.1100000000000        -4.741923732558776E-021
  -98.9200000000000        -3.139216376957657E-021
  -98.7300000000000         2.181161835402060E-021
  -98.5400000000000         9.681284333944283E-021
  -98.3500000000000         1.718146039770569E-020
  -98.1600000000000         2.249235724008132E-020
  -97.9700000000000         2.404982501667716E-020
  -97.7800000000000         2.136840680587975E-020
  -97.5900000000000         1.518213431675282E-020
  -97.4000000000000         7.231953539410031E-021
  -97.2100000000000        -2.382502108961610E-022
  -97.0200000000000        -5.130908367345223E-021
  -96.8300000000000        -6.101723826193448E-021
  -96.6400000000000        -2.948879926331413E-021
  -96.4500000000000         3.328739934199167E-021
  -96.2600000000000         1.082197445226816E-020
  -96.0700000000000         1.726639764254433E-020
  -95.8800000000000         2.070063884565670E-020
  -95.6900000000000         2.003685480797247E-020
  -95.5000000000000         1.537768258861884E-020
  -95.3100000000000         7.987404216782285E-021
  -95.1200000000000        -7.423326014475476E-023
  -94.9300000000000        -6.548659536916450E-021
  -94.7400000000000        -9.632108844660536E-021
  -94.5500000000000        -8.496954057254116E-021
  -94.3600000000000        -3.529864349475581E-021
  -94.1700000000000         3.782403475189636E-021
  -93.9800000000000         1.128639013376934E-020
  -93.7900000000000         1.678808035543118E-020
  -93.6000000000000         1.868927556907118E-020
  -93.4100000000000         1.644892910816709E-020
  -93.2200000000000         1.073528807165911E-020
  -93.0300000000000         3.225169679858167E-021
  -92.8400000000000        -3.889649595762679E-021
  -92.6500000000000        -8.543349183762542E-021
  -92.4600000000000        -9.396820617982084E-021
  -92.2700000000000        -6.224139238170752E-021
  -92.0800000000000         2.579113435877613E-023
  -91.8900000000000         7.508065302220745E-021
  -91.7000000000000         1.401822387999294E-020
  -91.5100000000000         1.762995085131503E-020
  -91.3200000000000         1.724984515864575E-020
  -91.1300000000000         1.293023260607652E-020
  -90.9400000000000         5.851405878881272E-021
  -90.7500000000000        -2.020044121046358E-021
  -90.5600000000000        -8.497413415159452E-021
  -90.3700000000000        -1.180131061908521E-020
  -90.1800000000000        -1.106803146092536E-020
  -89.9900000000000        -6.593388752872376E-021
  -89.8000000000000         2.570509940894423E-022
  -89.6100000000000         7.444765937641853E-021
  -89.4200000000000         1.284798119424682E-020
  -89.2300000000000         1.487479989574649E-020
  -89.0400000000000         1.292312190022204E-020
  -88.8500000000000         7.554664643948440E-021
  -88.6600000000000         3.326819032479348E-022
  -88.4700000000000        -6.630671107978121E-021
  -88.2800000000000        -1.128777064026163E-020
  -88.0900000000000        -1.225250638907132E-020
  -87.9000000000000        -9.206946992182348E-021
  -87.7100000000000        -2.998819618716339E-021
  -87.5200000000000         4.599404377253092E-021
  -87.3300000000000         1.140157995417362E-020
  -87.1400000000000         1.544222770133991E-020
  -86.9500000000000         1.554948505194836E-020
  -86.7600000000000         1.168858001970978E-020
  -86.5700000000000         4.975151942497514E-021
  -86.3800000000000        -2.645723794365100E-021
  -86.1900000000000        -8.962222074342066E-021
  -86.0000000000000        -1.213671752350003E-020
  -85.8100000000000        -1.123735342441950E-020
  -85.6200000000000        -6.505130574302449E-021
  -85.4300000000000         7.191158419884870E-022
  -85.2400000000000         8.384070612569951E-021
  -85.0500000000000         1.431986074775108E-020
  -84.8600000000000         1.686129551417932E-020
  -84.6700000000000         1.532259125258178E-020
  -84.4800000000000         1.018835791475865E-020
  -84.2900000000000         2.968797132073201E-021
  -84.1000000000000        -4.237913013251067E-021
  -83.9100000000000        -9.351301160131095E-021
  -83.7200000000000        -1.090898150307303E-020
  -83.5300000000000        -8.488253728786027E-021
  -83.3400000000000        -2.826870371717028E-021
  -83.1500000000000         4.392014802658008E-021
  -82.9600000000000         1.102970432308126E-020
  -82.7700000000000         1.511643521320750E-020
  -82.5800000000000         1.542954006683701E-020
  -82.3900000000000         1.185621035871047E-020
  -82.2000000000000         5.434134937867834E-021
  -82.0100000000000        -1.943833438914771E-021
  -81.8200000000000        -8.078541352454135E-021
  -81.6300000000000        -1.110998363733159E-020
  -81.4400000000000        -1.007079917765998E-020
  -81.2500000000000        -5.182592513480814E-021
  -81.0600000000000         2.196727324523115E-021
  -80.8700000000000         9.964027468626982E-021
  -80.6800000000000         1.588800415998976E-020
  -80.4900000000000         1.826896385018725E-020
  -80.3000000000000         1.644243067942612E-020
  -80.1100000000000         1.097418068192677E-020
  -79.9200000000000         3.488292358069399E-021
  -79.7300000000000        -3.818662002073331E-021
  -79.5400000000000        -8.829660681539592E-021
  -79.3500000000000        -1.012961940779025E-020
  -79.1600000000000        -7.414018154138008E-021
  -78.9700000000000        -1.565375470681530E-021
  -78.7800000000000         5.622013576558946E-021
  -78.5900000000000         1.198455553020755E-020
  -78.4000000000000         1.563535980345346E-020
  -78.2100000000000         1.552065748192187E-020
  -78.0200000000000         1.172235072786801E-020
  -77.8300000000000         5.419289452456873E-021
  -77.6400000000000        -1.477410846447483E-021
  -77.4500000000000        -6.901109028535498E-021
  -77.2600000000000        -9.242532501183660E-021
  -77.0700000000000        -7.817708628017539E-021
  -76.8800000000000        -3.058152465097027E-021
  -76.6900000000000         3.626794210473243E-021
  -76.5000000000000         1.027127446652552E-020
  -76.3100000000000         1.493259886386806E-020
  -76.1200000000000         1.626063455804278E-020
  -75.9300000000000         1.389387014515838E-020
  -75.7400000000000         8.567642713469440E-021
  -75.5500000000000         1.898870825534849E-021
  -75.3600000000000        -4.094557882016072E-021
  -75.1700000000000        -7.599097592270700E-021
  -74.9800000000000        -7.554417306848041E-021
  -74.7900000000000        -3.980294207482530E-021
  -74.6000000000000         2.020025838932902E-021
  -74.4100000000000         8.586485724535250E-021
  -74.2200000000000         1.366348525151078E-020
  -74.0300000000000         1.562550006630058E-020
  -73.8400000000000         1.377708431807424E-020
  -73.6500000000000         8.576034459958793E-021
  -73.4600000000000         1.509608314176700E-021
  -73.2700000000000        -5.343418273633064E-021
  -73.0800000000000        -9.934060567645082E-021
  -72.8900000000000        -1.085790712603530E-020
  -72.7000000000000        -7.776132886861142E-021
  -72.5100000000000        -1.516251248892540E-021
  -72.3200000000000         6.176334257038032E-021
  -72.1300000000000         1.315772437910877E-020
  -71.9400000000000         1.751378955546843E-020
  -71.7500000000000         1.810561503911565E-020
  -71.5600000000000         1.487376034208386E-020
  -71.3700000000000         8.821698994248527E-021
  -71.1800000000000         1.695427404914621E-021
  -70.9900000000000        -4.535995717481743E-021
  -70.8000000000000        -8.240698812130157E-021
  -70.6100000000000        -8.563701327152157E-021
  -70.4200000000000        -5.628848788696884E-021
  -70.2300000000000        -4.587678334460159E-022
  -70.0400000000000         5.351054061468088E-021
  -69.8500000000000         1.010170462935856E-020
  -69.6600000000000         1.246779838209590E-020
  -69.4700000000000         1.185216821902870E-020
  -69.2800000000000         8.528021827971038E-021
  -69.0900000000000         3.537941436663121E-021
  -68.9000000000000        -1.616099433386835E-021
  -68.7100000000000        -5.403940919609550E-021
  -68.5200000000000        -6.702250499553357E-021
  -68.3300000000000        -5.115225555044384E-021
  -68.1400000000000        -1.091614738327329E-021
  -67.9500000000000         4.196807995232061E-021
  -67.7600000000000         9.183688010338939E-021
  -67.5700000000000         1.235406984426691E-020
  -67.3800000000000         1.268500273455158E-020
  -67.1900000000000         9.955809243974629E-021
  -67.0000000000000         4.835723023198307E-021
  -66.8100000000000        -1.281674503888486E-021
  -66.6200000000000        -6.656370230772920E-021
  -66.4300000000000        -9.691665402403504E-021
  -66.2400000000000        -9.399652827464281E-021
  -66.0500000000000        -5.704439272661657E-021
  -65.8600000000000         5.139123520594777E-022
  -65.6700000000000         7.654795053284146E-021
  -65.4800000000000         1.384663714555931E-020
  -65.2900000000000         1.748066356903697E-020
  -65.1000000000000         1.767129274203896E-020
  -64.9100000000000         1.450532496331289E-020
  -64.7200000000000         9.008101615992123E-021
  -64.5300000000000         2.842721239945871E-021
  -64.3400000000000        -2.167098560992134E-021
  -64.1500000000000        -4.557309889028604E-021
  -63.9600000000000        -3.644275967309379E-021
  -63.7700000000000         2.713579382302693E-022
  -63.5800000000000         5.976058832041101E-021
  -63.3900000000000         1.167341538412485E-020
  -63.2000000000000         1.548770449024402E-020
  -63.0100000000000         1.600669059277893E-020
  -62.8200000000000         1.270971988020213E-020
  -62.6300000000000         6.151944787760767E-021
  -62.4400000000000        -2.155502380032574E-021
  -62.2500000000000        -1.014183772759201E-020
  -62.0600000000000        -1.574491102792134E-020
  -61.8700000000000        -1.749693165128453E-020
  -61.6800000000000        -1.496135188475718E-020
  -61.4900000000000        -8.889921610991541E-021
  -61.3000000000000        -1.044186214005140E-021
  -61.1100000000000         6.282168111701925E-021
  -60.9200000000000         1.091750849637906E-020
  -60.7300000000000         1.145963556940688E-020
  -60.5400000000000         7.720498660847493E-021
  -60.3500000000000         8.227858743389402E-022
  -60.1600000000000        -7.095338068536464E-021
  -59.9700000000000        -1.349150733843401E-020
  -59.7800000000000        -1.617071364059449E-020
  -59.5900000000000        -1.395285728517133E-020
  -59.4000000000000        -7.053082862157393E-021
  -59.2100000000000         2.943464249750914E-021
  -59.0200000000000         1.351087081851225E-020
  -58.8300000000000         2.189496983409322E-020
  -58.6400000000000         2.590295647524071E-020
  -58.4500000000000         2.453808557268235E-020
  -58.2600000000000         1.829128253744812E-020
  -58.0700000000000         9.002169773160691E-021
  -57.8800000000000        -6.701318742425475E-022
  -57.6900000000000        -8.008396633552278E-021
  -57.5000000000000        -1.100411952081295E-020
  -57.3100000000000        -8.907842226421251E-021
  -57.1200000000000        -2.413309036747531E-021
  -56.9300000000000         6.564740711737190E-021
  -56.7400000000000         1.544572914181462E-020
  -56.5500000000000         2.170884594820558E-020
  -56.3600000000000         2.358639148640748E-020
  -56.1700000000000         2.053939958481818E-020
  -55.9800000000000         1.339211944412386E-020
  -55.7900000000000         4.090606772841237E-021
  -55.6000000000000        -4.848663067478985E-021
  -55.4100000000000        -1.104532740823283E-020
  -55.2200000000000        -1.291715113448542E-020
  -55.0300000000000        -1.011289791175723E-020
  -54.8400000000000        -3.596259293268520E-021
  -54.6500000000000         4.642754501061906E-021
  -54.4600000000000         1.216590404888033E-020
  -54.2700000000000         1.678638051881810E-020
  -54.0800000000000         1.718983105595778E-020
  -53.8900000000000         1.330204473045859E-020
  -53.7000000000000         6.297726482458565E-021
  -53.5100000000000        -1.755958128776230E-021
  -53.3200000000000        -8.517675138582049E-021
  -53.1300000000000        -1.206588878375421E-020
  -52.9400000000000        -1.146009042067616E-020
  -52.7500000000000        -7.003317841849788E-021
  -52.5600000000000        -1.300299907191503E-022
  -52.3700000000000         7.042192649119599E-021
  -52.1800000000000         1.235390050838105E-020
  -51.9900000000000         1.423937184223001E-020
  -51.8000000000000         1.216948659156927E-020
  -51.6100000000000         6.779352606500993E-021
  -51.4200000000000        -3.479946986841621E-022
  -51.2300000000000        -7.169163192029689E-021
  -51.0400000000000        -1.178609800022732E-020
  -50.8500000000000        -1.298597643177861E-020
  -50.6600000000000        -1.055912693022528E-020
  -50.4700000000000        -5.311578465517724E-021
  -50.2800000000000         1.216043219882621E-021
  -50.0900000000000         7.222652470142681E-021
  -49.9000000000000         1.116187183115469E-020
  -49.7100000000000         1.214870568677967E-020
  -49.5200000000000         1.015486812104500E-020
  -49.3300000000000         5.957753094632541E-021
  -49.1400000000000         8.759942398797158E-022
  -48.9500000000000        -3.623609741545961E-021
  -48.7600000000000        -6.337043999002537E-021
  -48.5700000000000        -6.641837608666817E-021
  -48.3800000000000        -4.638939425732123E-021
  -48.1900000000000        -1.081663434992695E-021
  -48.0000000000000         2.882077009968489E-021
  -47.8100000000000         6.072857232292427E-021
  -47.6200000000000         7.637188260414933E-021
  -47.4300000000000         7.292075739037713E-021
  -47.2400000000000         5.386322110691574E-021
  -47.0500000000000         2.767695602276555E-021
  -46.8600000000000         5.037068965469383E-022
  -46.6700000000000        -4.590156256289252E-022
  -46.4800000000000         4.013821586276531E-022
  -46.2900000000000         3.005168945682390E-021
  -46.1000000000000         6.679019553270592E-021
  -45.9100000000000         1.035130447688450E-020
  -45.7200000000000         1.287859306625273E-020
  -45.5300000000000         1.340564946596137E-020
  -45.3400000000000         1.164598202283581E-020
  -45.1500000000000         7.988971440550899E-021
  -44.9600000000000         3.395690055846069E-021
  -44.7700000000000        -8.818076818830799E-022
  -44.5800000000000        -3.668609204538243E-021
  -44.3900000000000        -4.213786851128820E-021
  -44.2000000000000        -2.416582824390691E-021
  -44.0100000000000         1.134294345077073E-021
  -43.8200000000000         5.320917882034483E-021
  -43.6300000000000         8.811230088402310E-021
  -43.4400000000000         1.044301080358543E-020
  -43.2500000000000         9.571054833763125E-021
  -43.0600000000000         6.274960575626509E-021
  -42.8700000000000         1.359322342145668E-021
  -42.6800000000000        -3.858788672384929E-021
  -42.4900000000000        -7.914437674716502E-021
  -42.3000000000000        -9.608714233838925E-021
  -42.1100000000000        -8.356872758265176E-021
  -41.9200000000000        -4.371775237235697E-021
  -41.7300000000000         1.372866664593774E-021
  -41.5400000000000         7.394622878214345E-021
  -41.3500000000000         1.210707183805976E-020
  -41.1600000000000         1.427114605119708E-020
  -40.9700000000000         1.336507650059213E-020
  -40.7800000000000         9.756013302691792E-021
  -40.5900000000000         4.608880334109761E-021
  -40.4000000000000        -4.513866326721387E-022
  -40.2100000000000        -3.828621261966237E-021
  -40.0200000000000        -4.448334451002496E-021
  -39.8300000000000        -2.102132225473952E-021
  -39.6400000000000         2.465184198685565E-021
  -39.4500000000000         7.756871664429973E-021
  -39.2600000000000         1.196044086773817E-020
  -39.0700000000000         1.349679616557775E-020
  -38.8800000000000         1.152254275518468E-020
  -38.6900000000000         6.231318446261790E-021
  -38.5000000000000        -1.147309599603478E-021
  -38.3100000000000        -8.665993041063584E-021
  -38.1200000000000        -1.421176503112389E-020
  -37.9300000000000        -1.612912291355018E-020
  -37.7400000000000        -1.372047112466142E-020
  -37.5500000000000        -7.468273019252576E-021
  -37.3600000000000         1.085904170211169E-021
  -37.1700000000000         9.765567143970743E-021
  -36.9800000000000         1.636113076393718E-020
  -36.7900000000000         1.923650693198720E-020
  -36.6000000000000         1.777114933199198E-020
  -36.4100000000000         1.252000075595795E-020
  -36.2200000000000         5.051060184144838E-021
  -36.0300000000000        -2.498203100293409E-021
  -35.8400000000000        -8.027772820680855E-021
  -35.6500000000000        -1.007278977274413E-020
  -35.4600000000000        -8.215235041970946E-021
  -35.2700000000000        -3.188217431781892E-021
  -35.0800000000000         3.356642983942353E-021
  -34.8900000000000         9.350303043818144E-021
  -34.7000000000000         1.292698572888866E-020
  -34.5100000000000         1.297863337019437E-020
  -34.3200000000000         9.481512423478933E-021
  -34.1300000000000         3.505340848436691E-021
  -33.9400000000000        -3.096450586006800E-021
  -33.7500000000000        -8.231407830784711E-021
  -33.5600000000000        -1.019351363222523E-020
  -33.3700000000000        -8.184080133849708E-021
  -33.1800000000000        -2.570678842494010E-021
  -32.9900000000000         5.195220921020959E-021
  -32.8000000000000         1.298076302089762E-020
  -32.6100000000000         1.857729235745993E-020
  -32.4200000000000         2.032903299740553E-020
  -32.2300000000000         1.760108438676208E-020
  -32.0400000000000         1.095850981671867E-020
  -31.8500000000000         2.014856711453982E-021
  -31.6600000000000        -7.003150755596773E-021
  -31.4700000000000        -1.385447505796307E-020
  -31.2800000000000        -1.688246814588977E-020
  -31.0900000000000        -1.545035980725477E-020
  -30.9000000000000        -1.009564496495513E-020
  -30.7100000000000        -2.362733824805775E-021
  -30.5200000000000         5.635601906724336E-021
  -30.3300000000000         1.179881518980358E-020
  -30.1400000000000         1.459534046373948E-020
  -29.9500000000000         1.344658044710354E-020
  -29.7600000000000         8.846502301998672E-021
  -29.5700000000000         2.200058531956813E-021
  -29.3800000000000        -4.565351747170587E-021
  -29.1900000000000        -9.511602529504433E-021
  -29.0000000000000        -1.119924710242316E-020
  -28.8100000000000        -9.070087123637867E-021
  -28.6200000000000        -3.601485420797778E-021
  -28.4300000000000         3.816658057786691E-021
  -28.2400000000000         1.125608908346919E-020
  -28.0500000000000         1.677689260937264E-020
  -27.8600000000000         1.896206088366806E-020
  -27.6700000000000         1.730755565321611E-020
  -27.4800000000000         1.235333029310031E-020
  -27.2900000000000         5.518653211391593E-021
  -27.1000000000000        -1.307203657004698E-021
  -26.9100000000000        -6.303077265600579E-021
  -26.7200000000000        -8.234317774933300E-021
  -26.5300000000000        -6.802297139416847E-021
  -26.3400000000000        -2.717000391560147E-021
  -26.1500000000000         2.533100749095299E-021
  -25.9600000000000         7.146099278909868E-021
  -25.7700000000000         9.567755998085814E-021
  -25.5800000000000         8.977433033677471E-021
  -25.3900000000000         5.545149752934978E-021
  -25.2000000000000         3.792323682040414E-022
  -25.0100000000000        -4.812425056189286E-021
  -24.8200000000000        -8.238524359986712E-021
  -24.6300000000000        -8.566715623604334E-021
  -24.4400000000000        -5.338065405915449E-021
  -24.2500000000000         8.672479403299240E-022
  -24.0600000000000         8.564300317260994E-021
  -23.8700000000000         1.576210810428264E-020
  -23.6800000000000         2.051667351739826E-020
  -23.4900000000000         2.148315689976412E-020
  -23.3000000000000         1.830419990619692E-020
  -23.1100000000000         1.171446781424050E-020
  -22.9200000000000         3.331138542198589E-021
  -22.7300000000000        -4.800905497753100E-021
  -22.5400000000000        -1.077249980747898E-020
  -22.3500000000000        -1.332278282683561E-020
  -22.1600000000000        -1.216111392654659E-020
  -21.9700000000000        -8.014301282621993E-021
  -21.7800000000000        -2.391114530614118E-021
  -21.5900000000000         2.870356524330794E-021
  -21.4000000000000         6.149482195997126E-021
  -21.2100000000000         6.528158980796590E-021
  -21.0200000000000         4.065519966078007E-021
  -20.8300000000000        -2.289050412808956E-022
  -20.6400000000000        -4.721241970856282E-021
  -20.4500000000000        -7.678891285632783E-021
  -20.2600000000000        -7.828494700093413E-021
  -20.0700000000000        -4.767283715694109E-021
  -19.8800000000000         9.004571508651380E-022
  -19.6900000000000         7.739641985879505E-021
  -19.5000000000000         1.391665640375530E-020
  -19.3100000000000         1.775664939043887E-020
  -19.1200000000000         1.825575472149091E-020
  -18.9300000000000         1.538887729958205E-020
  -18.7400000000000         1.011534187995658E-020
  -18.5500000000000         4.076593682707339E-021
  -18.3600000000000        -9.238133062196452E-022
  -18.1700000000000        -3.491648940747224E-021
  -17.9800000000000        -3.074009957403556E-021
  -17.7900000000000        -1.100883395232047E-022
  -17.6000000000000         4.138547922794380E-021
  -17.4100000000000         8.011361315530019E-021
  -17.2200000000000         9.985021358751458E-021
  -17.0300000000000         9.152149899582985E-021
  -16.8400000000000         5.496748347277493E-021
  -16.6500000000000        -1.073717149622139E-022
  -16.4600000000000        -6.162223019483214E-021
  -16.2700000000000        -1.099314280188302E-020
  -16.0800000000000        -1.324903132654599E-020
  -15.8900000000000        -1.230557732406489E-020
  -15.7000000000000        -8.447364727226543E-021
  -15.5100000000000        -2.778126043730109E-021
  -15.3200000000000         3.105493325713910E-021
  -15.1300000000000         7.576254579565658E-021
  -14.9400000000000         9.439457426396768E-021
  -14.7500000000000         8.263207889357567E-021
  -14.5600000000000         4.486949969219022E-021
  -14.3700000000000        -7.111532323109026E-022
  -14.1800000000000        -5.746386740903480E-021
  -13.9900000000000        -9.074378628585273E-021
  -13.8000000000000        -9.635303526695048E-021
  -13.6100000000000        -7.167441456227500E-021
  -13.4200000000000        -2.293398647402620E-021
  -13.2300000000000         3.651351114308101E-021
  -13.0400000000000         9.002740125342145E-021
  -12.8500000000000         1.225602623814268E-020
  -12.6600000000000         1.251195142612068E-020
  -12.4700000000000         9.747056477253366E-021
  -12.2800000000000         4.831680243223997E-021
  -12.0900000000000        -7.060392223382760E-022
  -11.9000000000000        -5.106464984998592E-021
  -11.7100000000000        -6.882946495432969E-021
  -11.5200000000000        -5.266694759510889E-021
  -11.3300000000000        -4.626760270133730E-022
  -11.1400000000000         6.367371726226158E-021
  -10.9500000000000         1.340511603632621E-020
  -10.7600000000000         1.868320307705883E-020
  -10.5700000000000         2.065255830191793E-020
  -10.3800000000000         1.863700078531596E-020
  -10.1900000000000         1.303835113739042E-020
  -10.0000000000000         5.233987836778280E-021
  -9.81000000000000        -2.798781704188926E-021
  -9.62000000000000        -9.019347510248952E-021
  -9.42999999999999        -1.187024620477698E-020
  -9.23999999999999        -1.068972050798025E-020
  -9.05000000000000        -5.886022723944038E-021
  -8.86000000000000         1.174198117407640E-021
  -8.67000000000000         8.539097283592055E-021
  -8.48000000000000         1.420667274522224E-020
  -8.28999999999999         1.667311712963186E-020
  -8.09999999999999         1.534284755941250E-020
  -7.91000000000000         1.068569651936205E-020
  -7.72000000000000         4.094814151439337E-021
  -7.53000000000000        -2.513527897834074E-021
  -7.34000000000000        -7.241047479141497E-021
  -7.15000000000001        -8.740138670087983E-021
  -6.95999999999999        -6.598831312681452E-021
  -6.77000000000000        -1.472257406885285E-021
  -6.58000000000000         5.087463987813646E-021
  -6.39000000000000         1.106653968186110E-020
  -6.20000000000000         1.457032435041880E-020
  -6.01000000000001         1.438373014456266E-020
  -5.81999999999999         1.034577350760510E-020
  -5.63000000000000         3.418023558248361E-021
  -5.44000000000000        -4.582864881190689E-021
  -5.25000000000000        -1.150744940661620E-020
  -5.06000000000000        -1.549073652642005E-020
  -4.87000000000000        -1.548712354184947E-020
  -4.67999999999999        -1.157564033333769E-020
  -4.48999999999999        -4.947318209030043E-021
  -4.30000000000000         2.428274948589994E-021
  -4.11000000000000         8.366947364876159E-021
  -3.92000000000000         1.110651729068393E-020
  -3.73000000000000         9.834840865740687E-021
  -3.53999999999999         4.948668686447004E-021
  -3.34999999999999        -2.047061144984137E-021
  -3.16000000000000        -8.977010866369273E-021
  -2.97000000000000        -1.363531479344179E-020
  -2.78000000000000        -1.443153116559562E-020
  -2.59000000000000        -1.085325734906731E-020
  -2.40000000000001        -3.616109512332318E-021
  -2.20999999999999         5.534691579566454E-021
  -2.02000000000000         1.430675043234010E-020
  -1.83000000000000         2.048819663278831E-020
  -1.64000000000000         2.255010751923155E-020
  -1.45000000000000         2.006144991126618E-020
  -1.26000000000001         1.380046549304621E-020
  -1.06999999999999         5.528166333644953E-021
 -0.879999999999995        -2.512523505318099E-021
 -0.689999999999998        -8.227147900204472E-021
 -0.500000000000000        -1.024621682712794E-020
 -0.310000000000002        -8.281564193598955E-021
 -0.120000000000005        -3.166234262354941E-021
  7.000000000000739E-002    3.421496324425153E-021
  0.260000000000005         9.461642813316709E-021
  0.450000000000003         1.317811016250899E-020
  0.640000000000001         1.354055219183757E-020
  0.829999999999998         1.053975288895729E-020
   1.02000000000000         5.159713196313615E-021
   1.21000000000001        -9.422570469465487E-022
   1.40000000000001        -5.952000023556316E-021
   1.59000000000000        -8.454062801224449E-021
   1.78000000000000        -7.850582397376875E-021
   1.97000000000000        -4.513080578105537E-021
   2.16000000000000         3.687677941850003E-022
   2.34999999999999         5.180527280337287E-021
   2.54000000000001         8.392193341543915E-021
   2.73000000000000         9.028352185590174E-021
   2.92000000000000         6.957722036967224E-021
   3.11000000000000         2.918995210186554E-021
   3.30000000000000        -1.718256782263128E-021
   3.48999999999999        -5.385795202208848E-021
   3.68000000000001        -6.816240238843693E-021
   3.87000000000000        -5.453886470006527E-021
   4.06000000000000        -1.638344790607490E-021
   4.25000000000000         3.500541288969683E-021
   4.44000000000000         8.396696772395948E-021
   4.63000000000000         1.153335874774319E-020
   4.82000000000001         1.190780644239237E-020
   5.01000000000001         9.332597300165841E-021
   5.20000000000000         4.486997557223536E-021
   5.39000000000000        -1.283945165135208E-021
   5.58000000000000        -6.354598177740689E-021
   5.77000000000000        -9.281895885843177E-021
   5.96000000000001        -9.223450028982725E-021
   6.15000000000001        -6.191025371537883E-021
   6.34000000000000        -1.059114027767478E-021
   6.53000000000000         4.679534190897198E-021