  -105.000000000000         0.000000000000000E+000
  -104.810000000000        -1.775216366642044E-020
  -104.620000000000        -3.962090164256864E-020
  -104.430000000000        -5.123142347770040E-020
  -104.240000000000        -5.057046482038254E-020
  -104.050000000000        -4.913613619836472E-020
  -103.860000000000        -6.017308218451019E-020
  -103.670000000000        -8.533506494577425E-020
  -103.480000000000        -1.125770046526498E-019
  -103.290000000000        -1.273235976377164E-019
  -103.100000000000        -1.262504888064569E-019
  -102.910000000000        -1.204833416540505E-019
  -102.720000000000        -1.251092547014424E-019
  -102.530000000000        -1.449688531773522E-019
  -102.340000000000        -1.702475133630518E-019
  -102.150000000000        -1.860237333095689E-019
  -101.960000000000        -1.866228214119229E-019
  -101.770000000000        -1.810665607565834E-019
  -101.580000000000        -1.844294905551788E-019
  -101.390000000000        -2.033735513527877E-019
  -101.200000000000        -2.296939406673440E-019
  -101.010000000000        -2.480553675187731E-019
  -100.820000000000        -2.505358230698647E-019
  -100.630000000000        -2.440918814898127E-019
  -100.440000000000        -2.438293882428268E-019
  -100.250000000000        -2.585209677487124E-019
  -100.060000000000        -2.822026482953850E-019
  -99.8700000000000        -2.998643453227642E-019
  -99.6800000000000        -3.017876975983156E-019
  -99.4900000000000        -2.928314980070808E-019
  -99.3000000000000        -2.878029898347642E-019
  -99.1100000000000        -2.973576789594529E-019
  -98.9200000000000        -3.179139633157229E-019
  -98.7300000000000        -3.352079895637768E-019
  -98.5400000000000        -3.380596799431977E-019
  -98.3500000000000        -3.291597683008021E-019
  -98.1600000000000        -3.225389078083395E-019
  -97.9700000000000        -3.301186699432093E-019
  -97.7800000000000        -3.502046650311543E-019
  -97.5900000000000        -3.689525162730267E-019
  -97.4000000000000        -3.734442288928179E-019
  -97.2100000000000        -3.639076416176771E-019
  -97.0200000000000        -3.534253543700146E-019
  -96.8300000000000        -3.554256359657536E-019
  -96.6400000000000        -3.709022315131950E-019
  -96.4500000000000        -3.875557350298244E-019
  -96.2600000000000        -3.916615636818762E-019
  -96.0700000000000        -3.813084271557296E-019
  -95.8800000000000        -3.683310352196690E-019
  -95.6900000000000        -3.670691672409659E-019
  -95.5000000000000        -3.806978284341470E-019
  -95.3100000000000        -3.982074581761115E-019
  -95.1200000000000        -4.049309625679126E-019
  -94.9300000000000        -3.965673547473478E-019
  -94.7400000000000        -3.833106135938986E-019
  -94.5500000000000        -3.801323846583046E-019
  -94.3600000000000        -3.924840119285019E-019
  -94.1700000000000        -4.110738544310656E-019
  -93.9800000000000        -4.207259401277041E-019
  -93.7900000000000        -4.148682653191963E-019
  -93.6000000000000        -4.018033171663118E-019
  -93.4100000000000        -3.967613030445757E-019
  -93.2200000000000        -4.073235579624971E-019
  -93.0300000000000        -4.261380233399161E-019
  -92.8400000000000        -4.378932208094423E-019
  -92.6500000000000        -4.339171131651466E-019
  -92.4600000000000        -4.204845918581708E-019
  -92.2700000000000        -4.128999478418039E-019
  -92.0800000000000        -4.209830908880712E-019
  -91.8900000000000        -4.397922937887410E-019
  -91.7000000000000        -4.544141648240034E-019
  -91.5100000000000        -4.542202722340561E-019
  -91.3200000000000        -4.429682439675839E-019
  -91.1300000000000        -4.351180343870257E-019
  -90.9400000000000        -4.419077383733947E-019
  -90.7500000000000        -4.605114241495250E-019
  -90.5600000000000        -4.766584574547106E-019
  -90.3700000000000        -4.782337474477293E-019
  -90.1800000000000        -4.668765932766372E-019
  -89.9900000000000        -4.564924468997336E-019
  -89.8000000000000        -4.600804223568107E-019
  -89.6100000000000        -4.774265033596232E-019
  -89.4200000000000        -4.953796515904544E-019
  -89.2300000000000        -5.004247832064090E-019
  -89.0400000000000        -4.915475610104931E-019
  -88.8500000000000        -4.811240761219888E-019
  -88.6600000000000        -4.830126442810333E-019
  -88.4700000000000        -4.992482638991348E-019
  -88.2800000000000        -5.180611206579713E-019
  -88.0900000000000        -5.251043622233929E-019
  -87.9000000000000        -5.171570936247571E-019
  -87.7100000000000        -5.052185257551036E-019
  -87.5200000000000        -5.040455168048444E-019
  -87.3300000000000        -5.181210832150858E-019
  -87.1400000000000        -5.374401407425530E-019
  -86.9500000000000        -5.471171928891923E-019
  -86.7600000000000        -5.416125020914572E-019
  -86.5700000000000        -5.299706595389293E-019
  -86.3800000000000        -5.270849450468162E-019
  -86.1900000000000        -5.393780947945192E-019
  -86.0000000000000        -5.586168655520530E-019
  -85.8100000000000        -5.697835252111159E-019
  -85.6200000000000        -5.654823675483358E-019
  -85.4300000000000        -5.530984488282047E-019
  -85.2400000000000        -5.478271072467618E-019
  -85.0500000000000        -5.581897321880007E-019
  -84.8600000000000        -5.778546367952947E-019
  -84.6700000000000        -5.915796537159950E-019
  -84.4800000000000        -5.896120148456058E-019
  -84.2900000000000        -5.768240605542426E-019
  -84.1000000000000        -5.679223515291863E-019
  -83.9100000000000        -5.733747036939321E-019
  -83.7200000000000        -5.895377324941622E-019
  -83.5300000000000        -6.024179524660322E-019
  -83.3400000000000        -6.014345818837085E-019
  -83.1500000000000        -5.899499041311003E-019
  -82.9600000000000        -5.823957952821479E-019
  -82.7700000000000        -5.906537608671808E-019
  -82.5800000000000        -6.126630315703476E-019
  -82.3900000000000        -6.341454192643405E-019
  -82.2000000000000        -6.418364183558032E-019
  -82.0100000000000        -6.356450242477208E-019
  -81.8200000000000        -6.281957678165891E-019
  -81.6300000000000        -6.322527720546335E-019
  -81.4400000000000        -6.481008753337522E-019
  -81.2500000000000        -6.630051152909402E-019
  -81.0600000000000        -6.633188807286671E-019
  -80.8700000000000        -6.476925463491512E-019
  -80.6800000000000        -6.287430560822882E-019
  -80.4900000000000        -6.215326468123721E-019
  -80.3000000000000        -6.297790963561265E-019
  -80.1100000000000        -6.428822824979291E-019
  -79.9200000000000        -6.465393999028432E-019
  -79.7300000000000        -6.367650845929694E-019
  -79.5400000000000        -6.238982256375272E-019
  -79.3500000000000        -6.227635747523459E-019
  -79.1600000000000        -6.384065465466385E-019
  -78.9700000000000        -6.610641996534217E-019
  -78.7800000000000        -6.752201395852495E-019
  -78.5900000000000        -6.741414555798519E-019
  -78.4000000000000        -6.660472967886522E-019
  -78.2100000000000        -6.660214773668527E-019
  -78.0200000000000        -6.813771881482633E-019
  -77.8300000000000        -7.044437530705924E-019
  -77.6400000000000        -7.196751310065424E-019
  -77.4500000000000        -7.183135210182333E-019
  -77.2600000000000        -7.066363555552093E-019
  -77.0700000000000        -6.999447155904933E-019
  -76.8800000000000        -7.080412439850257E-019
  -76.6900000000000        -7.260318239532657E-019
  -76.5000000000000        -7.391846151036040E-019
  -76.3100000000000        -7.371666197794237E-019
  -76.1200000000000        -7.240346895972410E-019
  -75.9300000000000        -7.144236904361013E-019
  -75.7400000000000        -7.195775248619167E-019
  -75.5500000000000        -7.365817550586222E-019
  -75.3600000000000        -7.510877953160690E-019
  -75.1700000000000        -7.509257253645367E-019
  -74.9800000000000        -7.376217339977074E-019
  -74.7900000000000        -7.248554204993497E-019
  -74.6000000000000        -7.253578239735019E-019
  -74.4100000000000        -7.387756517031540E-019
  -74.2200000000000        -7.520980061485166E-019
  -74.0300000000000        -7.522324044063105E-019
  -73.8400000000000        -7.386967819953738E-019
  -73.6500000000000        -7.242851976376331E-019
  -73.4600000000000        -7.230661312702141E-019
  -73.2700000000000        -7.371664580267773E-019
  -73.0800000000000        -7.549314174366945E-019
  -72.8900000000000        -7.621780895604553E-019
  -72.7000000000000        -7.557686037473485E-019
  -72.5100000000000        -7.465311752165084E-019
  -72.3200000000000        -7.487486607783504E-019
  -72.1300000000000        -7.662841788704815E-019
  -71.9400000000000        -7.886306202480484E-019
  -71.7500000000000        -8.006747212501398E-019
  -71.5600000000000        -7.968533455389070E-019
  -71.3700000000000        -7.861952577031843E-019
  -71.1800000000000        -7.834676894764232E-019
  -70.9900000000000        -7.949288576413536E-019
  -70.8000000000000        -8.123357522343505E-019
  -70.6100000000000        -8.209495975675427E-019
  -70.4200000000000        -8.138706783002363E-019
  -70.2300000000000        -7.989516428031785E-019
  -70.0400000000000        -7.916182085543512E-019
  -69.8500000000000        -8.003999326389949E-019
  -69.6600000000000        -8.189540613358155E-019
  -69.4700000000000        -8.321830426564750E-019
  -69.2800000000000        -8.306047833272339E-019
  -69.0900000000000        -8.192634382207836E-019
  -68.9000000000000        -8.126915786726993E-019
  -68.7100000000000        -8.207773757625773E-019
  -68.5200000000000        -8.390957131394547E-019
  -68.3300000000000        -8.529898491030005E-019
  -68.1400000000000        -8.515276193339709E-019
  -67.9500000000000        -8.379993359776546E-019
  -67.7600000000000        -8.269076556496772E-019
  -67.5700000000000        -8.302836227803136E-019
  -67.3800000000000        -8.463585994368566E-019
  -67.1900000000000        -8.613927841541358E-019
  -67.0000000000000        -8.629058264605312E-019
  -66.8100000000000        -8.516548577584642E-019
  -66.6200000000000        -8.409016166774527E-019
  -66.4300000000000        -8.436739807457590E-019
  -66.2400000000000        -8.602150244932758E-019
  -66.0500000000000        -8.776409006438854E-019
  -65.8600000000000        -8.821740098515694E-019
  -65.6700000000000        -8.723016350012274E-019
  -65.4800000000000        -8.602888291550863E-019
  -65.2900000000000        -8.605521322946220E-019
  -65.1000000000000        -8.759409204919787E-019
  -64.9100000000000        -8.949950069212266E-019
  -64.7200000000000        -9.027882978463830E-019
  -64.5300000000000        -8.950165793496689E-019
  -64.3400000000000        -8.819195971405955E-019
  -64.1500000000000        -8.783497974213970E-019
  -63.9600000000000        -8.895116929865185E-019
  -63.7700000000000        -9.060058367624038E-019
  -63.5800000000000        -9.129148588742385E-019
  -63.3900000000000        -9.042440457430166E-019
  -63.2000000000000        -8.888878029204408E-019
  -63.0100000000000        -8.823702331518166E-019
  -62.8200000000000        -8.922003907166455E-019
  -62.6300000000000        -9.107933079244283E-019
  -62.4400000000000        -9.226988060543799E-019
  -62.2500000000000        -9.192478133575068E-019
  -62.0600000000000        -9.066750701065904E-019
  -61.8700000000000        -9.000143671892312E-019
  -61.6800000000000        -9.086346983747615E-019
  -61.4900000000000        -9.272519344940655E-019
  -61.3000000000000        -9.410058044491154E-019
  -61.1100000000000        -9.397425447634550E-019
  -60.9200000000000        -9.278430676137300E-019
  -60.7300000000000        -9.201879845176479E-019
  -60.5400000000000        -9.280779890297598E-019
  -60.3500000000000        -9.485020072011948E-019
  -60.1600000000000        -9.669467545925507E-019
  -59.9700000000000        -9.710333253702875E-019
  -59.7800000000000        -9.619670074165161E-019
  -59.5900000000000        -9.529248914303789E-019
  -59.4000000000000        -9.560248790954617E-019
  -59.2100000000000        -9.704335672016265E-019
  -59.0200000000000        -9.830483312080466E-019
  -58.8300000000000        -9.811312534568779E-019
  -58.6400000000000        -9.648166800156476E-019
  -58.4500000000000        -9.474967597320499E-019
  -58.2600000000000        -9.436353451946591E-019
  -58.0700000000000        -9.555580498612002E-019
  -57.8800000000000        -9.717489881292969E-019
  -57.6900000000000        -9.781985528053127E-019
  -57.5000000000000        -9.718998819871499E-019
  -57.3100000000000        -9.635897886707884E-019
  -57.1200000000000        -9.671579036270451E-019
  -56.9300000000000        -9.859062437000928E-019
  -56.7400000000000        -1.008852756027170E-018
  -56.5500000000000        -1.020679466482033E-018
  -56.3600000000000        -1.015882551719326E-018
  -56.1700000000000        -1.003645853117883E-018
  -55.9800000000000        -9.988127761440558E-019
  -55.7900000000000        -1.007618019893815E-018
  -55.6000000000000        -1.021831128117302E-018
  -55.4100000000000        -1.026883714948687E-018
  -55.2200000000000        -1.016158161279565E-018
  -55.0300000000000        -9.977207499787947E-019
  -54.8400000000000        -9.870019022057285E-019
  -54.6500000000000        -9.923644899369806E-019
  -54.4600000000000        -1.007332584338330E-018
  -54.2700000000000        -1.016926747784806E-018
  -54.0800000000000        -1.012077157173964E-018
  -53.8900000000000        -9.983488871384251E-019
  -53.7000000000000        -9.906399992802255E-019
  -53.5100000000000        -9.989169497433902E-019
  -53.3200000000000        -1.018612796273293E-018
  -53.1300000000000        -1.034862847265577E-018
  -52.9400000000000        -1.036547664535509E-018
  -52.7500000000000        -1.026749091793032E-018
  -52.5600000000000        -1.019640582288553E-018
  -52.3700000000000        -1.026788911610854E-018
  -52.1800000000000        -1.045971162793670E-018
  -51.9900000000000        -1.063213058372635E-018
  -51.8000000000000        -1.066113946623516E-018
  -51.6100000000000        -1.055727599913417E-018
  -51.4200000000000        -1.045633063351620E-018
  -51.2300000000000        -1.049051027802744E-018
  -51.0400000000000        -1.066278301026282E-018
  -50.8500000000000        -1.084426930816017E-018
  -50.6600000000000        -1.089719162491230E-018
  -50.4700000000000        -1.080598565677403E-018
  -50.2800000000000        -1.069133399748686E-018
  -50.0900000000000        -1.069368284832844E-018
  -49.9000000000000        -1.083745520419357E-018
  -49.7100000000000        -1.100571479069906E-018
  -49.5200000000000        -1.104982370552023E-018
  -49.3300000000000        -1.092994629115578E-018
  -49.1400000000000        -1.075275482276708E-018
  -48.9500000000000        -1.067064239326017E-018
  -48.7600000000000        -1.073875349266307E-018
  -48.5700000000000        -1.086610281170680E-018
  -48.3800000000000        -1.090686803319025E-018
  -48.1900000000000        -1.080399280636171E-018
  -48.0000000000000        -1.064744397848046E-018
  -47.8100000000000        -1.059108714515001E-018
  -47.6200000000000        -1.070717964328796E-018
  -47.4300000000000        -1.091720239087223E-018
  -47.2400000000000        -1.106510967594270E-018
  -47.0500000000000        -1.106322715625670E-018
  -46.8600000000000        -1.097177882368062E-018
  -46.6700000000000        -1.093666817013743E-018
  -46.4800000000000        -1.104568130771876E-018
  -46.2900000000000        -1.124103286033801E-018
  -46.1000000000000        -1.137211196000881E-018
  -45.9100000000000        -1.133831277910752E-018
  -45.7200000000000        -1.118572168304754E-018
  -45.5300000000000        -1.106522182780454E-018
  -45.3400000000000        -1.109163900870836E-018
  -45.1500000000000        -1.123791306346114E-018
  -44.9600000000000        -1.136466682892080E-018
  -44.7700000000000        -1.135610480515270E-018
  -44.5800000000000        -1.123185797590419E-018
  -44.3900000000000        -1.112793574642955E-018
  -44.2000000000000        -1.116540715101269E-018
  -44.0100000000000        -1.133278050764960E-018
  -43.8200000000000        -1.149493297254487E-018
  -43.6300000000000        -1.152044403566890E-018
  -43.4400000000000        -1.140582374853443E-018
  -43.2500000000000        -1.127787827863748E-018
  -43.0600000000000        -1.127191051155920E-018
  -42.8700000000000        -1.140219981392131E-018
  -42.6800000000000        -1.154856218889446E-018
  -42.4900000000000        -1.157181886628274E-018
  -42.3000000000000        -1.144785827666437E-018
  -42.1100000000000        -1.129221491237071E-018
  -41.9200000000000        -1.125161184789139E-018
  -41.7300000000000        -1.136597183319550E-018
  -41.5400000000000        -1.153260557560310E-018
  -41.3500000000000        -1.160656521889331E-018
  -41.1600000000000        -1.154092895853749E-018
  -40.9700000000000        -1.143264684048832E-018
  -40.7800000000000        -1.142993985654095E-018
  -40.5900000000000        -1.158965652696862E-018
  -40.4000000000000        -1.182095805113908E-018
  -40.2100000000000        -1.196937810605433E-018
  -40.0200000000000        -1.196121181218325E-018
  -39.8300000000000        -1.187048458437359E-018
  -39.6400000000000        -1.184477395337716E-018
  -39.4500000000000        -1.196117238607762E-018
  -39.2600000000000        -1.215048061621280E-018
  -39.0700000000000        -1.226244907888383E-018
  -38.8800000000000        -1.220996957178147E-018
  -38.6900000000000        -1.205436899569058E-018
  -38.5000000000000        -1.194975094308811E-018
  -38.3100000000000        -1.199870591800318E-018
  -38.1200000000000        -1.215651016962569E-018
  -37.9300000000000        -1.227491401298842E-018
  -37.7400000000000        -1.224353013966443E-018
  -37.5500000000000        -1.209390962070816E-018
  -37.3600000000000        -1.196738682542927E-018
  -37.1700000000000        -1.197803864741018E-018
  -36.9800000000000        -1.210220512628896E-018
  -36.7900000000000        -1.220060544234654E-018
  -36.6000000000000        -1.215238162956864E-018
  -36.4100000000000        -1.197315993885102E-018
  -36.2200000000000        -1.180399523026082E-018
  -36.0300000000000        -1.178111612736930E-018
  -35.8400000000000        -1.191017736600192E-018
  -35.6500000000000        -1.206436306283326E-018
  -35.4600000000000        -1.210746035841610E-018
  -35.2700000000000        -1.202400804949129E-018
  -35.0800000000000        -1.193223470390497E-018
  -34.8900000000000        -1.196760454276872E-018
  -34.7000000000000        -1.214852579553377E-018
  -34.5100000000000        -1.235313352111524E-018
  -34.3200000000000        -1.243021325604856E-018
  -34.1300000000000        -1.233919103271555E-018
  -33.9400000000000        -1.218621603199119E-018
  -33.7500000000000        -1.212239405533590E-018
  -33.5600000000000        -1.220144521380464E-018
  -33.3700000000000        -1.233224927990451E-018
  -33.1800000000000        -1.237080186450543E-018
  -32.9900000000000        -1.226296519214928E-018
  -32.8000000000000        -1.210099945852052E-018
  -32.6100000000000        -1.203935918368460E-018
  -32.4200000000000        -1.214987741218039E-018
  -32.2300000000000        -1.235452078940151E-018
  -32.0400000000000        -1.249984480089477E-018
  -31.8500000000000        -1.250200974170867E-018
  -31.6600000000000        -1.242403752261764E-018
  -31.4700000000000        -1.241190470366835E-018
  -31.2800000000000        -1.255095957563956E-018
  -31.0900000000000        -1.278024679916602E-018
  -30.9000000000000        -1.294695697321065E-018
  -30.7100000000000        -1.294924735601856E-018
  -30.5200000000000        -1.283118349060253E-018
  -30.3300000000000        -1.273931330504570E-018
  -30.1400000000000        -1.278252738968368E-018
  -29.9500000000000        -1.292904378495320E-018
  -29.7600000000000        -1.303868257979109E-018
  -29.5700000000000        -1.299926160823075E-018
  -29.3800000000000        -1.283642540071421E-018
  -29.1900000000000        -1.269161032184578E-018
  -29.0000000000000        -1.268900455252620E-018
  -28.8100000000000        -1.281860962940261E-018
  -28.6200000000000        -1.294710196009948E-018
  -28.4300000000000        -1.294597152678508E-018
  -28.2400000000000        -1.281441699981732E-018
  -28.0500000000000        -1.267963036164845E-018
  -27.8600000000000        -1.267430930497158E-018
  -27.6700000000000        -1.280862535992955E-018
  -27.4800000000000        -1.295935643120086E-018
  -27.2900000000000        -1.298695446005123E-018
  -27.1000000000000        -1.286880725685897E-018
  -26.9100000000000        -1.272125870076661E-018
  -26.7200000000000        -1.268925632106393E-018
  -26.5300000000000        -1.280899387987053E-018
  -26.3400000000000        -1.297464526633746E-018
  -26.1500000000000        -1.304085833318099E-018
  -25.9600000000000        -1.296304415241610E-018
  -25.7700000000000        -1.284124671450481E-018
  -25.5800000000000        -1.282525891594196E-018
  -25.3900000000000        -1.297124362167336E-018
  -25.2000000000000        -1.318669985641290E-018
  -25.0100000000000        -1.331637329211443E-018
  -24.8200000000000        -1.328715915805933E-018
  -24.6300000000000        -1.317391121659495E-018
  -24.4400000000000        -1.312383633806967E-018
  -24.2500000000000        -1.321225515852831E-018
  -24.0600000000000        -1.336803682384081E-018
  -23.8700000000000        -1.344048451951208E-018
  -23.6800000000000        -1.334418548216637E-018
  -23.4900000000000        -1.314344504513896E-018
  -23.3000000000000        -1.299521174279041E-018
  -23.1100000000000        -1.300434786652990E-018
  -22.9200000000000        -1.312872340031857E-018
  -22.7300000000000        -1.322402335616709E-018
  -22.5400000000000        -1.318491476869477E-018
  -22.3500000000000        -1.304747847744690E-018
  -22.1600000000000        -1.295498824896656E-018
  -21.9700000000000        -1.301974766321438E-018
  -21.7800000000000        -1.321315183796970E-018
  -21.5900000000000        -1.338938442509997E-018
  -21.4000000000000        -1.342066119243144E-018
  -21.2100000000000        -1.331550383560708E-018
  -21.0200000000000        -1.320776985181785E-018
  -20.8300000000000        -1.322740713820050E-018
  -20.6400000000000        -1.337648780642457E-018
  -20.4500000000000        -1.352869589303144E-018
  -20.2600000000000        -1.355229900830033E-018
  -20.0700000000000        -1.343853775885414E-018
  -19.8800000000000        -1.331222266089447E-018
  -19.6900000000000        -1.331407603438482E-018
  -19.5000000000000        -1.346707918722867E-018
  -19.3100000000000        -1.365445016597089E-018
  -19.1200000000000        -1.373037722401583E-018
  -18.9300000000000        -1.365801936950283E-018
  -18.7400000000000        -1.354326698760706E-018
  -18.5500000000000        -1.353217032011187E-018
  -18.3600000000000        -1.367006954317768E-018
  -18.1700000000000        -1.385701204099551E-018
  -17.9800000000000        -1.394195555098285E-018
  -17.7900000000000        -1.386564090834955E-018
  -17.6000000000000        -1.371576171127034E-018
  -17.4100000000000        -1.364211045561021E-018
  -17.2200000000000        -1.371311776327643E-018
  -17.0300000000000        -1.385099923475749E-018
  -16.8400000000000        -1.390752743887233E-018
  -16.6500000000000        -1.380797713151789E-018
  -16.4600000000000        -1.362542059199898E-018
  -16.2700000000000        -1.351398705345086E-018
  -16.0800000000000        -1.356457283363647E-018
  -15.8900000000000        -1.372063444741701E-018
  -15.7000000000000        -1.383416655065873E-018
  -15.5100000000000        -1.380802273090427E-018
  -15.3200000000000        -1.368844767718707E-018
  -15.1300000000000        -1.361942576188785E-018
  -14.9400000000000        -1.370257467181954E-018
  -14.7500000000000        -1.389679259014327E-018
  -14.5600000000000        -1.405415439334448E-018
  -14.3700000000000        -1.405838373839732E-018
  -14.1800000000000        -1.393402542722553E-018
  -13.9900000000000        -1.382227083410605E-018
  -13.8000000000000        -1.384660958101352E-018
  -13.6100000000000        -1.399642072272607E-018
  -13.4200000000000        -1.413919158899332E-018
  -13.2300000000000        -1.414909693134339E-018
  -13.0400000000000        -1.402856008601265E-018
  -12.8500000000000        -1.390623145949534E-018
  -12.6600000000000        -1.391316349187949E-018
  -12.4700000000000        -1.405573484464834E-018
  -12.2800000000000        -1.420726232357220E-018
  -12.0900000000000        -1.422690377585064E-018
  -11.9000000000000        -1.409277346454825E-018
  -11.7100000000000        -1.392243369354034E-018
  -11.5200000000000        -1.386124768423348E-018
  -11.3300000000000        -1.394512000005118E-018
  -11.1400000000000        -1.406859028335883E-018
  -10.9500000000000        -1.408858416478638E-018
  -10.7600000000000        -1.396443586089416E-018
  -10.5700000000000        -1.380007801124625E-018
  -10.3800000000000        -1.374772924053685E-018
  -10.1900000000000        -1.386466164122441E-018
  -10.0000000000000        -1.405946596340709E-018
  -9.81000000000000        -1.417895819072356E-018
  -9.62000000000000        -1.415278888099472E-018
  -9.42999999999999        -1.405781588365449E-018
  -9.23999999999999        -1.404104036380256E-018
  -9.05000000000000        -1.417519477547960E-018
  -8.86000000000000        -1.438548872591291E-018
  -8.67000000000000        -1.451793169642544E-018
  -8.48000000000000        -1.448430746978488E-018
  -8.28999999999999        -1.434560905498933E-018
  -8.09999999999999        -1.425431088303783E-018
  -7.91000000000000        -1.431034709735142E-018
  -7.72000000000000        -1.446794602255490E-018
  -7.53000000000000        -1.458196256001317E-018
  -7.34000000000000        -1.454910381249362E-018
  -7.15000000000001        -1.440875654489209E-018
  -6.95999999999999        -1.430684768492764E-018
  -6.77000000000000        -1.435718946625763E-018
  -6.58000000000000        -1.453269104218124E-018
  -6.39000000000000        -1.469029477652176E-018
  -6.20000000000000        -1.470600095446447E-018
  -6.01000000000001        -1.459143043323244E-018
  -5.81999999999999        -1.448097237230034E-018
  -5.63000000000000        -1.450202415628198E-018
  -5.44000000000000        -1.465241444263171E-018
  -5.25000000000000        -1.480208557503631E-018
  -5.06000000000000        -1.481717994102957E-018
  -4.87000000000000        -1.468772675012152E-018
  -4.67999999999999        -1.453692842018194E-018
  -4.48999999999999        -1.450332710629613E-018
  -4.30000000000000        -1.460855191645079E-018
  -4.11000000000000        -1.473710859326862E-018
  -3.92000000000000        -1.474765159449297E-018
  -3.73000000000000        -1.460945209526753E-018
  -3.53999999999999        -1.443352086428186E-018
  -3.34999999999999        -1.436841358739809E-018
  -3.16000000000000        -1.445999650143941E-018
  -2.97000000000000        -1.460879631262994E-018
  -2.78000000000000        -1.466532908812292E-018
  -2.59000000000000        -1.457218651229716E-018
  -2.40000000000001        -1.441725943182691E-018
  -2.20999999999999        -1.434758828009048E-018
  -2.02000000000000        -1.442665907258212E-018
  -1.83000000000000        -1.457207339277091E-018
  -1.64000000000000        -1.463360272258252E-018
  -1.45000000000000        -1.453727051457841E-018
  -1.26000000000001        -1.435782360076146E-018
  -1.06999999999999        -1.425017914552731E-018
 -0.879999999999995        -1.430493142497083E-018
 -0.689999999999998        -1.446540228632065E-018
 -0.500000000000000        -1.458489831538178E-018
 -0.310000000000002        -1.456886977763057E-018
 -0.120000000000005        -1.446558567723417E-018
  7.000000000000739E-002   -1.441840856500560E-018
  0.260000000000005        -1.452543639397180E-018
  0.450000000000003        -1.474113296213052E-018
  0.640000000000001        -1.491466847439770E-018
  0.829999999999998        -1.492924549065923E-018
   1.02000000000000        -1.481015328710550E-018
   1.21000000000001        -1.469877398376514E-018
   1.40000000000001        -1.471738350919657E-018
   1.59000000000000        -1.485370324576236E-018
   1.78000000000000        -1.497514569340466E-018
   1.97000000000000        -1.495859149174929E-018
   2.16000000000000        -1.481112377168427E-018
   2.34999999999999        -1.466598653054106E-018
   2.54000000000001        -1.465738904110463E-018
   2.73000000000000        -1.479354333782402E-018
   2.92000000000000        -1.494916413836375E-018
   3.11000000000000        -1.498479998571930E-018
   3.30000000000000        -1.487924324005603E-018
   3.48999999999999        -1.474861474941290E-018
   3.68000000000001        -1.473395511457166E-018
   3.87000000000000        -1.486487190234629E-018
   4.06000000000000        -1.502964731488297E-018
   4.25000000000000        -1.508045659345702E-018
   4.44000000000000        -1.497338870255820E-018
   4.63000000000000        -1.480980302953687E-018
   4.82000000000001        -1.473964338654745E-018
   5.01000000000001        -1.481898571203373E-018
   5.20000000000000        -1.495779247333217E-018
   5.39000000000000        -1.500769732405690E-018
   5.58000000000000        -1.490579435991371E-018
   5.77000000000000        -1.473686359760414E-018
   5.96000000000001        -1.465442800650955E-018
   6.15000000000001        -1.473584432745110E-018
   6.34000000000000        -1.490950590125156E-018
   6.53000000000000        -1.502336152397936E-018