  -105.000000000000         0.000000000000000E+000
  -104.810000000000        -1.436862705139677E-020
  -104.620000000000        -3.962051858618941E-020
  -104.430000000000        -6.995650859587669E-020
  -104.240000000000        -9.888862904493735E-020
  -104.050000000000        -1.210463007994921E-019
  -103.860000000000        -1.336435083611359E-019
  -103.670000000000        -1.371853729509089E-019
  -103.480000000000        -1.352137194358534E-019
  -103.290000000000        -1.331706746918269E-019
  -103.100000000000        -1.367154341319179E-019
  -102.910000000000        -1.499872818633030E-019
  -102.720000000000        -1.743219827236877E-019
  -102.530000000000        -2.077954174205388E-019
  -102.340000000000        -2.457272505011959E-019
  -102.150000000000        -2.819986117590614E-019
  -101.960000000000        -3.108015692822023E-019
  -101.770000000000        -3.283124325135418E-019
  -101.580000000000        -3.338019931686108E-019
  -101.390000000000        -3.298580992238338E-019
  -101.200000000000        -3.216530884286175E-019
  -101.010000000000        -3.154662262042483E-019
  -100.820000000000        -3.168883418916917E-019
  -100.630000000000        -3.292285108707328E-019
  -100.440000000000        -3.525836150173230E-019
  -100.250000000000        -3.838385119460734E-019
  -100.060000000000        -4.175942456852678E-019
  -99.8700000000000        -4.477531290111220E-019
  -99.6800000000000        -4.693002333072405E-019
  -99.4900000000000        -4.797649516144883E-019
  -99.3000000000000        -4.799394538481971E-019
  -99.1100000000000        -4.736460981798502E-019
  -98.9200000000000        -4.666214397540458E-019
  -98.7300000000000        -4.648410283701269E-019
  -98.5400000000000        -4.727721720900937E-019
  -98.3500000000000        -4.920632958483439E-019
  -98.1600000000000        -5.210516596971972E-019
  -97.9700000000000        -5.552329108337811E-019
  -97.7800000000000        -5.885559775204000E-019
  -97.5900000000000        -6.151669976124741E-019
  -97.4000000000000        -6.310959757130491E-019
  -97.2100000000000        -6.353969332458512E-019
  -97.0200000000000        -6.304109679342889E-019
  -96.8300000000000        -6.210758084489207E-019
  -96.6400000000000        -6.134818909414992E-019
  -96.4500000000000        -6.130939529567378E-019
  -96.2600000000000        -6.231550023982989E-019
  -96.0700000000000        -6.437372841321969E-019
  -95.8800000000000        -6.717171382076791E-019
  -95.6900000000000        -7.016818586907714E-019
  -95.5000000000000        -7.275053260595463E-019
  -95.3100000000000        -7.441346428717133E-019
  -95.1200000000000        -7.490688327853830E-019
  -94.9300000000000        -7.431001363809097E-019
  -94.7400000000000        -7.301020293756075E-019
  -94.5500000000000        -7.159238280644407E-019
  -94.3600000000000        -7.067102505923903E-019
  -94.1700000000000        -7.071312321020311E-019
  -93.9800000000000        -7.190343119983118E-019
  -93.7900000000000        -7.409106086089938E-019
  -93.6000000000000        -7.683301777961025E-019
  -93.4100000000000        -7.952213366841589E-019
  -93.2200000000000        -8.156233515673551E-019
  -93.0300000000000        -8.254046512844325E-019
  -92.8400000000000        -8.234495552456269E-019
  -92.6500000000000        -8.119717384255011E-019
  -92.4600000000000        -7.958663786667577E-019
  -92.2700000000000        -7.812910784325478E-019
  -92.0800000000000        -7.738878741426724E-019
  -91.8900000000000        -7.771613327380790E-019
  -91.7000000000000        -7.914817783420092E-019
  -91.5100000000000        -8.140013775965531E-019
  -91.3200000000000        -8.395060742428794E-019
  -91.1300000000000        -8.619544359011336E-019
  -90.9400000000000        -8.762543822203322E-019
  -90.7500000000000        -8.797592433269538E-019
  -90.5600000000000        -8.730463676219168E-019
  -90.3700000000000        -8.597507326683891E-019
  -90.1800000000000        -8.455013635581646E-019
  -89.9900000000000        -8.362693171451086E-019
  -89.8000000000000        -8.366067674717281E-019
  -89.6100000000000        -8.482883134714824E-019
  -89.4200000000000        -8.697494573669807E-019
  -89.2300000000000        -8.964870170876185E-019
  -89.0400000000000        -9.223082768656536E-019
  -88.8500000000000        -9.410700336420591E-019
  -88.6600000000000        -9.484065786945441E-019
  -88.4700000000000        -9.429487029556660E-019
  -88.2800000000000        -9.266835485218076E-019
  -88.0900000000000        -9.043546567587150E-019
  -87.9000000000000        -8.820799909401359E-019
  -87.7100000000000        -8.655917192080049E-019
  -87.5200000000000        -8.586095446489264E-019
  -87.3300000000000        -8.618186479918328E-019
  -87.1400000000000        -8.727463997781506E-019
  -86.9500000000000        -8.865704185151518E-019
  -86.7600000000000        -8.976197739660582E-019
  -86.5700000000000        -9.011292015062784E-019
  -86.3800000000000        -8.947316408203240E-019
  -86.1900000000000        -8.792494379308673E-019
  -86.0000000000000        -8.585481477568470E-019
  -85.8100000000000        -8.384902192993963E-019
  -85.6200000000000        -8.252890184154027E-019
  -85.4300000000000        -8.237392889775863E-019
  -85.2400000000000        -8.358367993456144E-019
  -85.0500000000000        -8.601872945074312E-019
  -84.8600000000000        -8.923764225247149E-019
  -84.6700000000000        -9.261947114050372E-019
  -84.4800000000000        -9.553651368968433E-019
  -84.2900000000000        -9.752760864253391E-019
  -84.1000000000000        -9.842210636151369E-019
  -83.9100000000000        -9.837889688582038E-019
  -83.7200000000000        -9.782947025855576E-019
  -83.5300000000000        -9.734184149979650E-019
  -83.3400000000000        -9.744519801042747E-019
  -83.1500000000000        -9.846657014668793E-019
  -82.9600000000000        -1.004273109875948E-018
  -82.7700000000000        -1.030297236474112E-018
  -82.5800000000000        -1.057379129444800E-018
  -82.3900000000000        -1.079295416587586E-018
  -82.2000000000000        -1.090745977868585E-018
  -82.0100000000000        -1.088894458844419E-018
  -81.8200000000000        -1.074215528035484E-018
  -81.6300000000000        -1.050402695119042E-018
  -81.4400000000000        -1.023361651534548E-018
  -81.2500000000000        -9.995783933772324E-019
  -81.0600000000000        -9.843323125923702E-019
  -80.8700000000000        -9.802691600517360E-019
  -80.6800000000000        -9.867438806796609E-019
  -80.4900000000000        -1.000119206385639E-018
  -80.3000000000000        -1.014928107360705E-018
  -80.1100000000000        -1.025557930002363E-018
  -79.9200000000000        -1.027963897140312E-018
  -79.7300000000000        -1.020912474678509E-018
  -79.5400000000000        -1.006392244973915E-018
  -79.3500000000000        -9.890714825796299E-019
  -79.1600000000000        -9.749581097397327E-019
  -78.9700000000000        -9.696495961968705E-019
  -78.7800000000000        -9.766805641001590E-019
  -78.5900000000000        -9.964490179713123E-019
  -78.4000000000000        -1.026035343112828E-018
  -78.2100000000000        -1.059969649712163E-018
  -78.0200000000000        -1.091728136850804E-018
  -77.8300000000000        -1.115528295751289E-018
  -77.6400000000000        -1.127907255361837E-018
  -77.4500000000000        -1.128631619234057E-018
  -77.2600000000000        -1.120681349129504E-018
  -77.0700000000000        -1.109317878198375E-018
  -76.8800000000000        -1.100510397681636E-018
  -76.6900000000000        -1.099178504927638E-018
  -76.5000000000000        -1.107761369530296E-018
  -76.3100000000000        -1.125528113575249E-018
  -76.1200000000000        -1.148828173790940E-018
  -75.9300000000000        -1.172206062562396E-018
  -75.7400000000000        -1.190051961021460E-018
  -75.5500000000000        -1.198302238812354E-018
  -75.3600000000000        -1.195688811220809E-018
  -75.1700000000000        -1.184167824533325E-018
  -74.9800000000000        -1.168397810788899E-018
  -74.7900000000000        -1.154414932811629E-018
  -74.6000000000000        -1.147887487094968E-018
  -74.4100000000000        -1.152455695262033E-018
  -74.2200000000000        -1.168640341253763E-018
  -74.0300000000000        -1.193641214736964E-018
  -73.8400000000000        -1.222089989883442E-018
  -73.6500000000000        -1.247545859476063E-018
  -73.4600000000000        -1.264306170260016E-018
  -73.2700000000000        -1.269011774431908E-018
  -73.0800000000000        -1.261585346408769E-018
  -72.8900000000000        -1.245233745963224E-018
  -72.7000000000000        -1.225516336558073E-018
  -72.5100000000000        -1.208750925173385E-018
  -72.3200000000000        -1.200219360526724E-018
  -72.1300000000000        -1.202691062182472E-018
  -71.9400000000000        -1.215689090334242E-018
  -71.7500000000000        -1.235707107594646E-018
  -71.5600000000000        -1.257309139131312E-018
  -71.3700000000000        -1.274787205334738E-018
  -71.1800000000000        -1.283889195232803E-018
  -70.9900000000000        -1.283108540417015E-018
  -70.8000000000000        -1.274155105988614E-018
  -70.6100000000000        -1.261466321067598E-018
  -70.4200000000000        -1.250898734123845E-018
  -70.2300000000000        -1.247980316744452E-018
  -70.0400000000000        -1.256232798955331E-018
  -69.8500000000000        -1.276054059664615E-018
  -69.6600000000000        -1.304489478975492E-018
  -69.4700000000000        -1.335965309138176E-018
  -69.2800000000000        -1.363780290439062E-018
  -69.0900000000000        -1.381933185179464E-018
  -68.9000000000000        -1.386766234616831E-018
  -68.7100000000000        -1.377956208601461E-018
  -68.5200000000000        -1.358571565672931E-018
  -68.3300000000000        -1.334182824156303E-018
  -68.1400000000000        -1.311285757823348E-018
  -67.9500000000000        -1.295494046282022E-018
  -67.7600000000000        -1.290022107493984E-018
  -67.5700000000000        -1.294891685125092E-018
  -67.3800000000000        -1.307083368742346E-018
  -67.1900000000000        -1.321578878727977E-018
  -67.0000000000000        -1.332981595289393E-018
  -66.8100000000000        -1.337235848161485E-018
  -66.6200000000000        -1.332937760255675E-018
  -66.4300000000000        -1.321849932268777E-018
  -66.2400000000000        -1.308464698068885E-018
  -66.0500000000000        -1.298738952077976E-018
  -65.8600000000000        -1.298366681152381E-018
  -65.6700000000000        -1.311092004805501E-018
  -65.4800000000000        -1.337555259388752E-018
  -65.2900000000000        -1.375010214358202E-018
  -65.1000000000000        -1.417997315647274E-018
  -64.9100000000000        -1.459780343929110E-018
  -64.7200000000000        -1.494133107846724E-018
  -64.5300000000000        -1.516962624507284E-018
  -64.3400000000000        -1.527304184552245E-018
  -64.1500000000000        -1.527407187267327E-018
  -63.9600000000000        -1.521895419564794E-018
  -63.7700000000000        -1.516254821640022E-018
  -63.5800000000000        -1.515097390641164E-018
  -63.3900000000000        -1.520714374040042E-018
  -63.2000000000000        -1.532346025559987E-018
  -63.0100000000000        -1.546384004780876E-018
  -62.8200000000000        -1.557448265553590E-018
  -62.6300000000000        -1.560023733828682E-018
  -62.4400000000000        -1.550178140013027E-018
  -62.2500000000000        -1.526858142791764E-018
  -62.0600000000000        -1.492382459546870E-018
  -61.8700000000000        -1.451982217563301E-018
  -61.6800000000000        -1.412513186786192E-018
  -61.4900000000000        -1.380703121667080E-018
  -61.3000000000000        -1.361431592320990E-018
  -61.1100000000000        -1.356530518573389E-018
  -60.9200000000000        -1.364443322652960E-018
  -60.7300000000000        -1.380832461001725E-018
  -60.5400000000000        -1.399951229117596E-018
  -60.3500000000000        -1.416375994219181E-018
  -60.1600000000000        -1.426593251952316E-018
  -59.9700000000000        -1.429981168801713E-018
  -59.7800000000000        -1.428903580906911E-018
  -59.5900000000000        -1.427893490104225E-018
  -59.4000000000000        -1.432168095614243E-018
  -59.2100000000000        -1.445912491256907E-018
  -59.0200000000000        -1.470838612333279E-018
  -58.8300000000000        -1.505449538361929E-018
  -58.6400000000000        -1.545237847269724E-018
  -58.4500000000000        -1.583777321903103E-018
  -58.2600000000000        -1.614407224126984E-018
  -58.0700000000000        -1.632033240929465E-018
  -57.8800000000000        -1.634530841996533E-018
  -57.6900000000000        -1.623347237825946E-018
  -57.5000000000000        -1.603125751767943E-018
  -57.3100000000000        -1.580455273354186E-018
  -57.1200000000000        -1.562096956292425E-018
  -56.9300000000000        -1.553188727200728E-018
  -56.7400000000000        -1.555933004652531E-018
  -56.5500000000000        -1.569132978843034E-018
  -56.3600000000000        -1.588698080144757E-018
  -56.1700000000000        -1.608960311212898E-018
  -55.9800000000000        -1.624410621545725E-018
  -55.7900000000000        -1.631346095921658E-018
  -55.6000000000000        -1.628948921633724E-018
  -55.4100000000000        -1.619487708449995E-018
  -55.2200000000000        -1.607590516079427E-018
  -55.0300000000000        -1.598810797920381E-018
  -54.8400000000000        -1.597913199896367E-018
  -54.6500000000000        -1.607386590574156E-018
  -54.4600000000000        -1.626624439182653E-018
  -54.2700000000000        -1.652017883386336E-018
  -54.0800000000000        -1.677941001468964E-018
  -53.8900000000000        -1.698347468735008E-018
  -53.7000000000000        -1.708518066946149E-018
  -53.5100000000000        -1.706451879401857E-018
  -53.3200000000000        -1.693494763399923E-018
  -53.1300000000000        -1.674018153007077E-018
  -52.9400000000000        -1.654235573449539E-018
  -52.7500000000000        -1.640493227989004E-018
  -52.5600000000000        -1.637522024667047E-018
  -52.3700000000000        -1.647148042612827E-018
  -52.1800000000000        -1.667824974240851E-018
  -51.9900000000000        -1.695115123491120E-018
  -51.8000000000000        -1.722973695986931E-018
  -51.6100000000000        -1.745462129482833E-018
  -51.4200000000000        -1.758395297693556E-018
  -51.2300000000000        -1.760449187478107E-018
  -51.0400000000000        -1.753414157779910E-018
  -50.8500000000000        -1.741528803177325E-018
  -50.6600000000000        -1.730098499348180E-018
  -50.4700000000000        -1.723812368940556E-018
  -50.2800000000000        -1.725260955102794E-018
  -50.0900000000000        -1.734097957930420E-018
  -49.9000000000000        -1.747099980037558E-018
  -49.7100000000000        -1.759113625012855E-018
  -49.5200000000000        -1.764616700484162E-018
  -49.3300000000000        -1.759436383492652E-018
  -49.1400000000000        -1.742116119830649E-018
  -48.9500000000000        -1.714520642483630E-018
  -48.7600000000000        -1.681487600312765E-018
  -48.5700000000000        -1.649611923821822E-018
  -48.3800000000000        -1.625504228253829E-018
  -48.1900000000000        -1.614021731371638E-018
  -48.0000000000000        -1.616981973175036E-018
  -47.8100000000000        -1.632731674154687E-018
  -47.6200000000000        -1.656695642405458E-018
  -47.4300000000000        -1.682746480020017E-018
  -47.2400000000000        -1.704998122296956E-018
  -47.0500000000000        -1.719503924700703E-018
  -46.8600000000000        -1.725368027894691E-018
  -46.6700000000000        -1.724948563266655E-018
  -46.4800000000000        -1.723093950994769E-018
  -46.2900000000000        -1.725633692839680E-018
  -46.1000000000000        -1.737561940773211E-018
  -45.9100000000000        -1.761442585158031E-018
  -45.7200000000000        -1.796501712105616E-018
  -45.5300000000000        -1.838674820700629E-018
  -45.3400000000000        -1.881599918032191E-018
  -45.1500000000000        -1.918274249346268E-018
  -44.9600000000000        -1.942901638255933E-018
  -44.7700000000000        -1.952404188031939E-018
  -44.5800000000000        -1.947170841590979E-018
  -44.3900000000000        -1.930836388131572E-018
  -44.2000000000000        -1.909163618311257E-018
  -44.0100000000000        -1.888358196693642E-018
  -43.8200000000000        -1.873306913918870E-018
  -43.6300000000000        -1.866249204385424E-018
  -43.4400000000000        -1.866263668672558E-018
  -43.2500000000000        -1.869712773427060E-018
  -43.0600000000000        -1.871509022225185E-018
  -42.8700000000000        -1.866826107929158E-018
  -42.6800000000000        -1.852748679303295E-018
  -42.4900000000000        -1.829371878898454E-018
  -42.3000000000000        -1.800021042629890E-018
  -42.1100000000000        -1.770516261003021E-018
  -41.9200000000000        -1.747682404712356E-018
  -41.7300000000000        -1.737523606161653E-018
  -41.5400000000000        -1.743579624526809E-018
  -41.3500000000000        -1.765931697950336E-018
  -41.1600000000000        -1.801141289395189E-018
  -40.9700000000000        -1.843139097744911E-018
  -40.7800000000000        -1.884810512194823E-018
  -40.5900000000000        -1.919826189609586E-018
  -40.4000000000000        -1.944200262173417E-018
  -40.2100000000000        -1.957142745704318E-018
  -40.0200000000000        -1.960981515062011E-018
  -39.8300000000000        -1.960200786639135E-018
  -39.6400000000000        -1.959897777743387E-018
  -39.4500000000000        -1.964123386365857E-018
  -39.2600000000000        -1.974599783688274E-018
  -39.0700000000000        -1.990191159991831E-018
  -38.8800000000000        -2.007278210484946E-018
  -38.6900000000000        -2.020918173794284E-018
  -38.5000000000000        -2.026438783815989E-018
  -38.3100000000000        -2.020984895282832E-018
  -38.1200000000000        -2.004549192217766E-018
  -37.9300000000000        -1.980169790488646E-018
  -37.7400000000000        -1.953223040917984E-018
  -37.5500000000000        -1.930006887971372E-018
  -37.3600000000000        -1.916020120988619E-018
  -37.1700000000000        -1.914434517824946E-018
  -36.9800000000000        -1.925204048215328E-018
  -36.7900000000000        -1.945073708818453E-018
  -36.6000000000000        -1.968492595362287E-018
  -36.4100000000000        -1.989175445015500E-018
  -36.2200000000000        -2.001868934407678E-018
  -36.0300000000000        -2.003818101420768E-018
  -35.8400000000000        -1.995512900684001E-018
  -35.6500000000000        -1.980501606702796E-018
  -35.4600000000000        -1.964327134920650E-018
  -35.2700000000000        -1.952895992415811E-018
  -35.0800000000000        -1.950753322562255E-018
  -34.8900000000000        -1.959763609549663E-018
  -34.7000000000000        -1.978577801297625E-018
  -34.5100000000000        -2.003038823920085E-018
  -34.3200000000000        -2.027405144657873E-018
  -34.1300000000000        -2.046034777306313E-018
  -33.9400000000000        -2.055038218120314E-018
  -33.7500000000000        -2.053416995630329E-018
  -33.5600000000000        -2.043353010491344E-018
  -33.3700000000000        -2.029560447824665E-018
  -33.1800000000000        -2.017885694463681E-018
  -32.9900000000000        -2.013561633366232E-018
  -32.8000000000000        -2.019625957107483E-018
  -32.6100000000000        -2.035968089761025E-018
  -32.4200000000000        -2.059288768834202E-018
  -32.2300000000000        -2.083992674258240E-018
  -32.0400000000000        -2.103764005926389E-018
  -31.8500000000000        -2.113375623483200E-018
  -31.6600000000000        -2.110211715836424E-018
  -31.4700000000000        -2.095062731787398E-018
  -31.2800000000000        -2.071957742993770E-018
  -31.0900000000000        -2.047075041677308E-018
  -30.9000000000000        -2.027037443948419E-018
  -30.7100000000000        -2.017077240801429E-018
  -30.5200000000000        -2.019594532300809E-018
  -30.3300000000000        -2.033520025009500E-018
  -30.1400000000000        -2.054662014140874E-018
  -29.9500000000000        -2.076934756756284E-018
  -29.7600000000000        -2.094113851077660E-018
  -29.5700000000000        -2.101615804043761E-018
  -29.3800000000000        -2.097795299150778E-018
  -29.1900000000000        -2.084394586064069E-018
  -29.0000000000000        -2.066023825328364E-018
  -28.8100000000000        -2.048829094465838E-018
  -28.6200000000000        -2.038736685295113E-018
  -28.4300000000000        -2.039781774270901E-018
  -28.2400000000000        -2.053001931559489E-018
  -28.0500000000000        -2.076209011763030E-018
  -27.8600000000000        -2.104695296671157E-018
  -27.6700000000000        -2.132656884174662E-018
  -27.4800000000000        -2.154909346138085E-018
  -27.2900000000000        -2.168388237524293E-018
  -27.1000000000000        -2.172993433745519E-018
  -26.9100000000000        -2.171531209402284E-018
  -26.7200000000000        -2.168774085557272E-018
  -26.5300000000000        -2.169918221826541E-018
  -26.3400000000000        -2.178896086827131E-018
  -26.1500000000000        -2.197046501946475E-018
  -25.9600000000000        -2.222541618082758E-018
  -25.7700000000000        -2.250750333480360E-018
  -25.5800000000000        -2.275444129725029E-018
  -25.3900000000000        -2.290504449249247E-018
  -25.2000000000000        -2.291643001297136E-018
  -25.0100000000000        -2.277640841800476E-018
  -24.8200000000000        -2.250749866980132E-018
  -24.6300000000000        -2.216140838299250E-018
  -24.4400000000000        -2.180555181336864E-018
  -24.2500000000000        -2.150544795038938E-018
  -24.0600000000000        -2.130800048391849E-018
  -23.8700000000000        -2.123038091273810E-018
  -23.6800000000000        -2.125759671222347E-018
  -23.4900000000000        -2.134929885395379E-018
  -23.3000000000000        -2.145369792269750E-018
  -23.1100000000000        -2.152439873500876E-018
  -22.9200000000000        -2.153513493453809E-018
  -22.7300000000000        -2.148803230014872E-018
  -22.5400000000000        -2.141296066725762E-018
  -22.3500000000000        -2.135817777928946E-018
  -22.1600000000000        -2.137504568765519E-018
  -21.9700000000000        -2.150135962212481E-018
  -21.7800000000000        -2.174826317019325E-018
  -21.5900000000000        -2.209470902009096E-018
  -21.4000000000000        -2.249125214329898E-018
  -21.2100000000000        -2.287225391359908E-018
  -21.0200000000000        -2.317311089852083E-018
  -20.8300000000000        -2.334761812832089E-018
  -20.6400000000000        -2.338048052903947E-018
  -20.4500000000000        -2.329133924375596E-018
  -20.2600000000000        -2.312909793574223E-018
  -20.0700000000000        -2.295811739815950E-018
  -19.8800000000000        -2.284018515394568E-018
  -19.6900000000000        -2.281738185977340E-018
  -19.5000000000000        -2.290070872228003E-018
  -19.3100000000000        -2.306768634751888E-018
  -19.1200000000000        -2.326956203235000E-018
  -18.9300000000000        -2.344600780392549E-018
  -18.7400000000000        -2.354304542439751E-018
  -18.5500000000000        -2.352901502371287E-018
  -18.3600000000000        -2.340398029849754E-018
  -18.1700000000000        -2.319987399247175E-018
  -17.9800000000000        -2.297138032055737E-018
  -17.7900000000000        -2.278024030616622E-018
  -17.6000000000000        -2.267756511904446E-018
  -17.4100000000000        -2.268929936691585E-018
  -17.2200000000000        -2.280903614108298E-018
  -17.0300000000000        -2.300023212316854E-018
  -16.8400000000000        -2.320713666225843E-018
  -16.6500000000000        -2.337122578988165E-018
  -16.4600000000000        -2.344834493747853E-018
  -16.2700000000000        -2.342156657945918E-018
  -16.0800000000000        -2.330601861561699E-018
  -15.8900000000000        -2.314427791027826E-018
  -15.7000000000000        -2.299367447841837E-018
  -15.5100000000000        -2.290921353393894E-018
  -15.3200000000000        -2.292710356098356E-018
  -15.1300000000000        -2.305370393872815E-018
  -14.9400000000000        -2.326312935261354E-018
  -14.7500000000000        -2.350423500366217E-018
  -14.5600000000000        -2.371499033021674E-018
  -14.3700000000000        -2.384011431353919E-018
  -14.1800000000000        -2.384690270297247E-018
  -13.9900000000000        -2.373469340263940E-018
  -13.8000000000000        -2.353524230062426E-018
  -13.6100000000000        -2.330389593368446E-018
  -13.4200000000000        -2.310409926747602E-018
  -13.2300000000000        -2.298969978219308E-018
  -13.0400000000000        -2.299014079378832E-018
  -12.8500000000000        -2.310278775394526E-018
  -12.6600000000000        -2.329454634544643E-018
  -12.4700000000000        -2.351222212039570E-018
  -12.2800000000000        -2.369853336266439E-018
  -12.0900000000000        -2.380906212163877E-018
  -11.9000000000000        -2.382518134189950E-018
  -11.7100000000000        -2.375919321859083E-018
  -11.5200000000000        -2.365020294902917E-018
  -11.3300000000000        -2.355196845083054E-018
  -11.1400000000000        -2.351632391957005E-018
  -10.9500000000000        -2.357708729990617E-018
  -10.7600000000000        -2.373923991532870E-018
  -10.5700000000000        -2.397663667171597E-018
  -10.3800000000000        -2.423900874834884E-018
  -10.1900000000000        -2.446628839557105E-018
  -10.0000000000000        -2.460612057595798E-018
  -9.81000000000000        -2.462946439010489E-018
  -9.62000000000000        -2.453970943265352E-018
  -9.42999999999999        -2.437258540224431E-018
  -9.23999999999999        -2.418678990965049E-018
  -9.05000000000000        -2.404793651077878E-018
  -8.86000000000000        -2.401036270362889E-018
  -8.67000000000000        -2.410197611331561E-018
  -8.48000000000000        -2.431646587177301E-018
  -8.28999999999999        -2.461510342444180E-018
  -8.09999999999999        -2.493760674355475E-018
  -7.91000000000000        -2.521894156442373E-018
  -7.72000000000000        -2.540723953433733E-018
  -7.53000000000000        -2.547771749497264E-018
  -7.34000000000000        -2.543866447382190E-018
  -7.15000000000001        -2.532787087245630E-018
  -6.95999999999999        -2.520063297832755E-018
  -6.77000000000000        -2.511288010569361E-018
  -6.58000000000000        -2.510435407695760E-018
  -6.39000000000000        -2.518673207725565E-018
  -6.20000000000000        -2.534013830979571E-018
  -6.01000000000001        -2.551905083907202E-018
  -5.81999999999999        -2.566587674010482E-018
  -5.63000000000000        -2.572823084518315E-018
  -5.44000000000000        -2.567486480862832E-018
  -5.25000000000000        -2.550557719713793E-018
  -5.06000000000000        -2.525218284286176E-018
  -4.87000000000000        -2.497021875759584E-018
  -4.67999999999999        -2.472375373414203E-018
  -4.48999999999999        -2.456766738107592E-018
  -4.30000000000000        -2.453249649201323E-018
  -4.11000000000000        -2.461620611181627E-018
  -3.92000000000000        -2.478524643878467E-018
  -3.73000000000000        -2.498457985135749E-018
  -3.53999999999999        -2.515377449768084E-018
  -3.34999999999999        -2.524450941270389E-018
  -3.16000000000000        -2.523443218044426E-018
  -2.97000000000000        -2.513337606824952E-018
  -2.78000000000000        -2.498017081709024E-018
  -2.59000000000000        -2.483101853383720E-018
  -2.40000000000001        -2.474285251423701E-018
  -2.20999999999999        -2.475653972013069E-018
  -2.02000000000000        -2.488481195615741E-018
  -1.83000000000000        -2.510841736680249E-018
  -1.64000000000000        -2.538158364822570E-018
  -1.45000000000000        -2.564517479720689E-018
  -1.26000000000001        -2.584368753807545E-018
  -1.06999999999999        -2.594111933490731E-018
 -0.879999999999995        -2.593107385235571E-018
 -0.689999999999998        -2.583815941581285E-018
 -0.500000000000000        -2.571029079696421E-018
 -0.310000000000002        -2.560417559601623E-018
 -0.120000000000005        -2.556826679793841E-018
  7.000000000000739E-002   -2.562820350445453E-018
  0.260000000000005        -2.577902787195691E-018
  0.450000000000003        -2.598647940334538E-018
  0.640000000000001        -2.619701300147283E-018
  0.829999999999998        -2.635363646656713E-018
   1.02000000000000        -2.641295261187562E-018
   1.21000000000001        -2.635841514241163E-018
   1.40000000000001        -2.620587981246081E-018
   1.59000000000000        -2.599975191428667E-018
   1.78000000000000        -2.580076202840711E-018
   1.97000000000000        -2.566885156774562E-018
   2.16000000000000        -2.564609790918062E-018
   2.34999999999999        -2.574462424230623E-018
   2.54000000000001        -2.594301210630518E-018
   2.73000000000000        -2.619228152427146E-018
   2.92000000000000        -2.642974073101426E-018
   3.11000000000000        -2.659673659685269E-018
   3.30000000000000        -2.665521233571600E-018
   3.48999999999999        -2.659832184994093E-018
   3.68000000000001        -2.645205963333174E-018
   3.87000000000000        -2.626745136419515E-018
   4.06000000000000        -2.610557221106030E-018
   4.25000000000000        -2.601973342007827E-018
   4.44000000000000        -2.603999934594073E-018
   4.63000000000000        -2.616452207350937E-018
   4.82000000000001        -2.636020100161772E-018
   5.01000000000001        -2.657246588409284E-018
   5.20000000000000        -2.674133389313627E-018
   5.39000000000000        -2.681907454010018E-018
   5.58000000000000        -2.678435444297010E-018
   5.77000000000000        -2.664875417109454E-018
   5.96000000000001        -2.645375227428633E-018
   6.15000000000001        -2.625902251133070E-018
   6.34000000000000        -2.612540018573058E-018
   6.53000000000000        -2.609741981161400E-018