  -105.000000000000         0.000000000000000E+000
  -104.810000000000        -1.436862705139676E-020
  -104.620000000000        -3.962051858618939E-020
  -104.430000000000        -6.995650859587670E-020
  -104.240000000000        -9.888862904491807E-020
  -104.050000000000        -1.210463007994900E-019
  -103.860000000000        -1.336435083612488E-019
  -103.670000000000        -1.371853729510086E-019
  -103.480000000000        -1.352137194355164E-019
  -103.290000000000        -1.331706746911404E-019
  -103.100000000000        -1.367154341324214E-019
  -102.910000000000        -1.499872818674022E-019
  -102.720000000000        -1.743219827322907E-019
  -102.530000000000        -2.077954174307655E-019
  -102.340000000000        -2.457272505062782E-019
  -102.150000000000        -2.819986117511557E-019
  -101.960000000000        -3.108015692571214E-019
  -101.770000000000        -3.283124324749092E-019
  -101.580000000000        -3.338019931286482E-019
  -101.390000000000        -3.298580992000167E-019
  -101.200000000000        -3.216530884379991E-019
  -101.010000000000        -3.154662262570034E-019
  -100.820000000000        -3.168883419828624E-019
  -100.630000000000        -3.292285109686441E-019
  -100.440000000000        -3.525836150511566E-019
  -100.250000000000        -3.838385118010949E-019
  -100.060000000000        -4.175942452169412E-019
  -99.8700000000000        -4.477531280838484E-019
  -99.6800000000000        -4.693002318487946E-019
  -99.4900000000000        -4.797649496608961E-019
  -99.3000000000000        -4.799394515487006E-019
  -99.1100000000000        -4.736460957442309E-019
  -98.9200000000000        -4.666214373489590E-019
  -98.7300000000000        -4.648410259960292E-019
  -98.5400000000000        -4.727721694871017E-019
  -98.3500000000000        -4.920632924799940E-019
  -98.1600000000000        -5.210516548386817E-019
  -97.9700000000000        -5.552329037498263E-019
  -97.7800000000000        -5.885559676781501E-019
  -97.5900000000000        -6.151669848621105E-019
  -97.4000000000000        -6.310959603939319E-019
  -97.2100000000000        -6.353969162216696E-019
  -97.0200000000000        -6.304109505839162E-019
  -96.8300000000000        -6.210757925915904E-019
  -96.6400000000000        -6.134818785413979E-019
  -96.4500000000000        -6.130939452934967E-019
  -96.2600000000000        -6.231549983436695E-019
  -96.0700000000000        -6.437372773999481E-019
  -95.8800000000000        -6.717171140257891E-019
  -95.6900000000000        -7.016817911757784E-019
  -95.5000000000000        -7.275051783003837E-019
  -95.3100000000000        -7.441343718305118E-019
  -95.1200000000000        -7.490684001291324E-019
  -94.9300000000000        -7.430995241681639E-019
  -94.7400000000000        -7.301012566259270E-019
  -94.5500000000000        -7.159229617158892E-019
  -94.3600000000000        -7.067094035753412E-019
  -94.1700000000000        -7.071305433310279E-019
  -93.9800000000000        -7.190339082210598E-019
  -93.7900000000000        -7.409105551701315E-019
  -93.6000000000000        -7.683304321775320E-019
  -93.4100000000000        -7.952217223201450E-019
  -93.2200000000000        -8.156235675483109E-019
  -93.0300000000000        -8.254043253847827E-019
  -92.8400000000000        -8.234483346994321E-019
  -92.6500000000000        -8.119693986282419E-019
  -92.4600000000000        -7.958629193237376E-019
  -92.2700000000000        -7.812867741228027E-019
  -92.0800000000000        -7.738832543517989E-019
  -91.8900000000000        -7.771570843973208E-019
  -91.7000000000000        -7.914785874690776E-019
  -91.5100000000000        -8.139997487744555E-019
  -91.3200000000000        -8.395061797543965E-019
  -91.1300000000000        -8.619560445960383E-019
  -90.9400000000000        -8.762568999780607E-019
  -90.7500000000000        -8.797618658843410E-019
  -90.5600000000000        -8.730483109115114E-019
  -90.3700000000000        -8.597514765720459E-019
  -90.1800000000000        -8.455008322726427E-019
  -89.9900000000000        -8.362679291520906E-019
  -89.8000000000000        -8.366053199124567E-019
  -89.6100000000000        -8.482877122894877E-019
  -89.4200000000000        -8.697503536736590E-019
  -89.2300000000000        -8.964894479003436E-019
  -89.0400000000000        -9.223114228027045E-019
  -88.8500000000000        -9.410721907976128E-019
  -88.6600000000000        -9.484053975861795E-019
  -88.4700000000000        -9.429416826447129E-019
  -88.2800000000000        -9.266687034096813E-019
  -88.0900000000000        -9.043312148373608E-019
  -87.9000000000000        -8.820489520245878E-019
  -87.7100000000000        -8.655561111781134E-019
  -87.5200000000000        -8.585742673843013E-019
  -87.3300000000000        -8.617898801547320E-019
  -87.1400000000000        -8.727306444542618E-019
  -86.9500000000000        -8.865733551735882E-019
  -86.7600000000000        -8.976451414278645E-019
  -86.5700000000000        -9.011779420418976E-019
  -86.3800000000000        -8.948014846521147E-019
  -86.1900000000000        -8.793350112308624E-019
  -86.0000000000000        -8.586415698604791E-019
  -85.8100000000000        -8.385820473970857E-019
  -85.6200000000000        -8.253693296903397E-019
  -85.4300000000000        -8.237986796758385E-019
  -85.2400000000000        -8.358671296764675E-019
  -85.0500000000000        -8.601821021009270E-019
  -84.8600000000000        -8.923310368344553E-019
  -84.6700000000000        -9.261061936943796E-019
  -84.4800000000000        -9.552322171372085E-019
  -84.2900000000000        -9.750992547262530E-019
  -84.1000000000000        -9.840029026703692E-019
  -83.9100000000000        -9.835347057159345E-019
  -83.7200000000000        -9.780128452023274E-019
  -83.5300000000000        -9.731212566165245E-019
  -83.3400000000000        -9.741557298561554E-019
  -83.1500000000000        -9.843900439975062E-019
  -82.9600000000000        -1.004040101907678E-018
  -82.7700000000000        -1.030129588520837E-018
  -82.5800000000000        -1.057298060826068E-018
  -82.3900000000000        -1.079318375844027E-018
  -82.2000000000000        -1.090884562891162E-018
  -82.0100000000000        -1.089152842643424E-018
  -81.8200000000000        -1.074589607030016E-018
  -81.6300000000000        -1.050880051920366E-018
  -81.4400000000000        -1.023922294896576E-018
  -81.2500000000000        -1.000196133116922E-018
  -81.0600000000000        -9.849765656503112E-019
  -80.8700000000000        -9.809069706451011E-019
  -80.6800000000000        -9.873419647038660E-019
  -80.4900000000000        -1.000645880638444E-018
  -80.3000000000000        -1.015355017633095E-018
  -80.1100000000000        -1.025861532223342E-018
  -79.9200000000000        -1.028126664861124E-018
  -79.7300000000000        -1.020923806493227E-018
  -79.5400000000000        -1.006249036862710E-018
  -79.3500000000000        -9.887783254642649E-019
  -79.1600000000000        -9.745270824419017E-019
  -78.9700000000000        -9.690996527482003E-019
  -78.7800000000000        -9.760365574403848E-019
  -78.5900000000000        -9.957404467998510E-019
  -78.4000000000000        -1.025294938347900E-018
  -78.2100000000000        -1.059231917742528E-018
  -78.0200000000000        -1.091027944101503E-018
  -77.8300000000000        -1.114899521680684E-018
  -77.6400000000000        -1.127381479253889E-018
  -77.4500000000000        -1.128236766020387E-018
  -77.2600000000000        -1.120440223363616E-018
  -77.0700000000000        -1.109246572588991E-018
  -76.8800000000000        -1.100616663225467E-018
  -76.6900000000000        -1.099460284021954E-018
  -76.5000000000000        -1.108205779948964E-018
  -76.3100000000000        -1.126111190304367E-018
  -76.1200000000000        -1.149515605035281E-018
  -75.9300000000000        -1.172955000930197E-018
  -75.7400000000000        -1.190813785255912E-018
  -75.5500000000000        -1.199025940561246E-018
  -75.3600000000000        -1.196324545259814E-018
  -75.1700000000000        -1.184670135557916E-018
  -74.9800000000000        -1.168728150917688E-018
  -74.7900000000000        -1.154543288514161E-018
  -74.6000000000000        -1.147793185441563E-018
  -74.4100000000000        -1.152127681934350E-018
  -74.2200000000000        -1.168077345592211E-018
  -74.0300000000000        -1.192852195404416E-018
  -73.8400000000000        -1.221095084803080E-018
  -73.6500000000000        -1.246377786549293E-018
  -73.4600000000000        -1.263011717492389E-018
  -73.2700000000000        -1.267652771368228E-018
  -73.0800000000000        -1.260238404444067E-018
  -72.8900000000000        -1.243988139499585E-018
  -72.7000000000000        -1.224469666782672E-018
  -72.5100000000000        -1.208002609890944E-018
  -72.3200000000000        -1.199862436973252E-018
  -72.1300000000000        -1.202803172281352E-018
  -71.9400000000000        -1.216323750676842E-018
  -71.7500000000000        -1.236886397503603E-018
  -71.5600000000000        -1.259018766595619E-018
  -71.3700000000000        -1.276974577324701E-018
  -71.1800000000000        -1.286464704367351E-018
  -70.9900000000000        -1.285949873787521E-018
  -70.8000000000000        -1.277114061713383E-018
  -70.6100000000000        -1.264377431729222E-018
  -70.4200000000000        -1.253588953417510E-018
  -70.2300000000000        -1.250279099924891E-018
  -70.0400000000000        -1.257982046850846E-018
  -69.8500000000000        -1.277117538878735E-018
  -69.6600000000000        -1.304761425242633E-018
  -69.4700000000000        -1.335377938505043E-018
  -69.2800000000000        -1.362309887774963E-018
  -69.0900000000000        -1.379604345945463E-018
  -68.9000000000000        -1.383653759117263E-018
  -68.7100000000000        -1.374184147810637E-018
  -68.5200000000000        -1.354309039201166E-018
  -68.3300000000000        -1.329636487432503E-018
  -68.1400000000000        -1.306689159776859E-018
  -67.9500000000000        -1.291094525176093E-018
  -67.7600000000000        -1.286066232436703E-018
  -67.5700000000000        -1.291610476211859E-018
  -67.3800000000000        -1.304678558372291E-018
  -67.1900000000000        -1.320211295570038E-018
  -67.0000000000000        -1.332762400046417E-018
  -66.8100000000000        -1.338220912224144E-018
  -66.6200000000000        -1.335125063757171E-018
  -66.4300000000000        -1.325179568939482E-018
  -66.2400000000000        -1.312820975181710E-018
  -66.0500000000000        -1.303954171531884E-018
  -65.8600000000000        -1.304226428059902E-018
  -65.6700000000000        -1.317342052350073E-018
  -65.4800000000000        -1.343910406183497E-018
  -65.2900000000000        -1.381165405420700E-018
  -65.1000000000000        -1.423641213573162E-018
  -64.9100000000000        -1.464611133888291E-018
  -64.7200000000000        -1.497875823999678E-018
  -64.5300000000000        -1.519386802542996E-018
  -64.3400000000000        -1.528240305688865E-018
  -64.1500000000000        -1.526760279592923E-018
  -63.9600000000000        -1.519654357642872E-018
  -63.7700000000000        -1.512496279331003E-018
  -63.5800000000000        -1.509983962595316E-018
  -63.3900000000000        -1.514486968585373E-018
  -63.2000000000000        -1.525311134836475E-018
  -63.0100000000000        -1.538896805370539E-018
  -62.8200000000000        -1.549892678046645E-018
  -62.6300000000000        -1.552790608595027E-018
  -62.4400000000000        -1.543642707785092E-018
  -62.2500000000000        -1.521357845449420E-018
  -62.0600000000000        -1.488196306549959E-018
  -61.8700000000000        -1.449312899403811E-018
  -61.6800000000000        -1.411473271555285E-018
  -61.4900000000000        -1.381306680621968E-018
  -61.3000000000000        -1.363592451911527E-018
  -61.1100000000000        -1.360067950557863E-018
  -60.9200000000000        -1.369095345990228E-018
  -60.7300000000000        -1.386276096259963E-018
  -60.5400000000000        -1.405828144221969E-018
  -60.3500000000000        -1.422321179663555E-018
  -60.1600000000000        -1.432263837280741E-018
  -59.9700000000000        -1.435082370254883E-018
  -59.7800000000000        -1.433209102406578E-018
  -59.5900000000000        -1.431258438993176E-018
  -59.4000000000000        -1.434533485456730E-018
  -59.2100000000000        -1.447301495461234E-018
  -59.0200000000000        -1.471345704623271E-018
  -58.8300000000000        -1.505224349504015E-018
  -58.6400000000000        -1.544465898875365E-018
  -58.4500000000000        -1.582659774844711E-018
  -58.2600000000000        -1.613141486249619E-018
  -58.0700000000000        -1.630795845521001E-018
  -57.8800000000000        -1.633463564669998E-018
  -57.6900000000000        -1.622547056099006E-018
  -57.5000000000000        -1.602638998242323E-018
  -57.3100000000000        -1.580276159022986E-018
  -57.1200000000000        -1.562170477506849E-018
  -56.9300000000000        -1.553417751386106E-018
  -56.7400000000000        -1.556189025836036E-018
  -56.5500000000000        -1.569269670304779E-018
  -56.3600000000000        -1.588566424545518E-018
  -56.1700000000000        -1.608423857927971E-018
  -55.9800000000000        -1.623359390722808E-018
  -55.7900000000000        -1.629707853274442E-018
  -55.6000000000000        -1.626696954347520E-018
  -55.4100000000000        -1.616644747011461E-018
  -55.2200000000000        -1.604228942701795E-018
  -55.0300000000000        -1.595049640736589E-018
  -54.8400000000000        -1.593912561420108E-018
  -54.6500000000000        -1.603340097906005E-018
  -54.4600000000000        -1.622750101592030E-018
  -54.2700000000000        -1.648547516912635E-018
  -54.0800000000000        -1.675108254116787E-018
  -53.8900000000000        -1.696374541244581E-018
  -53.7000000000000        -1.707601489924948E-018
  -53.5100000000000        -1.706748111979581E-018
  -53.3200000000000        -1.695106789353875E-018
  -53.1300000000000        -1.676984510905525E-018
  -52.9400000000000        -1.658523240790761E-018
  -52.7500000000000        -1.645995435131480E-018
  -52.5600000000000        -1.644061451295869E-018
  -52.3700000000000        -1.654485085593476E-018
  -52.1800000000000        -1.675670059003377E-018
  -51.9900000000000        -1.703143543621011E-018
  -51.8000000000000        -1.730841328565148E-018
  -51.6100000000000        -1.752820610262337E-018
  -51.4200000000000        -1.764905768754148E-018
  -51.2300000000000        -1.765794387791603E-018
  -51.0400000000000        -1.757309217209084E-018
  -50.8500000000000        -1.743731447389675E-018
  -50.6600000000000        -1.730419372121105E-018
  -50.4700000000000        -1.722125825354937E-018
  -50.2800000000000        -1.721516074431458E-018
  -50.0900000000000        -1.728328847504228E-018
  -49.9000000000000        -1.739433898615870E-018
  -49.7100000000000        -1.749775221652491E-018
  -49.5200000000000        -1.753926832935718E-018
  -49.3300000000000        -1.747804526617570E-018
  -49.1400000000000        -1.730026172253808E-018
  -48.9500000000000        -1.702510795923446E-018
  -48.7600000000000        -1.670125650560658E-018
  -48.5700000000000        -1.639467825469422E-018
  -48.3800000000000        -1.617121767573005E-018
  -48.1900000000000        -1.607890954471142E-018
  -48.0000000000000        -1.613513581520272E-018
  -47.8100000000000        -1.632234147770575E-018
  -47.6200000000000        -1.659355524647720E-018
  -47.4300000000000        -1.688612158591342E-018
  -47.2400000000000        -1.713967595128633E-018
  -47.0500000000000        -1.731317389111512E-018
  -46.8600000000000        -1.739606548089255E-018
  -46.6700000000000        -1.741040383029236E-018
  -46.4800000000000        -1.740330052833682E-018
  -46.2900000000000        -1.743193834587002E-018
  -46.1000000000000        -1.754551582466963E-018
  -45.9100000000000        -1.776939914248153E-018
  -45.7200000000000        -1.809612545974081E-018
  -45.5300000000000        -1.848591747887595E-018
  -45.3400000000000        -1.887660896772311E-018
  -45.1500000000000        -1.920015251545244E-018
  -44.9600000000000        -1.940097971395387E-018
  -44.7700000000000        -1.945095900087040E-018
  -44.5800000000000        -1.935669046168746E-018
  -44.3900000000000        -1.915709256754291E-018
  -44.2000000000000        -1.891202907030188E-018
  -44.0100000000000        -1.868529196314874E-018
  -43.8200000000000        -1.852686340373612E-018
  -43.6300000000000        -1.845956549125501E-018
  -43.4400000000000        -1.847391792568634E-018
  -43.2500000000000        -1.853263072066885E-018
  -43.0600000000000        -1.858335465914378E-018
  -42.8700000000000        -1.857591109252890E-018
  -42.6800000000000        -1.847892342965181E-018
  -42.4900000000000        -1.829094990288150E-018
  -42.3000000000000        -1.804281313247284E-018
  -42.1100000000000        -1.779036909570745E-018
  -41.9200000000000        -1.759972030106465E-018
  -41.7300000000000        -1.752906331191803E-018
  -41.5400000000000        -1.761234455902246E-018
  -41.3500000000000        -1.784939789967359E-018
  -41.1600000000000        -1.820539240995062E-018
  -40.9700000000000        -1.861975602741773E-018
  -40.7800000000000        -1.902202791162674E-018
  -40.5900000000000        -1.935011913659742E-018
  -40.4000000000000        -1.956580404772381E-018
  -40.2100000000000        -1.966311177338308E-018
  -40.0200000000000        -1.966738264442114E-018
  -39.8300000000000        -1.962547640202081E-018
  -39.6400000000000        -1.959017022218431E-018
  -39.4500000000000        -1.960342648408175E-018
  -39.2600000000000        -1.968347684021635E-018
  -39.0700000000000        -1.981949536501084E-018
  -38.8800000000000        -1.997536779617289E-018
  -38.6900000000000        -2.010136691024925E-018
  -38.5000000000000        -2.015020223944621E-018
  -38.3100000000000        -2.009261236595343E-018
  -38.1200000000000        -1.992779445634549E-018
  -37.9300000000000        -1.968548315564006E-018
  -37.7400000000000        -1.941895164976651E-018
  -37.5500000000000        -1.919088462879081E-018
  -37.3600000000000        -1.905617832005573E-018
  -37.1700000000000        -1.904664315370118E-018
  -36.9800000000000        -1.916205787714422E-018
  -36.7900000000000        -1.937020770664716E-018
  -36.6000000000000        -1.961595806073757E-018
  -36.4100000000000        -1.983681007177117E-018
  -36.2200000000000        -1.998050341392681E-018
  -36.0300000000000        -2.001962245318784E-018
  -35.8400000000000        -1.995900862988072E-018
  -35.6500000000000        -1.983385007798559E-018
  -35.4600000000000        -1.969901418328095E-018
  -35.2700000000000        -1.961272585114112E-018
  -35.0800000000000        -1.961933146777763E-018
  -34.8900000000000        -1.973614798611124E-018
  -34.7000000000000        -1.994820567461834E-018
  -34.5100000000000        -2.021240146461337E-018
  -34.3200000000000        -2.046985257770976E-018
  -34.1300000000000        -2.066286378258423E-018
  -33.9400000000000        -2.075157996151448E-018
  -33.7500000000000        -2.072547664703282E-018
  -33.5600000000000        -2.060632706025778E-018
  -33.3700000000000        -2.044175312915369E-018
  -33.1800000000000        -2.029120905772486E-018
  -32.9900000000000        -2.020846123998772E-018
  -32.8000000000000        -2.022566731904370E-018
  -32.6100000000000        -2.034371247347374E-018
  -32.4200000000000        -2.053165984281386E-018
  -32.2300000000000        -2.073553699349786E-018
  -32.0400000000000        -2.089397399591806E-018
  -31.8500000000000        -2.095621133050546E-018
  -31.6600000000000        -2.089728273393849E-018
  -31.4700000000000        -2.072595831190358E-018
  -31.2800000000000        -2.048309104752788E-018
  -31.0900000000000        -2.023076178360770E-018
  -30.9000000000000        -2.003527315426587E-018
  -30.7100000000000        -1.994882954783487E-018
  -30.5200000000000        -1.999513259743695E-018
  -30.3300000000000        -2.016300110844471E-018
  -30.1400000000000        -2.040981686919236E-018
  -29.9500000000000        -2.067377762000176E-018
  -29.7600000000000        -2.089142535422335E-018
  -29.5700000000000        -2.101543387862711E-018
  -29.3800000000000        -2.102760024676370E-018
  -29.1900000000000        -2.094338909268716E-018
  -29.0000000000000        -2.080681734376965E-018
  -28.8100000000000        -2.067724013431635E-018
  -28.6200000000000        -2.061191399909572E-018
  -28.4300000000000        -2.064940608163854E-018
  -28.2400000000000        -2.079864230833638E-018
  -28.0500000000000        -2.103672043841020E-018
  -27.8600000000000        -2.131604036809777E-018
  -27.6700000000000        -2.157857860601869E-018
  -27.4800000000000        -2.177305680143216E-018
  -27.2900000000000        -2.186993146083738E-018
  -27.1000000000000        -2.186979654912543E-018
  -26.9100000000000        -2.180273988823674E-018
  -26.7200000000000        -2.171885499187057E-018
  -26.5300000000000        -2.167270734908141E-018
  -26.3400000000000        -2.170633441871028E-018
  -26.1500000000000        -2.183580395165558E-018
  -25.9600000000000        -2.204533262571448E-018
  -25.7700000000000        -2.229076967420348E-018
  -25.5800000000000        -2.251151775395858E-018
  -25.3900000000000        -2.264749632099678E-018
  -25.2000000000000        -2.265627480480506E-018
  -25.0100000000000        -2.252544421829131E-018
  -24.8200000000000        -2.227666808377066E-018
  -24.6300000000000        -2.196025101059079E-018
  -24.4400000000000        -2.164178693855044E-018
  -24.2500000000000        -2.138471277933726E-018
  -24.0600000000000        -2.123374914462642E-018
  -23.8700000000000        -2.120392954050159E-018
  -23.6800000000000        -2.127828397131199E-018
  -23.4900000000000        -2.141472212350632E-018
  -23.3000000000000        -2.155998454607945E-018
  -23.1100000000000        -2.166647875317730E-018
  -22.9200000000000        -2.170699433083770E-018
  -22.7300000000000        -2.168294042101612E-018
  -22.5400000000000        -2.162367818976158E-018
  -22.3500000000000        -2.157715902965301E-018
  -22.1600000000000        -2.159464944893463E-018
  -21.9700000000000        -2.171407602780433E-018
  -21.7800000000000        -2.194695314386180E-018
  -21.5900000000000        -2.227284076379792E-018
  -21.4000000000000        -2.264311063569480E-018
  -21.2100000000000        -2.299309770243254E-018
  -21.0200000000000        -2.325925720159027E-018
  -20.8300000000000        -2.339645139173408E-018
  -20.6400000000000        -2.339039767592918E-018
  -20.4500000000000        -2.326166180759194E-018
  -20.2600000000000        -2.305999180862723E-018
  -20.0700000000000        -2.285056106308861E-018
  -19.8800000000000        -2.269601563325678E-018
  -19.6900000000000        -2.263942599703012E-018
  -19.5000000000000        -2.269298048441242E-018
  -19.3100000000000        -2.283560498851091E-018
  -19.1200000000000        -2.302012771198745E-018
  -18.9300000000000        -2.318786557144470E-018
  -18.7400000000000        -2.328637753040118E-018
  -18.5500000000000        -2.328522416319708E-018
  -18.3600000000000        -2.318515842480246E-018
  -18.1700000000000        -2.301808655906104E-018
  -17.9800000000000        -2.283782742321617E-018
  -17.7900000000000        -2.270437841377944E-018
  -17.6000000000000        -2.266628231703113E-018
  -17.4100000000000        -2.274623255444679E-018
  -17.2200000000000        -2.293410239989260E-018
  -17.0300000000000        -2.318942242519474E-018
  -16.8400000000000        -2.345259287785989E-018
  -16.6500000000000        -2.366159583069895E-018
  -16.4600000000000        -2.376938874106442E-018
  -16.2700000000000        -2.375696880923623E-018
  -16.0800000000000        -2.363835231508639E-018
  -15.8900000000000        -2.345605604800326E-018
  -15.7000000000000        -2.326842239096241E-018
  -15.5100000000000        -2.313249413797001E-018
  -15.3200000000000        -2.308742880697786E-018
  -15.1300000000000        -2.314327065127823E-018
  -14.9400000000000        -2.327832580703889E-018
  -14.7500000000000        -2.344587666007137E-018
  -14.5600000000000        -2.358825912290218E-018
  -14.3700000000000        -2.365419542412413E-018
  -14.1800000000000        -2.361433502262463E-018
  -13.9900000000000        -2.347047357647414E-018
  -13.8000000000000        -2.325574542517729E-018
  -13.6100000000000        -2.302569617052246E-018
  -13.4200000000000        -2.284278801700054E-018
  -13.2300000000000        -2.275880486832956E-018
  -13.0400000000000        -2.280024520554141E-018
  -12.8500000000000        -2.296092993994557E-018
  -12.6600000000000        -2.320395656517476E-018
  -12.4700000000000        -2.347241343494918E-018
  -12.2800000000000        -2.370572568910012E-018
  -12.0900000000000        -2.385687878694087E-018
  -11.9000000000000        -2.390552562062936E-018
  -11.7100000000000        -2.386319274403220E-018
  -11.5200000000000        -2.376910633832978E-018
  -11.3300000000000        -2.367789208158654E-018
  -11.1400000000000        -2.364277551786969E-018
  -10.9500000000000        -2.369923182076767E-018
  -10.7600000000000        -2.385391494356931E-018
  -10.5700000000000        -2.408216141562910E-018
  -10.3800000000000        -2.433485592773761E-018
  -10.1900000000000        -2.455269792156081E-018
  -10.0000000000000        -2.468372747448223E-018
  -9.81000000000000        -2.469899411049024E-018
  -9.62000000000000        -2.460176731871329E-018
  -9.42999999999999        -2.442754055786287E-018
  -9.23999999999999        -2.423473315798205E-018
  -9.05000000000000        -2.408868169935358E-018
  -8.86000000000000        -2.404346138917801E-018
  -8.67000000000000        -2.412672584487888E-018
  -8.48000000000000        -2.433190776915582E-018
  -8.28999999999999        -2.462002031862833E-018
  -8.09999999999999        -2.493054390456562E-018
  -7.91000000000000        -2.519827465214806E-018
  -7.72000000000000        -2.537130792354783E-018
  -7.53000000000000        -2.542502718411043E-018
  -7.34000000000000        -2.536814710387717E-018
  -7.15000000000001        -2.523916868250330E-018
  -6.95999999999999        -2.509436821005441E-018
  -6.77000000000000        -2.499086432326164E-018
  -6.58000000000000        -2.496969875755877E-018
  -6.39000000000000        -2.504383509516213E-018
  -6.20000000000000        -2.519453842842570E-018
  -6.01000000000001        -2.537716028506138E-018
  -5.81999999999999        -2.553461700777591E-018
  -5.63000000000000        -2.561460683190825E-018
  -5.44000000000000        -2.558551636241405E-018
  -5.25000000000000        -2.544634558022595E-018
  -5.06000000000000        -2.522772378767072E-018
  -4.87000000000000        -2.498368548655699E-018
  -4.67999999999999        -2.477656438794546E-018
  -4.48999999999999        -2.465936338836431E-018
  -4.30000000000000        -2.466069270138300E-018
  -4.11000000000000        -2.477663053275350E-018
  -3.92000000000000        -2.497186697561034E-018
  -3.73000000000000        -2.518981648555108E-018
  -3.53999999999999        -2.536879645000874E-018
  -3.34999999999999        -2.545961620353954E-018
  -3.16000000000000        -2.543951384322777E-018
  -2.97000000000000        -2.531844050127122E-018
  -2.78000000000000        -2.513591593192610E-018
  -2.59000000000000        -2.494941515383525E-018
  -2.40000000000001        -2.481769343076378E-018
  -2.20999999999999        -2.478390380641862E-018
  -2.02000000000000        -2.486339232096379E-018
  -1.83000000000000        -2.503967073863096E-018
  -1.64000000000000        -2.526967447866477E-018
  -1.45000000000000        -2.549671009156017E-018
  -1.26000000000001        -2.566726363307804E-018
  -1.06999999999999        -2.574672518608545E-018
 -0.879999999999995        -2.572941227798346E-018
 -0.689999999999998        -2.563995469879707E-018
 -0.500000000000000        -2.552564669094033E-018
 -0.310000000000002        -2.544203331890042E-018
 -0.120000000000005        -2.543599160856107E-018
  7.000000000000739E-002   -2.553130602555365E-018
  0.260000000000005        -2.572100768255456E-018
  0.450000000000003        -2.596876757298586E-018
  0.640000000000001        -2.621898889799579E-018
  0.829999999999998        -2.641270138348329E-018
   1.02000000000000        -2.650465522767446E-018
   1.21000000000001        -2.647663682738087E-018
   1.40000000000001        -2.634309650619141E-018
   1.59000000000000        -2.614739007401154E-018
   1.78000000000000        -2.594965755823254E-018
   1.97000000000000        -2.580980387592448E-018
   2.16000000000000        -2.577048988542690E-018
   2.34999999999999        -2.584505810850904E-018
   2.54000000000001        -2.601389614937675E-018
   2.73000000000000        -2.623029796284276E-018
   2.92000000000000        -2.643413249819950E-018
   3.11000000000000        -2.656936997230184E-018
   3.30000000000000        -2.660039983015363E-018
   3.48999999999999        -2.652242040849931E-018
   3.68000000000001        -2.636288738249819E-018
   3.87000000000000        -2.617358684838378E-018
   4.06000000000000        -2.601561025168950E-018
   4.25000000000000        -2.594157068019386E-018
   4.44000000000000        -2.598021203518739E-018
   4.63000000000000        -2.612788134348310E-018
   4.82000000000001        -2.634935255177074E-018
   5.01000000000001        -2.658778285442867E-018
   5.20000000000000        -2.678093874552643E-018
   5.39000000000000        -2.687901710489679E-018
   5.58000000000000        -2.685892877202101E-018
   5.77000000000000        -2.673093432104082E-018
   5.96000000000001        -2.653572438446239E-018
   6.15000000000001        -2.633278587009086E-018
   6.34000000000000        -2.618340299942970E-018
   6.53000000000000        -2.613318722115059E-018