  -105.000000000000        -3.781217645104411E-020
  -104.810000000000        -1.042645225952353E-019
  -104.620000000000        -1.462838988012631E-019
  -104.430000000000        -1.559687117334966E-019
  -104.240000000000        -1.344468215884559E-019
  -104.050000000000        -9.146020872718617E-020
  -103.860000000000        -4.247124250399646E-020
  -103.670000000000        -4.132134405967404E-021
  -103.480000000000         1.056499542070597E-020
  -103.290000000000        -3.951880781328788E-021
  -103.100000000000        -4.425422941121528E-020
  -102.910000000000        -9.896460157860326E-020
  -102.720000000000        -1.521266725351664E-019
  -102.530000000000        -1.879085994052303E-019
  -102.340000000000        -1.952715640010270E-019
  -102.150000000000        -1.712482072390612E-019
  -101.960000000000        -1.218784755888250E-019
  -101.770000000000        -6.052743124085982E-020
  -101.580000000000        -4.067544013440846E-021
  -101.390000000000         3.197080181749761E-020
  -101.200000000000         3.787334985003520E-020
  -101.010000000000         1.253880646088586E-020
  -100.820000000000        -3.621653871484402E-020
  -100.630000000000        -9.393492912708994E-020
  -100.440000000000        -1.437105285064496E-019
  -100.250000000000        -1.710806056994333E-019
  -100.060000000000        -1.681963586388251E-019
  -99.8700000000000        -1.360683858732980E-019
  -99.6800000000000        -8.424163572907248E-020
  -99.4900000000000        -2.799794657870003E-020
  -99.3000000000000         1.610224714911889E-020
  -99.1100000000000         3.504740578879400E-020
  -98.9200000000000         2.317123617947839E-020
  -98.7300000000000        -1.618613720563919E-020
  -98.5400000000000        -7.163754337885464E-020
  -98.3500000000000        -1.270512772409995E-019
  -98.1600000000000        -1.662358191311375E-019
  -97.9700000000000        -1.776429285249174E-019
  -97.7800000000000        -1.577212660849584E-019
  -97.5900000000000        -1.119473492520569E-019
  -97.4000000000000        -5.323666147252409E-020
  -97.2100000000000         1.802657394777925E-021
  -97.0200000000000         3.768716744757658E-020
  -96.8300000000000         4.455018958557408E-020
  -96.6400000000000         2.100486131077277E-020
  -96.4500000000000        -2.545557842703048E-020
  -96.2600000000000        -8.064034764855616E-020
  -96.0700000000000        -1.277950412687350E-019
  -95.8800000000000        -1.524855625679744E-019
  -95.6900000000000        -1.468106954594598E-019
  -95.5000000000000        -1.117173175124557E-019
  -95.3100000000000        -5.674532060197079E-020
  -95.1200000000000         2.723283321967549E-021
  -94.9300000000000         4.991353553475114E-020
  -94.7400000000000         7.151726961124915E-020
  -94.5500000000000         6.155750802785737E-020
  -94.3600000000000         2.313794311805537E-020
  -94.1700000000000        -3.243290696241726E-020
  -93.9800000000000        -8.889476799764063E-020
  -93.7900000000000        -1.297276946222960E-019
  -93.6000000000000        -1.429241240789828E-019
  -93.4100000000000        -1.244556193967868E-019
  -93.2200000000000        -7.942790280167890E-020
  -93.0300000000000        -2.059149250295058E-020
  -92.8400000000000         3.535507041195014E-020
  -92.6500000000000         7.259319835709124E-020
  -92.4600000000000         8.074374869852324E-020
  -92.2700000000000         5.784122361036447E-020
  -92.0800000000000         1.086760454074183E-020
  -91.8900000000000        -4.630350820336483E-020
  -91.7000000000000        -9.695437993982807E-020
  -91.5100000000000        -1.263884007508394E-019
  -91.3200000000000        -1.262007784778497E-019
  -91.1300000000000        -9.671242164122138E-020
  -90.9400000000000        -4.685742444290178E-020
  -90.7500000000000         8.443655438288173E-021
  -90.5600000000000         5.265891924288218E-020
  -90.3700000000000         7.249336483912770E-020
  -90.1800000000000         6.179880899988214E-020
  -89.9900000000000         2.340924305312103E-020
  -89.8000000000000        -3.163100825630798E-020
  -89.6100000000000        -8.722377305579629E-020
  -89.4200000000000        -1.268466726601478E-019
  -89.2300000000000        -1.383186029711722E-019
  -89.0400000000000        -1.173230076243927E-019
  -88.8500000000000        -6.866835469335554E-020
  -88.6600000000000        -4.919715387105479E-021
  -88.4700000000000         5.720182678025829E-020
  -88.2800000000000         1.016064942298743E-019
  -88.0900000000000         1.174203983818251E-019
  -87.9000000000000         1.020397464717034E-019
  -87.7100000000000         6.177548589549069E-020
  -87.5200000000000         9.911134272056137E-021
  -87.3300000000000        -3.725362386831685E-020
  -87.1400000000000        -6.521967110225268E-020
  -86.9500000000000        -6.556446572000724E-020
  -86.7600000000000        -3.843312333765664E-020
  -86.5700000000000         7.483307304604142E-021
  -86.3800000000000         5.748139687114562E-020
  -86.1900000000000         9.515767050430476E-020
  -86.0000000000000         1.072446416678326E-019
  -85.8100000000000         8.755852676352505E-020
  -85.6200000000000         3.890359926643998E-020
  -85.4300000000000        -2.762578943717847E-020
  -85.2400000000000        -9.574584848707512E-020
  -85.0500000000000        -1.485892293631263E-019
  -84.8600000000000        -1.734844515617177E-019
  -84.6700000000000        -1.655294218493510E-019
  -84.4800000000000        -1.289291079786134E-019
  -84.2900000000000        -7.571233035042315E-020
  -84.1000000000000        -2.219855523600474E-020
  -83.9100000000000         1.576330912642636E-020
  -83.7200000000000         2.740381341949996E-020
  -83.5300000000000         1.015030354255808E-020
  -83.3400000000000        -2.965470363416174E-020
  -83.1500000000000        -7.864308434611326E-020
  -82.9600000000000        -1.203672224298177E-019
  -82.7700000000000        -1.401525234694472E-019
  -82.5800000000000        -1.294441771662906E-019
  -82.3900000000000        -8.838553175024727E-020
  -82.2000000000000        -2.588017578788544E-020
  -82.0100000000000         4.288146279248943E-020
  -81.8200000000000         1.007178703238360E-019
  -81.6300000000000         1.333350319301044E-019
  -81.4400000000000         1.333787336932727E-019
  -81.2500000000000         1.024887611743823E-019
  -81.0600000000000         5.076095387321312E-020
  -80.8700000000000        -6.224734351459954E-021
  -80.6800000000000        -5.194449998248162E-020
  -80.4900000000000        -7.371856034007606E-020
  -80.3000000000000        -6.635697785499283E-020
  -80.1100000000000        -3.360959796849602E-020
  -79.9200000000000         1.299401507924968E-020
  -79.7300000000000         5.757270525898269E-020
  -79.5400000000000         8.459337112884696E-020
  -79.3500000000000         8.347882742317993E-020
  -79.1600000000000         5.178598083174855E-020
  -78.9700000000000        -3.972302627587065E-021
  -78.7800000000000        -7.010735276750097E-020
  -78.5900000000000        -1.296273181776703E-019
  -78.4000000000000        -1.670828182702017E-019
  -78.2100000000000        -1.729815940884304E-019
  -78.0200000000000        -1.464936945740966E-019
  -77.8300000000000        -9.566719776943740E-020
  -77.6400000000000        -3.509801142027173E-020
  -77.4500000000000         1.826646286913920E-020
  -77.2600000000000         4.997419324051630E-020
  -77.0700000000000         5.216726352144579E-020
  -76.8800000000000         2.575339096588619E-020
  -76.6900000000000        -1.997135979867692E-020
  -76.5000000000000        -7.013396390108702E-020
  -76.3100000000000        -1.087100660166240E-019
  -76.1200000000000        -1.232731858574465E-019
  -75.9300000000000        -1.086794216332394E-019
  -75.7400000000000        -6.860773587118278E-020
  -75.5500000000000        -1.450200001026714E-020
  -75.3600000000000         3.777843421929114E-020
  -75.1700000000000         7.262209037401622E-020
  -74.9800000000000         7.928117643093537E-020
  -74.7900000000000         5.509201441085419E-020
  -74.6000000000000         6.356859420555306E-021
  -74.4100000000000        -5.337936881749337E-020
  -74.2200000000000        -1.071697722896470E-019
  -74.0300000000000        -1.395203663443923E-019
  -73.8400000000000        -1.408568188023089E-019
  -73.6500000000000        -1.103069281297611E-019
  -73.4600000000000        -5.598680215509352E-020
  -73.2700000000000         7.298192232426713E-021
  -73.0800000000000         6.227534702274523E-020
  -72.8900000000000         9.412825700367191E-020
  -72.7000000000000         9.469876212800366E-020
  -72.5100000000000         6.475586791952494E-020
  -72.3200000000000         1.368273055155755E-020
  -72.1300000000000        -4.331924658839446E-020
  -71.9400000000000        -8.969269795329232E-020
  -71.7500000000000        -1.123553050494124E-019
  -71.5600000000000        -1.054952100555197E-019
  -71.3700000000000        -7.222615203087543E-020
  -71.1800000000000        -2.361920121794758E-020
  -70.9900000000000         2.460695435254849E-020
  -70.8000000000000         5.676958436394392E-020
  -70.6100000000000         6.190817972598125E-020
  -70.4200000000000         3.710087316929356E-020
  -70.2300000000000        -1.156077219298826E-020
  -70.0400000000000        -7.062747093116845E-020
  -69.8500000000000        -1.231036273468087E-019
  -69.6600000000000        -1.533168411218647E-019
  -69.4700000000000        -1.514433224535003E-019
  -69.2800000000000        -1.163852827379472E-019
  -69.0900000000000        -5.616808247973568E-020
  -68.9000000000000         1.426367930217352E-020
  -68.7100000000000         7.722294714762057E-020
  -68.5200000000000         1.172306852056174E-019
  -68.3300000000000         1.253154721692290E-019
  -68.1400000000000         1.014262164642335E-019
  -67.9500000000000         5.427086142146416E-020
  -67.7600000000000        -1.357765883592538E-021
  -67.5700000000000        -4.897980509365271E-020
  -67.3800000000000        -7.526531410047178E-020
  -67.1900000000000        -7.390484651085925E-020
  -67.0000000000000        -4.739372803712135E-020
  -66.8100000000000        -6.217536080928111E-021
  -66.6200000000000         3.431932443331917E-020
  -66.4300000000000         5.869496993542118E-020
  -66.2400000000000         5.585630896736530E-020
  -66.0500000000000         2.261722926791728E-020
  -65.8600000000000        -3.523126531102501E-020
  -65.6700000000000        -1.044315213778823E-019
  -65.4800000000000        -1.679561922911221E-019
  -65.2900000000000        -2.098179141833313E-019
  -65.1000000000000        -2.195940222831361E-019
  -64.9100000000000        -1.953542379645136E-019
  -64.7200000000000        -1.441464964597505E-019
  -64.5300000000000        -7.990653076102069E-020
  -64.3400000000000        -1.940388697349107E-020
  -64.1500000000000         2.259460012103371E-020
  -63.9600000000000         3.753684279452451E-020
  -63.7700000000000         2.544840801988566E-020
  -63.5800000000000        -5.238655932552231E-021
  -63.3900000000000        -4.033466379252458E-020
  -63.2000000000000        -6.423641259254029E-020
  -63.0100000000000        -6.468827160570855E-020
  -62.8200000000000        -3.656264006444144E-020
  -62.6300000000000         1.644729016198099E-020
  -62.4400000000000         8.271779775159506E-020
  -62.2500000000000         1.459115821977188E-019
  -62.0600000000000         1.895919632779195E-019
  -61.8700000000000         2.019027236701932E-019
  -61.6800000000000         1.789637336364291E-019
  -61.4900000000000         1.260021569572579E-019
  -61.3000000000000         5.589139490554023E-020
  -61.1100000000000        -1.448130020710748E-020
  -60.9200000000000        -6.896880447921080E-020
  -60.7300000000000        -9.666525850458039E-020
  -60.5400000000000        -9.485548264103593E-020
  -60.3500000000000        -6.956761331256034E-020
  -60.1600000000000        -3.358208050349169E-020
  -59.9700000000000        -2.487539804833549E-021
  -59.7800000000000         1.006297700449041E-020
  -59.5900000000000        -3.485218553031793E-021
  -59.4000000000000        -4.221856965278463E-020
  -59.2100000000000        -9.687426096457929E-020
  -59.0200000000000        -1.524285632704747E-019
  -58.8300000000000        -1.924215638213022E-019
  -58.6400000000000        -2.037774351070945E-019
  -58.4500000000000        -1.807252299322476E-019
  -58.2600000000000        -1.266738702007627E-019
  -58.0700000000000        -5.347915373783689E-020
  -57.8800000000000         2.170734058419712E-020
  -57.6900000000000         8.111728007282637E-020
  -57.5000000000000         1.112392028316320E-019
  -57.3100000000000         1.064961071986172E-019
  -57.1200000000000         7.068002009705007E-020
  -56.9300000000000         1.574066229161278E-020
  -56.7400000000000        -4.171557610177167E-020
  -56.5500000000000        -8.520368081442790E-020
  -56.3600000000000        -1.030373358505037E-019
  -56.1700000000000        -9.156043730865709E-020
  -55.9800000000000        -5.601051406966172E-020
  -55.7900000000000        -8.783062170293873E-021
  -55.6000000000000         3.437659542889815E-020
  -55.4100000000000         5.912634643611843E-020
  -55.2200000000000         5.682922703913893E-020
  -55.0300000000000         2.714837179391195E-020
  -54.8400000000000        -2.181699255109550E-020
  -54.6500000000000        -7.588826361031978E-020
  -54.4600000000000        -1.189668921227108E-019
  -54.2700000000000        -1.377846119072566E-019
  -54.0800000000000        -1.258605903472285E-019
  -53.8900000000000        -8.550851528463593E-020
  -53.7000000000000        -2.729887035526163E-020
  -53.5100000000000         3.288079097651001E-020
  -53.3200000000000         7.832526598435627E-020
  -53.1300000000000         9.627249621871940E-020
  -52.9400000000000         8.155019940538389E-020
  -52.7500000000000         3.805734077603108E-020
  -52.5600000000000        -2.234118542630534E-020
  -52.3700000000000        -8.318054659870553E-020
  -52.1800000000000        -1.280485737566716E-019
  -51.9900000000000        -1.451875514783440E-019
  -51.8000000000000        -1.307291227403338E-019
  -51.6100000000000        -8.964326365526370E-020
  -51.4200000000000        -3.414151981385766E-020
  -51.2300000000000         1.999092511858991E-020
  -51.0400000000000         5.806036947875745E-020
  -50.8500000000000         7.076275023152439E-020
  -50.6600000000000         5.685690009141873E-020
  -50.4700000000000         2.342973076223084E-020
  -50.2800000000000        -1.632374249813402E-020
  -50.0900000000000        -4.715216890635063E-020
  -49.9000000000000        -5.643782670595698E-020
  -49.7100000000000        -3.813930084170225E-020
  -49.5200000000000         5.186039565581674E-021
  -49.3300000000000         6.289647547871031E-020
  -49.1400000000000         1.191940281424329E-019
  -48.9500000000000         1.576329518240785E-019
  -48.7600000000000         1.659025538263774E-019
  -48.5700000000000         1.394839025990872E-019
  -48.3800000000000         8.309702894284504E-020
  -48.1900000000000         9.495226454561446E-021
  -48.0000000000000        -6.406103499850867E-020
  -47.8100000000000        -1.206366924406545E-019
  -47.6200000000000        -1.483631863704381E-019
  -47.4300000000000        -1.437159749497703E-019
  -47.2400000000000        -1.123821855793958E-019
  -47.0500000000000        -6.747092884374369E-020
  -46.8600000000000        -2.558682609927385E-020
  -46.6700000000000        -1.903959853754524E-021
  -46.4800000000000        -5.666977783592970E-021
  -46.2900000000000        -3.742507798231713E-020
  -46.1000000000000        -8.880547279250442E-020
  -45.9100000000000        -1.448972723871541E-019
  -45.7200000000000        -1.885574569459007E-019
  -45.5300000000000        -2.053903968374461E-019
  -45.3400000000000        -1.879565885727594E-019
  -45.1500000000000        -1.379923016396750E-019
  -44.9600000000000        -6.600170668893742E-020
  -44.7700000000000         1.165506638590150E-020
  -44.5800000000000         7.733327192828728E-020
  -44.3900000000000         1.170161556277825E-019
  -44.2000000000000         1.241580537879384E-019
  -44.0100000000000         1.013593859383586E-019
  -43.8200000000000         5.940170312993135E-020
  -43.6300000000000         1.393302053941443E-020
  -43.4400000000000        -1.922769195101135E-020
  -43.2500000000000        -2.879914038353808E-020
  -43.0600000000000        -1.138957154211612E-020
  -42.8700000000000         2.748190249788712E-020
  -42.6800000000000         7.498978674931299E-020
  -42.4900000000000         1.147658676786796E-019
  -42.3000000000000         1.317317913615923E-019
  -42.1100000000000         1.166033766863658E-019
  -41.9200000000000         6.876467994458434E-020
  -41.7300000000000        -3.322173146794838E-021
  -41.5400000000000        -8.429857572514769E-020
  -41.3500000000000        -1.560652239284615E-019
  -41.1600000000000        -2.027258230905644E-019
  -40.9700000000000        -2.149040793884531E-019
  -40.7800000000000        -1.922008182051797E-019
  -40.5900000000000        -1.430989831834380E-019
  -40.4000000000000        -8.236648336464706E-020
  -40.2100000000000        -2.673120965719357E-020
  -40.0200000000000         9.904045095334106E-021
  -39.8300000000000         2.031905848337747E-020
  -39.6400000000000         5.802609983964652E-021
  -39.4500000000000        -2.455437316632667E-020
  -39.2600000000000        -5.686023182344528E-020
  -39.0700000000000        -7.681340946224873E-020
  -38.8800000000000        -7.417672243116202E-020
  -38.6900000000000        -4.600906401929250E-020
  -38.5000000000000         2.303827446269362E-021
  -38.3100000000000         5.852836397387303E-020
  -38.1200000000000         1.071392658719378E-019
  -37.9300000000000         1.339060017313105E-019
  -37.7400000000000         1.301575070655931E-019
  -37.5500000000000         9.546666571336230E-020
  -37.3600000000000         3.795828291832431E-020
  -37.1700000000000        -2.786304133907635E-020
  -36.9800000000000        -8.514856656473088E-020
  -36.7900000000000        -1.194474167350913E-019
  -36.6000000000000        -1.227900960852651E-019
  -36.4100000000000        -9.593298768137788E-020
  -36.2200000000000        -4.810852142544148E-020
  -36.0300000000000         5.656522117391932E-021
  -35.8400000000000         4.888746715848872E-020
  -35.6500000000000         6.841959121046392E-020
  -35.4600000000000         5.819058601170151E-020
  -35.2700000000000         2.096913565876851E-020
  -35.0800000000000        -3.247950920266340E-020
  -34.8900000000000        -8.654584390544809E-020
  -34.7000000000000        -1.253298627637166E-019
  -34.5100000000000        -1.372755008135325E-019
  -34.3200000000000        -1.185427152554916E-019
  -34.1300000000000        -7.413878521176831E-020
  -33.9400000000000        -1.647706959173273E-020
  -33.7500000000000         3.822444769913218E-020
  -33.5600000000000         7.466408365240145E-020
  -33.3700000000000         8.292579014024112E-020
  -33.1800000000000         6.139260241209693E-020
  -32.9900000000000         1.724782596872650E-020
  -32.8000000000000        -3.559242986474152E-020
  -32.6100000000000        -8.052434836056670E-020
  -32.4200000000000        -1.031117157958219E-019
  -32.2300000000000        -9.534582976426447E-020
  -32.0400000000000        -5.807219394936814E-020
  -31.8500000000000        -8.707205316912193E-022
  -31.6600000000000         6.059289963207423E-020
  -31.4700000000000         1.089978122133186E-019
  -31.2800000000000         1.303148758673380E-019
  -31.0900000000000         1.178468140163154E-019
  -30.9000000000000         7.419269362442651E-020
  -30.7100000000000         1.056330442866318E-020
  -30.5200000000000        -5.636093700258691E-020
  -30.3300000000000        -1.091274399356331E-019
  -30.1400000000000        -1.344148714623805E-019
  -29.9500000000000        -1.267390750081546E-019
  -29.7600000000000        -8.990954174351452E-020
  -29.5700000000000        -3.583549803693284E-020
  -29.3800000000000         1.895915419472445E-020
  -29.1900000000000         5.810076394580087E-020
  -29.0000000000000         7.003919957126668E-020
  -28.8100000000000         5.129035386156202E-020
  -28.6200000000000         7.324750704684905E-021
  -28.4300000000000        -4.913902874754456E-020
  -28.2400000000000        -1.019248307293847E-019
  -28.0500000000000        -1.361573841477329E-019
  -27.8600000000000        -1.425942546338139E-019
  -27.6700000000000        -1.202674824564200E-019
  -27.4800000000000        -7.667180389965311E-020
  -27.2900000000000        -2.545782834033229E-020
  -27.1000000000000         1.768199278964142E-020
  -26.9100000000000         3.972146243548778E-020
  -26.7200000000000         3.421908925139917E-020
  -26.5300000000000         3.294887673761036E-021
  -26.3400000000000        -4.292015857214765E-020
  -26.1500000000000        -8.921005447479075E-020
  -25.9600000000000        -1.197278217231318E-019
  -25.7700000000000        -1.226802969063394E-019
  -25.5800000000000        -9.387543336665788E-020
  -25.3900000000000        -3.809396074907718E-020
  -25.2000000000000         3.211897439617838E-020
  -25.0100000000000         9.989650553536911E-020
  -24.8200000000000         1.487350546580297E-019
  -24.6300000000000         1.670739855842677E-019
  -24.4400000000000         1.514574292772441E-019
  -24.2500000000000         1.073783668221145E-019
  -24.0600000000000         4.757453653570320E-020
  -23.8700000000000        -1.171969123304632E-020
  -23.6800000000000        -5.547173236966415E-020
  -23.4900000000000        -7.413173020196290E-020
  -23.3000000000000        -6.625174465025707E-020
  -23.1100000000000        -3.868678546269551E-020
  -22.9200000000000        -4.332017852322343E-021
  -22.7300000000000         2.192530028318996E-020
  -22.5400000000000         2.783720825344886E-020
  -22.3500000000000         7.639142322879646E-021
  -22.1600000000000        -3.603078898718838E-020
  -21.9700000000000        -9.271149866504418E-020
  -21.7800000000000        -1.470433515772613E-019
  -21.5900000000000        -1.831993399560540E-019
  -21.4000000000000        -1.895412996406880E-019
  -21.2100000000000        -1.621438331303853E-019
  -21.0200000000000        -1.061457077109332E-019
  -20.8300000000000        -3.451065114181970E-020
  -20.6400000000000         3.547094319530247E-020
  -20.4500000000000         8.694891244788434E-020
  -20.2600000000000         1.081844064482422E-019
  -20.0700000000000         9.578320404485341E-020
  -19.8800000000000         5.556185948907819E-020
  -19.6900000000000         7.987233800948211E-022
  -19.5000000000000        -5.162605038968298E-020
  -19.3100000000000        -8.609137567763950E-020
  -19.1200000000000        -9.270015340362880E-020
  -18.9300000000000        -7.006574168782197E-020
  -18.7400000000000        -2.562068204009903E-020
  -18.5500000000000         2.663660673650393E-020
  -18.3600000000000         7.029936950948521E-020
  -18.1700000000000         9.140289515428637E-020
  -17.9800000000000         8.255477507410253E-020
  -17.7900000000000         4.514344899606297E-020
  -17.6000000000000        -1.101424754403844E-020
  -17.4100000000000        -7.047896917407172E-020
  -17.2200000000000        -1.166289133547239E-019
  -17.0300000000000        -1.364448626229705E-019
  -16.8400000000000        -1.242561593432128E-019
  -16.6500000000000        -8.336733242224614E-020
  -16.4600000000000        -2.509815224665535E-020
  -16.2700000000000         3.448326999421867E-020
  -16.0800000000000         7.918756874552014E-020
  -15.8900000000000         9.734998003262480E-020
  -15.7000000000000         8.514787106137940E-020
  -15.5100000000000         4.762989052225096E-020
  -15.3200000000000        -2.835924554792575E-021
  -15.1300000000000        -5.023605264763827E-020
  -14.9400000000000        -7.963316020872151E-020
  -14.7500000000000        -8.156139891139146E-020
  -14.5600000000000        -5.482072738230476E-020
  -14.3700000000000        -6.862078874327394E-021
  -14.1800000000000         4.834785464473547E-020
  -13.9900000000000         9.436568353877112E-020
  -13.8000000000000         1.170466857767570E-019
  -13.6100000000000         1.086730021517764E-019
  -13.4200000000000         7.023455320865968E-020
  -13.2300000000000         1.119547669977299E-020
  -13.0400000000000        -5.319080832000488E-020
  -12.8500000000000        -1.062398314824638E-019
  -12.6600000000000        -1.346009197377913E-019
  -12.4700000000000        -1.320445062961453E-019
  -12.2800000000000        -1.011750926293906E-019
  -12.0900000000000        -5.257892934979801E-020
  -11.9000000000000        -1.661567655612084E-021
  -11.7100000000000         3.589981113146927E-020
  -11.5200000000000         4.876333222253949E-020
  -11.3300000000000         3.324495275265282E-020
  -11.1400000000000        -5.615720837139661E-021
  -10.9500000000000        -5.556300676305800E-020
  -10.7600000000000        -1.007709460161661E-019
  -10.5700000000000        -1.265634168863942E-019
  -10.3800000000000        -1.238253962978168E-019
  -10.1900000000000        -9.180830177489877E-020
  -10.0000000000000        -3.849899708669292E-020
  -9.81000000000000         2.156846204445803E-020
  -9.62000000000000         7.143514542825450E-020
  -9.42999999999999         9.658793703453671E-020
  -9.23999999999999         8.917338381823462E-020
  -9.05000000000000         5.033467600106266E-020
  -8.86000000000000        -1.001161724349995E-020
  -8.67000000000000        -7.590694209942551E-020
  -8.48000000000000        -1.298143351972246E-019
  -8.28999999999999        -1.575358251078415E-019
  -8.09999999999999        -1.521721930315072E-019
  -7.91000000000000        -1.159905313111073E-019
  -7.72000000000000        -5.967171893746769E-020
  -7.53000000000000         8.317946501731187E-022
  -7.34000000000000         4.891013200187709E-020
  -7.15000000000001         7.204707732177678E-020
  -6.95999999999999         6.534325243201697E-020
  -6.77000000000000         3.280775065674695E-020
  -6.58000000000000        -1.393967681591910E-020
  -6.39000000000000        -5.916833443866628E-020
  -6.20000000000000        -8.771715523664578E-020
  -6.01000000000001        -8.949436298689739E-020
  -5.81999999999999        -6.248593338075555E-020
  -5.63000000000000        -1.339456701003592E-020
  -5.44000000000000         4.427927675849969E-020
  -5.25000000000000         9.415594072193020E-020
  -5.06000000000000         1.217526562286731E-019
  -4.87000000000000         1.187261578224371E-019
  -4.67999999999999         8.534792057702158E-020
  -4.48999999999999         3.049254909538318E-020
  -4.30000000000000        -3.085977483926025E-020
  -4.11000000000000        -8.188796690193054E-020
  -3.92000000000000        -1.087331454730462E-019
  -3.73000000000000        -1.044551248416832E-019
  -3.53999999999999        -7.099992578643628E-020
  -3.34999999999999        -1.860984032079742E-020
  -3.16000000000000         3.715150059692709E-020
  -2.97000000000000         7.989418718465011E-020
  -2.78000000000000         9.711193353578113E-020
  -2.59000000000000         8.374276346376896E-020
  -2.40000000000001         4.355561774121820E-020
  -2.20999999999999        -1.202602373684446E-020
  -2.02000000000000        -6.730708742429877E-020
  -1.83000000000000        -1.069163572897343E-019
  -1.64000000000000        -1.202735139287388E-019
  -1.45000000000000        -1.046287248455949E-019
  -1.26000000000001        -6.579344592770696E-020
  -1.06999999999999        -1.635490655405816E-020
 -0.879999999999995         2.809749665483818E-020
 -0.689999999999998         5.362252290608728E-020
 -0.500000000000000         5.208457365701263E-020
 -0.310000000000002         2.359344273138533E-020
 -0.120000000000005        -2.349281754032244E-020
  7.000000000000739E-002   -7.500422999828702E-020
  0.260000000000005        -1.151214598505815E-019
  0.450000000000003        -1.310476882740094E-019
  0.640000000000001        -1.168246869730061E-019
  0.829999999999998        -7.517534991543849E-020
   1.02000000000000        -1.682511681515553E-020
   1.21000000000001         4.251545302185650E-020
   1.40000000000001         8.664388246561389E-020
   1.59000000000000         1.035365652523322E-019
   1.78000000000000         8.883847318080528E-020
   1.97000000000000         4.714938758043324E-020
   2.16000000000000        -9.277429627515086E-021
   2.34999999999999        -6.405427998680401E-020
   2.54000000000001        -1.013789090351912E-019
   2.73000000000000        -1.105885128480920E-019
   2.92000000000000        -8.922947617344092E-020
   3.11000000000000        -4.375456104055710E-020
   3.30000000000000         1.235514836908701E-020
   3.48999999999999         6.250327569879588E-020
   3.68000000000001         9.179830529355797E-020
   3.87000000000000         9.138871863386658E-020
   4.06000000000000         6.105688636576860E-020
   4.25000000000000         9.315320132132513E-021
   4.44000000000000        -4.902912191821918E-020
   4.63000000000000        -9.714224120614245E-020
   4.82000000000001        -1.210267134067301E-019
   5.01000000000001        -1.135753141462329E-019
   5.20000000000000        -7.664059222845097E-020
   5.39000000000000        -2.052369118278354E-020
   5.58000000000000         3.896915364630762E-020
   5.77000000000000         8.505378619963422E-020
   5.96000000000001         1.047759081447244E-019
   6.15000000000001         9.271615395596916E-020
   6.34000000000000         5.252596024744037E-020
   6.53000000000000        -4.147561437238136E-021