  -105.000000000000        -3.781217645104412E-020
  -104.810000000000        -1.042645225952353E-019
  -104.620000000000        -1.462838988012630E-019
  -104.430000000000        -1.559687117335472E-019
  -104.240000000000        -1.344468215884616E-019
  -104.050000000000        -9.146020872683825E-020
  -103.860000000000        -4.247124250372848E-020
  -103.670000000000        -4.132134407151383E-021
  -103.480000000000         1.056499541863693E-020
  -103.290000000000        -3.951880779116962E-021
  -103.100000000000        -4.425422939862139E-020
  -102.910000000000        -9.896460155728916E-020
  -102.720000000000        -1.521266725190415E-019
  -102.530000000000        -1.879085994144949E-019
  -102.340000000000        -1.952715640487434E-019
  -102.150000000000        -1.712482073184378E-019
  -101.960000000000        -1.218784756696856E-019
  -101.770000000000        -6.052743128002268E-020
  -101.580000000000        -4.067543974452101E-021
  -101.390000000000         3.197080194735119E-020
  -101.200000000000         3.787335005154051E-020
  -101.010000000000         1.253880667612055E-020
  -100.820000000000        -3.621653859601188E-020
  -100.630000000000        -9.393492927797729E-020
  -100.440000000000        -1.437105291456333E-019
  -100.250000000000        -1.710806070209075E-019
  -100.060000000000        -1.681963606974963E-019
  -99.8700000000000        -1.360683884788755E-019
  -99.6800000000000        -8.424163842991160E-020
  -99.4900000000000        -2.799794879199121E-020
  -99.3000000000000         1.610224588062676E-020
  -99.1100000000000         3.504740551092459E-020
  -98.9200000000000         2.317123634137709E-020
  -98.7300000000000        -1.618613772644202E-020
  -98.5400000000000        -7.163754599530800E-020
  -98.3500000000000        -1.270512831765881E-019
  -98.1600000000000        -1.662358289090452E-019
  -97.9700000000000        -1.776429416400077E-019
  -97.7800000000000        -1.577212809965606E-019
  -97.5900000000000        -1.119473636648657E-019
  -97.4000000000000        -5.323667271941400E-020
  -97.2100000000000         1.802652049369154E-021
  -97.0200000000000         3.768717051823819E-020
  -96.8300000000000         4.455020261260425E-020
  -96.6400000000000         2.100488287416580E-020
  -96.4500000000000        -2.545555646526264E-020
  -96.2600000000000        -8.064034519857652E-020
  -96.0700000000000        -1.277950942352115E-019
  -95.8800000000000        -1.524857225225655E-019
  -95.6900000000000        -1.468110206628081E-019
  -95.5000000000000        -1.117178531077410E-019
  -95.3100000000000        -5.674607033114908E-020
  -95.1200000000000         2.722385502114382E-021
  -94.9300000000000         4.991264055204112E-020
  -94.7400000000000         7.151660083281419E-020
  -94.5500000000000         6.155731258741321E-020
  -94.3600000000000         2.313841042739288E-020
  -94.1700000000000        -3.243174054189805E-020
  -93.9800000000000        -8.889309607095319E-020
  -93.7900000000000        -1.297259626257654E-019
  -93.6000000000000        -1.429229686188564E-019
  -93.4100000000000        -1.244557204506639E-019
  -93.2200000000000        -7.942977526387755E-020
  -93.0300000000000        -2.059527283755772E-020
  -92.8400000000000         3.534977068139867E-020
  -92.6500000000000         7.258730678649806E-020
  -92.4600000000000         8.073857892882444E-020
  -92.2700000000000         5.783816980022431E-020
  -92.0800000000000         1.086775182754966E-020
  -91.8900000000000        -4.629974789299117E-020
  -91.7000000000000        -9.694748646966847E-020
  -91.5100000000000        -1.263797260549211E-019
  -91.3200000000000        -1.261922586962641E-019
  -91.1300000000000        -9.670607362487607E-020
  -90.9400000000000        -4.685475638373750E-020
  -90.7500000000000         8.442143680040607E-021
  -90.5600000000000         5.265397541727500E-020
  -90.3700000000000         7.248685279934780E-020
  -90.1800000000000         6.179319874547462E-020
  -89.9900000000000         2.340683180641116E-020
  -89.8000000000000        -3.162893770098337E-020
  -89.6100000000000        -8.721760498750626E-020
  -89.4200000000000        -1.268386937266748E-019
  -89.2300000000000        -1.383126828912457E-019
  -89.0400000000000        -1.173237277748434E-019
  -88.8500000000000        -6.867974165497455E-020
  -88.6600000000000        -4.943866614754837E-021
  -88.4700000000000         5.716586887562176E-020
  -88.2800000000000         1.015632794656601E-019
  -88.0900000000000         1.173777831096622E-019
  -87.9000000000000         1.020077303966047E-019
  -87.7100000000000         6.176433234528799E-020
  -87.5200000000000         9.929134779400819E-021
  -87.3300000000000        -3.720225034006365E-020
  -87.1400000000000        -6.513623821926124E-020
  -86.9500000000000        -6.545624786291446E-020
  -86.7600000000000        -3.831258681875379E-020
  -86.5700000000000         7.600350383509848E-021
  -86.3800000000000         5.757832519844954E-020
  -86.1900000000000         9.521971858809753E-020
  -86.0000000000000         1.072611016617661E-019
  -85.8100000000000         8.752402458274890E-020
  -85.6200000000000         3.881823768897373E-020
  -85.4300000000000        -2.775731823739940E-020
  -85.2400000000000        -9.591580402590752E-020
  -85.0500000000000        -1.487884820502641E-019
  -84.8600000000000        -1.737037286779103E-019
  -84.6700000000000        -1.657597746634965E-019
  -84.4800000000000        -1.291615132113210E-019
  -84.2900000000000        -7.593664925866722E-020
  -84.1000000000000        -2.240232219174946E-020
  -83.9100000000000         1.559568691994578E-020
  -83.7200000000000         2.729093121115455E-020
  -83.5300000000000         1.011242758232349E-020
  -83.3400000000000        -2.959812228661638E-020
  -83.1500000000000        -7.847665729387659E-020
  -82.9600000000000        -1.200829868611378E-019
  -82.7700000000000        -1.397526830759264E-019
  -82.5800000000000        -1.289425792459849E-019
  -82.3900000000000        -8.780749585206771E-020
  -82.2000000000000        -2.526063751798202E-020
  -82.0100000000000         4.350118377131775E-020
  -81.8200000000000         1.012941150667819E-019
  -81.6300000000000         1.338259907919400E-019
  -81.4400000000000         1.337481624784461E-019
  -81.2500000000000         1.027087866899396E-019
  -81.0600000000000         5.081377190920101E-020
  -80.8700000000000        -6.346231808659723E-021
  -80.6800000000000        -5.223696403658596E-020
  -80.4900000000000        -7.416901758169570E-020
  -80.3000000000000        -6.694400951769547E-020
  -80.1100000000000        -3.430470994633292E-020
  -79.9200000000000         1.222488243119333E-020
  -79.7300000000000         5.676750570104430E-020
  -79.5400000000000         8.379208447073550E-020
  -79.3500000000000         8.272140851100609E-020
  -79.1600000000000         5.111022732305076E-020
  -78.9700000000000        -4.532774632700740E-021
  -78.7800000000000        -7.052479414326687E-020
  -78.5900000000000        -1.298809974017592E-019
  -78.4000000000000        -1.671595572127649E-019
  -78.2100000000000        -1.728757729946736E-019
  -78.0200000000000        -1.462069632608592E-019
  -77.8300000000000        -9.520820660798343E-020
  -77.6400000000000        -3.448243021780928E-020
  -77.4500000000000         1.901554271666674E-020
  -77.2600000000000         5.082563430442706E-020
  -77.0700000000000         5.308145117860035E-020
  -76.8800000000000         2.668256123878007E-020
  -76.6900000000000        -1.908150486489375E-020
  -76.5000000000000        -6.934107538844901E-020
  -76.3100000000000        -1.080705375280117E-019
  -76.1200000000000        -1.228367078609137E-019
  -75.9300000000000        -1.084836506066324E-019
  -75.7400000000000        -6.867414802620612E-020
  -75.5500000000000        -1.483381631407431E-020
  -75.3600000000000         3.719582705007783E-020
  -75.1700000000000         7.181842218923488E-020
  -74.9800000000000         7.829708347814575E-020
  -74.7900000000000         5.397453603666125E-020
  -74.6000000000000         5.155888288411526E-021
  -74.4100000000000        -5.461277410209123E-020
  -74.2200000000000        -1.083829459866619E-019
  -74.0300000000000        -1.406569700781026E-019
  -73.8400000000000        -1.418543282607846E-019
  -73.6500000000000        -1.110952115172999E-019
  -73.4600000000000        -5.648924988380349E-020
  -73.2700000000000         7.160062766439853E-021
  -73.0800000000000         6.257375912811686E-020
  -72.8900000000000         9.491844697551325E-020
  -72.7000000000000         9.600742313115627E-020
  -72.5100000000000         6.657098955618399E-020
  -72.3200000000000         1.594700787082259E-020
  -72.1300000000000        -4.070981528294164E-020
  -71.9400000000000        -8.688433003203780E-020
  -71.7500000000000        -1.095264442028158E-019
  -71.5600000000000        -1.028423624739253E-019
  -71.3700000000000        -6.994751605655638E-020
  -71.1800000000000        -2.189825021651844E-020
  -70.9900000000000         2.561602432681355E-020
  -70.8000000000000         5.695320881425618E-020
  -70.6100000000000         6.120097859149670E-020
  -70.4200000000000         3.548948506090887E-020
  -70.2300000000000        -1.403701271443779E-020
  -70.0400000000000        -7.387827084253546E-020
  -69.8500000000000        -1.269912632109495E-019
  -69.6600000000000        -1.576611828251581E-019
  -69.4700000000000        -1.560284512199222E-019
  -69.2800000000000        -1.209680948454961E-019
  -69.0900000000000        -6.048932678360092E-020
  -68.9000000000000         1.046572783685080E-020
  -68.7100000000000         7.419649722078790E-020
  -68.5200000000000         1.151931169609405E-019
  -68.3300000000000         1.244363364462719E-019
  -68.1400000000000         1.018125733533732E-019
  -67.9500000000000         5.595697455095885E-020
  -67.7600000000000         1.585160939290023E-021
  -67.5700000000000        -4.489805591674151E-020
  -67.3800000000000        -7.022945684969981E-020
  -67.1900000000000        -6.815322775538853E-020
  -67.0000000000000        -4.120255114080957E-020
  -66.8100000000000         1.153553518910429E-022
  -66.6200000000000         4.048925234923029E-020
  -66.4300000000000         6.440279522839417E-020
  -66.2400000000000         6.081836892316179E-020
  -66.0500000000000         2.657372872764039E-020
  -65.8600000000000        -3.250803349348823E-020
  -65.6700000000000        -1.031278374641331E-019
  -65.4800000000000        -1.682058146123706E-019
  -65.2900000000000        -2.116896217329542E-019
  -65.1000000000000        -2.230792883444955E-019
  -64.9100000000000        -2.003573478932900E-019
  -64.7200000000000        -1.504796857320359E-019
  -64.5300000000000        -8.729230711979103E-020
  -64.3400000000000        -2.748569147379713E-020
  -64.1500000000000         1.423359207223993E-020
  -63.9600000000000         2.934833059817095E-020
  -63.7700000000000         1.788954979902522E-020
  -63.5800000000000        -1.173566421057857E-020
  -63.3900000000000        -4.539114452321753E-020
  -63.2000000000000        -6.755165984429961E-020
  -63.0100000000000        -6.605852629895545E-020
  -62.8200000000000        -3.589402381001711E-020
  -62.6300000000000         1.913190931727030E-020
  -62.4400000000000         8.727787114978217E-020
  -62.2500000000000         1.520938959635697E-019
  -62.0600000000000         1.970419084959576E-019
  -61.8700000000000         2.101822967386287E-019
  -61.6800000000000         1.875765681479488E-019
  -61.4900000000000         1.344252485926362E-019
  -61.3000000000000         6.361211340445114E-020
  -61.1100000000000        -7.925606136762442E-021
  -60.9200000000000        -6.395248007456745E-020
  -60.7300000000000        -9.344185911746397E-020
  -60.5400000000000        -9.353561373014909E-020
  -60.3500000000000        -7.011058640715766E-020
  -60.1600000000000        -3.580309100666250E-020
  -59.9700000000000        -6.079813038406397E-021
  -59.7800000000000         5.493891309179848E-021
  -59.5900000000000        -8.590828177190363E-021
  -59.4000000000000        -4.741842408600595E-020
  -59.2100000000000        -1.017645176816752E-019
  -59.0200000000000        -1.566764397500569E-019
  -58.8300000000000        -1.957874603590639E-019
  -58.6400000000000        -2.061257461609868E-019
  -58.4500000000000        -1.820246759401591E-019
  -58.2600000000000        -1.269892605956891E-019
  -58.0700000000000        -5.295688913039220E-020
  -57.8800000000000         2.285790290399926E-020
  -57.6900000000000         8.264497428576255E-020
  -57.5000000000000         1.128735907151568E-019
  -57.3100000000000         1.079705144092590E-019
  -57.1200000000000         7.175406882489153E-020
  -56.9300000000000         1.622092536814080E-020
  -56.7400000000000        -4.195855695343979E-020
  -56.5500000000000        -8.622388287427897E-020
  -56.3600000000000        -1.048087693943776E-019
  -56.1700000000000        -9.398037210781054E-020
  -55.9800000000000        -5.890995975989447E-020
  -55.7900000000000        -1.194289496841706E-020
  -55.6000000000000         3.120628282016488E-020
  -55.4100000000000         5.620633040604361E-020
  -55.2200000000000         5.441292244635327E-020
  -55.0300000000000         2.546662153436831E-020
  -54.8400000000000        -2.256787540467149E-020
  -54.6500000000000        -7.555589285864832E-020
  -54.4600000000000        -1.174507705583678E-019
  -54.2700000000000        -1.350435849639735E-019
  -54.0800000000000        -1.219199614438731E-019
  -53.8900000000000        -8.046596178206711E-020
  -53.7000000000000        -2.132739649170847E-020
  -53.5100000000000         3.953500933217541E-020
  -53.3200000000000         8.535191156521105E-020
  -53.1300000000000         1.033136577641681E-019
  -52.9400000000000         8.822348688966636E-020
  -52.7500000000000         4.398302311182032E-020
  -52.5600000000000        -1.751267006269249E-020
  -52.3700000000000        -7.974460414158845E-020
  -52.1800000000000        -1.262291602060338E-019
  -51.9900000000000        -1.451282151212636E-019
  -51.8000000000000        -1.324921210308265E-019
  -51.6100000000000        -9.321474133322478E-020
  -51.4200000000000        -3.943962630335171E-020
  -51.2300000000000         1.310826293064876E-020
  -51.0400000000000         4.979048500205873E-020
  -50.8500000000000         6.135699587297469E-020
  -50.6600000000000         4.662219535991953E-020
  -50.4700000000000         1.273037959312219E-020
  -50.2800000000000        -2.706733944701021E-020
  -50.0900000000000        -5.747111824938079E-020
  -49.9000000000000        -6.583070284851402E-020
  -49.7100000000000        -4.609663275422053E-020
  -49.5200000000000        -8.493644205185034E-022
  -49.3300000000000         5.921205435134988E-020
  -49.1400000000000         1.181993184447952E-019
  -48.9500000000000         1.595487355733779E-019
  -48.7600000000000         1.708124175310736E-019
  -48.5700000000000         1.473246633129907E-019
  -48.3800000000000         9.365840118469533E-020
  -48.1900000000000         2.242698704945537E-020
  -48.0000000000000        -4.923669153433932E-020
  -47.8100000000000        -1.045096558695309E-019
  -47.6200000000000        -1.316179101719201E-019
  -47.4300000000000        -1.271117891881521E-019
  -47.2400000000000        -9.673011758075348E-020
  -47.0500000000000        -5.360501473088236E-020
  -46.8600000000000        -1.432799622619042E-020
  -46.6700000000000         5.984412894532134E-021
  -46.4800000000000        -1.802972560591709E-021
  -46.2900000000000        -3.807365731169090E-020
  -46.1000000000000        -9.423392715355480E-020
  -45.9100000000000        -1.551046614010641E-019
  -45.7200000000000        -2.032427251120991E-019
  -45.5300000000000        -2.239426471751974E-019
  -45.3400000000000        -2.094721806464183E-019
  -45.1500000000000        -1.613203163782685E-019
  -44.9600000000000        -8.981562812018834E-020
  -44.7700000000000        -1.123474561854212E-020
  -44.5800000000000         5.675736815885900E-020
  -44.3900000000000         1.000190086308469E-019
  -44.2000000000000         1.117847143103449E-019
  -44.0100000000000         9.435974840101704E-020
  -43.8200000000000         5.818155870583650E-020
  -43.6300000000000         1.853485591134844E-020
  -43.4400000000000        -9.114655372727346E-021
  -43.2500000000000        -1.380356198059790E-020
  -43.0600000000000         7.596488152373128E-021
  -42.8700000000000         4.936932347865810E-020
  -42.6800000000000         9.856376060711684E-020
  -42.4900000000000         1.387569386142264E-019
  -42.3000000000000         1.548832049879812E-019
  -42.1100000000000         1.377332576777196E-019
  -41.9200000000000         8.682277589833740E-020
  -41.7300000000000         1.079678996196620E-020
  -41.5400000000000        -7.475813628600919E-020
  -41.3500000000000        -1.514780654431060E-019
  -41.1600000000000        -2.031773678804598E-019
  -40.9700000000000        -2.201821652621957E-019
  -40.7800000000000        -2.018081364859844E-019
  -40.5900000000000        -1.562888157331405E-019
  -40.4000000000000        -9.820146340719104E-020
  -40.2100000000000        -4.416119181209034E-020
  -40.0200000000000        -8.047476144254189E-021
  -39.8300000000000         2.851940312167980E-021
  -39.6400000000000        -1.032263085979622E-020
  -39.4500000000000        -3.868948932864879E-020
  -39.2600000000000        -6.859940427887946E-020
  -39.0700000000000        -8.599585999124103E-020
  -38.8800000000000        -8.086056263803350E-020
  -38.6900000000000        -5.042256139748306E-020
  -38.5000000000000        -1.755828646014188E-022
  -38.3100000000000         5.760418841637650E-020
  -38.1200000000000         1.074081705110195E-019
  -37.9300000000000         1.350688192099513E-019
  -37.7400000000000         1.320076382033526E-019
  -37.5500000000000         9.790242086675163E-020
  -37.3600000000000         4.097992143796303E-020
  -37.1700000000000        -2.416822954396998E-020
  -36.9800000000000        -8.062944998291653E-020
  -36.7900000000000        -1.139172293341030E-019
  -36.6000000000000        -1.160572005185440E-019
  -36.4100000000000        -8.783247117208231E-020
  -36.2200000000000        -3.853330632965129E-020
  -36.0300000000000         1.672640453599003E-020
  -35.8400000000000         6.135919662624200E-020
  -35.6500000000000         8.206780464039891E-020
  -35.4600000000000         7.264635338680103E-020
  -35.2700000000000         3.572055883788140E-020
  -35.0800000000000        -1.807267666802771E-020
  -34.8900000000000        -7.322231246149759E-020
  -34.7000000000000        -1.138821430800602E-019
  -34.5100000000000        -1.284930088427600E-019
  -34.3200000000000        -1.131472457532317E-019
  -34.1300000000000        -7.271861437484238E-020
  -33.9400000000000        -1.942689032635677E-020
  -33.7500000000000         3.075054639202482E-020
  -33.5600000000000         6.278038896227451E-020
  -33.3700000000000         6.701925270437510E-020
  -33.1800000000000         4.210214331166471E-020
  -32.9900000000000        -4.579638536321027E-021
  -32.8000000000000        -5.896435893366614E-020
  -32.6100000000000        -1.043758203334706E-019
  -32.4200000000000        -1.263804855189885E-019
  -32.2300000000000        -1.170400976110186E-019
  -32.0400000000000        -7.732355059199761E-020
  -31.8500000000000        -1.696765765798544E-020
  -31.6600000000000         4.819182025211043E-020
  -31.4700000000000         1.006683495859325E-019
  -31.2800000000000         1.262833950265541E-019
  -31.0900000000000         1.182113132772384E-019
  -30.9000000000000         7.894158125230993E-020
  -30.7100000000000         1.958660959897505E-020
  -30.5200000000000        -4.327048475807947E-020
  -30.3300000000000        -9.228284694754070E-020
  -30.1400000000000        -1.142492940704838E-019
  -29.9500000000000        -1.038206235178566E-019
  -29.7600000000000        -6.495012444072717E-020
  -29.5700000000000        -9.688021245047974E-021
  -29.3800000000000         4.531899468339735E-020
  -29.1900000000000         8.360914163793266E-020
  -29.0000000000000         9.359339894271242E-020
  -28.8100000000000         7.180826324539656E-020
  -28.6200000000000         2.380873735509939E-020
  -28.4300000000000        -3.754012174835608E-020
  -28.2400000000000        -9.586115129507748E-020
  -28.0500000000000        -1.360351713464942E-019
  -27.8600000000000        -1.485470326621867E-019
  -27.6700000000000        -1.321422354392838E-019
  -27.4800000000000        -9.402987723587184E-020
  -27.2900000000000        -4.758970423008937E-020
  -27.1000000000000        -8.270978626290229E-021
  -26.9100000000000         1.110354786380775E-020
  -26.7200000000000         4.244704146692159E-021
  -26.5300000000000        -2.663684544699814E-020
  -26.3400000000000        -7.139021084193372E-020
  -26.1500000000000        -1.148566611990183E-019
  -25.9600000000000        -1.413258724575893E-019
  -25.7700000000000        -1.392171359007111E-019
  -25.5800000000000        -1.046160941286508E-019
  -25.3900000000000        -4.262860940028063E-020
  -25.2000000000000         3.385159854939711E-020
  -25.0100000000000         1.076135113605357E-019
  -24.8200000000000         1.618421144769128E-019
  -24.6300000000000         1.847228569559685E-019
  -24.4400000000000         1.726211664745045E-019
  -24.2500000000000         1.309345603816204E-019
  -24.0600000000000         7.238606253981027E-020
  -23.8700000000000         1.326415044605612E-020
  -23.6800000000000        -3.129419505676077E-020
  -23.4900000000000        -5.160558170369370E-020
  -23.3000000000000        -4.607891606709671E-020
  -23.1100000000000        -2.143079258962640E-020
  -22.9200000000000         9.570114436852386E-021
  -22.7300000000000         3.215112296854332E-020
  -22.5400000000000         3.417224233138357E-020
  -22.3500000000000         9.977626211164711E-021
  -22.1600000000000        -3.767943232509362E-020
  -21.9700000000000        -9.821512698369794E-020
  -21.7800000000000        -1.561445784121437E-019
  -21.5900000000000        -1.955234139751945E-019
  -21.4000000000000        -2.046170772389776E-019
  -21.2100000000000        -1.794365145320638E-019
  -21.0200000000000        -1.250958459794244E-019
  -20.8300000000000        -5.457095539964204E-020
  -20.6400000000000         1.481023278024504E-020
  -20.4500000000000         6.615331402558715E-020
  -20.2600000000000         8.768995936748821E-020
  -20.0700000000000         7.602967942014295E-020
  -19.8800000000000         3.703566799634134E-020
  -19.6900000000000        -1.592725482482855E-020
  -19.5000000000000        -6.586960203828511E-020
  -19.3100000000000        -9.706666054472814E-020
  -19.1200000000000        -9.955827800173896E-020
  -18.9300000000000        -7.196931369671207E-020
  -18.7400000000000        -2.184400520720340E-020
  -18.5500000000000         3.659608576314911E-020
  -18.3600000000000         8.661606085292624E-020
  -18.1700000000000         1.138420994579396E-019
  -17.9800000000000         1.104299174488229E-019
  -17.7900000000000         7.731978987181886E-020
  -17.6000000000000         2.393182611851731E-020
  -17.4100000000000        -3.459763737855804E-020
  -17.2200000000000        -8.182440954017958E-020
  -17.0300000000000        -1.047632950461705E-019
  -16.8400000000000        -9.762991229292490E-020
  -16.6500000000000        -6.347586190002617E-020
  -16.4600000000000        -1.324757620461226E-020
  -16.2700000000000         3.745429522672004E-020
  -16.0800000000000         7.297070241603014E-020
  -15.8900000000000         8.219582557858575E-020
  -15.7000000000000         6.185904640508489E-020
  -15.5100000000000         1.751866248284335E-020
  -15.3200000000000        -3.802379073400042E-020
  -15.1300000000000        -8.842783990262455E-020
  -14.9400000000000        -1.185608065615834E-019
  -14.7500000000000        -1.189107835797886E-019
  -14.5600000000000        -8.838929207290213E-020
  -14.3700000000000        -3.471378230414152E-020
  -14.1800000000000         2.774234497362802E-020
  -13.9900000000000         8.201589535479270E-020
  -13.8000000000000         1.133677549881436E-019
  -13.6100000000000         1.134586929337469E-019
  -13.4200000000000         8.268319776088866E-020
  -13.2300000000000         2.998907202307983E-020
  -13.0400000000000        -2.975999256636416E-020
  -12.8500000000000        -8.010672412055680E-020
  -12.6600000000000        -1.077458859080100E-019
  -12.4700000000000        -1.063123729520923E-019
  -12.2800000000000        -7.811578980080612E-020
  -12.0900000000000        -3.332841558818780E-020
  -11.9000000000000         1.312339553893058E-020
  -11.7100000000000         4.604694549219304E-020
  -11.5200000000000         5.453283362113022E-020
  -11.3300000000000         3.523132354187481E-020
  -11.1400000000000        -6.610223440955991E-021
  -10.9500000000000        -5.866210414701368E-020
  -10.7600000000000        -1.051445715288951E-019
  -10.5700000000000        -1.315181139526702E-019
  -10.3800000000000        -1.288557168039671E-019
  -10.1900000000000        -9.660837568661415E-020
  -10.0000000000000        -4.294105119311398E-020
  -9.81000000000000         1.747661665906750E-020
  -9.62000000000000         6.759973364751927E-020
  -9.42999999999999         9.287355868500745E-020
  -9.23999999999999         8.543391880671727E-020
  -9.05000000000000         4.642821211094737E-020
  -8.86000000000000        -1.422094803600845E-020
  -8.67000000000000        -8.055346530108338E-020
  -8.48000000000000        -1.350335029279426E-019
  -8.28999999999999        -1.634581241530913E-019
  -8.09999999999999        -1.589047736794569E-019
  -7.91000000000000        -1.235875765217313E-019
  -7.72000000000000        -6.809892909181447E-020
  -7.53000000000000        -8.269720916989014E-021
  -7.34000000000000         3.943332171482562E-020
  -7.15000000000001         6.263986723535354E-020
  -6.95999999999999         5.657651756912605E-020
  -6.77000000000000         2.533655299209264E-020
  -6.58000000000000        -1.943472935843036E-020
  -6.39000000000000        -6.204848232581868E-020
  -6.20000000000000        -8.745230574115091E-020
  -6.01000000000001        -8.572063955503060E-020
  -5.81999999999999        -5.504737002924563E-020
  -5.63000000000000        -2.365281190390996E-021
  -5.44000000000000         5.859306527505913E-020
  -5.25000000000000         1.112320962543554E-019
  -5.06000000000000         1.408837998794987E-019
  -4.87000000000000         1.390602917683516E-019
  -4.67999999999999         1.059345727683998E-019
  -4.48999999999999         5.033085319178979E-020
  -4.30000000000000        -1.277335019482738E-020
  -4.11000000000000        -6.651314388722286E-020
  -3.92000000000000        -9.694045777400618E-020
  -3.73000000000000        -9.698106813056960E-020
  -3.53999999999999        -6.840251614379281E-020
  -3.34999999999999        -2.122570599037587E-020
  -3.16000000000000         2.924561696167689E-020
  -2.97000000000000         6.691088509316349E-020
  -2.78000000000000         7.956777221376883E-020
  -2.59000000000000         6.245218496137764E-020
  -2.40000000000001         1.959968781750219E-020
  -2.20999999999999        -3.735774787379020E-020
  -2.02000000000000        -9.259938070310679E-020
  -1.83000000000000        -1.307293926495501E-019
  -1.64000000000000        -1.412519553695758E-019
  -1.45000000000000        -1.216062868025656E-019
  -1.26000000000001        -7.788014150011073E-020
  -1.06999999999999        -2.299639849480690E-020
 -0.879999999999995         2.709471555117193E-020
 -0.689999999999998         5.810080405039665E-020
 -0.500000000000000         6.157468942016462E-020
 -0.310000000000002         3.737473658573557E-020
 -0.120000000000005        -6.323133799553119E-021
  7.000000000000739E-002   -5.546344053118453E-020
  0.260000000000005        -9.428313128706559E-020
  0.450000000000003        -1.099960867147152E-019
  0.640000000000001        -9.662027979519743E-020
  0.829999999999998        -5.682621326389352E-020
   1.02000000000000        -1.257546274869659E-021
   1.21000000000001         5.449284195126481E-020
   1.40000000000001         9.438506003288468E-020
   1.59000000000000         1.066099431720290E-019
   1.78000000000000         8.707903856343363E-020
   1.97000000000000         4.070108400697011E-020
   2.16000000000000        -1.994017751595036E-020
   2.34999999999999        -7.813531503277809E-020
   2.54000000000001        -1.178045478855847E-019
   2.73000000000000        -1.280864801866036E-019
   2.92000000000000        -1.064355454161177E-019
   3.11000000000000        -5.933463281624739E-020
   3.30000000000000        -4.171718653258468E-022
   3.48999999999999         5.346123746954225E-020
   3.68000000000001         8.707118045941618E-020
   3.87000000000000         9.118090059774868E-020
   4.06000000000000         6.518893266233756E-020
   4.25000000000000         1.725601713672849E-020
   4.44000000000000        -3.810227721870888E-020
   4.63000000000000        -8.426359359920906E-020
   4.82000000000001        -1.073536343640753E-019
   5.01000000000001        -1.002981293469868E-019
   5.20000000000000        -6.489701473877377E-020
   5.39000000000000        -1.132119732469405E-020
   5.58000000000000         4.482114973832854E-020
   5.77000000000000         8.700057070625579E-020
   5.96000000000001         1.025609630957487E-019
   6.15000000000001         8.640844435677949E-020
   6.34000000000000         4.252702624123708E-020
   6.53000000000000        -1.712070110251530E-020