  -105.000000000000        -3.980229100109906E-019
  -104.810000000000        -3.014754704541793E-019
  -104.620000000000        -1.408337527671662E-019
  -104.430000000000         3.888835348049807E-020
  -104.240000000000         1.876578585725618E-019
  -104.050000000000         2.648328031250139E-019
  -103.860000000000         2.508405255401408E-019
  -103.670000000000         1.527290333864807E-019
  -103.480000000000         1.977596367975813E-021
  -103.290000000000        -1.547868195472890E-019
  -103.100000000000        -2.694484291883583E-019
  -102.910000000000        -3.064502252051995E-019
  -102.720000000000        -2.531505217059912E-019
  -102.530000000000        -1.235013400841547E-019
  -102.340000000000         4.599644960208270E-020
  -102.150000000000         2.068809899975585E-019
  -101.960000000000         3.128003957944008E-019
  -101.770000000000         3.330000710262853E-019
  -101.580000000000         2.613145313675987E-019
  -101.390000000000         1.180364773791218E-019
  -101.200000000000        -5.590439282609459E-020
  -101.010000000000        -2.107750112702142E-019
  -100.820000000000        -3.024391484743109E-019
  -100.630000000000        -3.051228558651198E-019
  -100.440000000000        -2.188308218123501E-019
  -100.250000000000        -6.927525390326740E-020
  -100.060000000000         9.963574927809012E-020
  -99.8700000000000         2.385534377274579E-019
  -99.6800000000000         3.069913006328115E-019
  -99.4900000000000         2.850475325290037E-019
  -99.3000000000000         1.791650330269849E-019
  -99.1100000000000         2.025768949591098E-020
  -98.9200000000000        -1.452700011729175E-019
  -98.7300000000000        -2.690181397230570E-019
  -98.5400000000000        -3.146808726265794E-019
  -98.3500000000000        -2.686215890802090E-019
  -98.1600000000000        -1.438472729212436E-019
  -97.9700000000000         2.377243719724519E-020
  -97.7800000000000         1.859292726970595E-019
  -97.5900000000000         2.959014308071674E-019
  -97.4000000000000         3.221058089773884E-019
  -97.2100000000000         2.572554422573697E-019
  -97.0200000000000         1.204762425089319E-019
  -96.8300000000000        -4.823390421422118E-020
  -96.6400000000000        -1.996116565731611E-019
  -96.4500000000000        -2.894456038247681E-019
  -96.2600000000000        -2.914467037702392E-019
  -96.0700000000000        -2.049184922316438E-019
  -95.8800000000000        -5.498173197087561E-020
  -95.6900000000000         1.147171752183975E-019
  -95.5000000000000         2.546868031711196E-019
  -95.3100000000000         3.239657958866164E-019
  -95.1200000000000         3.020195085758922E-019
  -94.9300000000000         1.947199884007770E-019
  -94.7400000000000         3.268773872025471E-020
  -94.5500000000000        -1.375273343349049E-019
  -94.3600000000000        -2.668891383998531E-019
  -94.1700000000000        -3.180671782367009E-019
  -93.9800000000000        -2.762682010814400E-019
  -93.7900000000000        -1.535520791780904E-019
  -93.6000000000000         1.464229542349254E-020
  -93.4100000000000         1.797630170206762E-019
  -93.2200000000000         2.942129471383543E-019
  -93.0300000000000         3.251176875851017E-019
  -92.8400000000000         2.637935009928007E-019
  -92.6500000000000         1.281867931665791E-019
  -92.4600000000000        -4.239152641466326E-020
  -92.2700000000000        -1.986876850396397E-019
  -92.0800000000000        -2.957714630616510E-019
  -91.8900000000000        -3.060297237184192E-019
  -91.7000000000000        -2.271373471917200E-019
  -91.5100000000000        -8.269445081892606E-020
  -91.3200000000000         8.466942211355472E-020
  -91.1300000000000         2.257343340614801E-019
  -90.9400000000000         2.990551101313579E-019
  -90.7500000000000         2.830615201969574E-019
  -90.5600000000000         1.823623093250847E-019
  -90.3700000000000         2.642132853013126E-020
  -90.1800000000000        -1.389956005221899E-019
  -89.9900000000000        -2.651050936542427E-019
  -89.8000000000000        -3.142659727607995E-019
  -89.6100000000000        -2.709210251285510E-019
  -89.4200000000000        -1.461621286014649E-019
  -89.2300000000000         2.540496743278657E-020
  -89.0400000000000         1.956012993754184E-019
  -88.8500000000000         3.165529420039209E-019
  -88.6600000000000         3.544853664829218E-019
  -88.4700000000000         2.994256036998548E-019
  -88.2800000000000         1.679919484013661E-019
  -88.0900000000000        -1.529799433462769E-021
  -87.9000000000000        -1.603717996204505E-019
  -87.7100000000000        -2.634625222344197E-019
  -87.5200000000000        -2.824780211701545E-019
  -87.3300000000000        -2.139931171495611E-019
  -87.1400000000000        -8.038632741818451E-020
  -86.9500000000000         7.675691038918889E-020
  -86.7600000000000         2.088361673197649E-019
  -86.5700000000000         2.744946815461380E-019
  -86.3800000000000         2.518009981016671E-019
  -86.1900000000000         1.447913559315870E-019
  -86.0000000000000        -1.756008052603070E-020
  -85.8100000000000        -1.896621816245751E-019
  -85.6200000000000        -3.224949499236887E-019
  -85.4300000000000        -3.778144048512424E-019
  -85.2400000000000        -3.392388483055643E-019
  -85.0500000000000        -2.170072661791855E-019
  -84.8600000000000        -4.504770433230270E-020
  -84.6700000000000         1.287848591993211E-019
  -84.4800000000000         2.564816025979160E-019
  -84.2900000000000         3.036950040146131E-019
  -84.1000000000000         2.596078919266333E-019
  -83.9100000000000         1.399906803094836E-019
  -83.7200000000000        -1.745905617186671E-020
  -83.5300000000000        -1.641568372696269E-019
  -83.3400000000000        -2.548432382747922E-019
  -83.1500000000000        -2.608239271141713E-019
  -82.9600000000000        -1.783775263985068E-019
  -82.7700000000000        -2.988880033443544E-020
  -82.5800000000000         1.426082351045048E-019
  -82.3900000000000         2.895880324327937E-019
  -82.2000000000000         3.683630829604887E-019
  -82.0100000000000         3.554436389381942E-019
  -81.8200000000000         2.533606508654544E-019
  -81.6300000000000         8.997789235842366E-020
  -81.4400000000000        -8.951787379875829E-020
  -81.2500000000000        -2.356397316632460E-019
  -81.0600000000000        -3.088635030859031E-019
  -80.8700000000000        -2.909858466474975E-019
  -80.6800000000000        -1.902748442053621E-019
  -80.4900000000000        -3.892579113773717E-020
  -80.3000000000000         1.164161330859818E-019
  -80.1100000000000         2.282931288771425E-019
  -79.9200000000000         2.622712189938648E-019
  -79.7300000000000         2.069781513191143E-019
  -79.5400000000000         7.744991046893066E-020
  -79.3500000000000        -8.918194947595216E-020
  -79.1600000000000        -2.444269620127990E-019
  -78.9700000000000        -3.425023375591549E-019
  -78.7800000000000        -3.536560849662547E-019
  -78.5900000000000        -2.728698667197384E-019
  -78.4000000000000        -1.213985553069072E-019
  -78.2100000000000         5.930617827292043E-020
  -78.0200000000000         2.195138166148037E-019
  -77.8300000000000         3.155019392237140E-019
  -77.6400000000000         3.220684433990825E-019
  -77.4500000000000         2.396628649105059E-019
  -77.2600000000000         9.410271794609532E-020
  -77.0700000000000        -7.101776762052180E-020
  -76.8800000000000        -2.070229961222109E-019
  -76.6900000000000        -2.742901698205587E-019
  -76.5000000000000        -2.537372417837580E-019
  -76.3100000000000        -1.523269910113683E-019
  -76.1200000000000        -9.690073130785348E-022
  -75.9300000000000         1.545875780942050E-019
  -75.7400000000000         2.672196404537602E-019
  -75.5500000000000         3.023144212400887E-019
  -75.3600000000000         2.480059390710510E-019
  -75.1700000000000         1.187693888734235E-019
  -74.9800000000000        -4.867374616901157E-020
  -74.7900000000000        -2.059490119371061E-019
  -74.6000000000000        -3.070526195397241E-019
  -74.4100000000000        -3.217497829660513E-019
  -74.2200000000000        -2.444649904250397E-019
  -74.0300000000000        -9.606757857227903E-020
  -73.8400000000000         8.199965796263106E-020
  -73.6500000000000         2.395781385905033E-019
  -73.4600000000000         3.322126611428398E-019
  -73.2700000000000         3.339451745152677E-019
  -73.0800000000000         2.447617180144010E-019
  -72.8900000000000         9.053207125851149E-020
  -72.7000000000000        -8.452675416028255E-020
  -72.5100000000000        -2.306616059289673E-019
  -72.3200000000000        -3.069503663654263E-019
  -72.1300000000000        -2.930704456340686E-019
  -71.9400000000000        -1.950711476806458E-019
  -71.7500000000000        -4.348261122588180E-020
  -71.5600000000000         1.156941374773838E-019
  -71.3700000000000         2.345064733083457E-019
  -71.1800000000000         2.771456405119473E-019
  -70.9900000000000         2.304981023353797E-019
  -70.8000000000000         1.080558977845723E-019
  -70.6100000000000        -5.396542028944261E-020
  -70.4200000000000        -2.071641224125332E-019
  -70.2300000000000        -3.050637235062227E-019
  -70.0400000000000        -3.166910000535690E-019
  -69.8500000000000        -2.356895937952754E-019
  -69.6600000000000        -8.234423541584092E-020
  -69.4700000000000         1.020654845565196E-019
  -69.2800000000000         2.669665124493017E-019
  -69.0900000000000         3.668987534266096E-019
  -68.9000000000000         3.744882126987504E-019
  -68.7100000000000         2.882409225164818E-019
  -68.5200000000000         1.328931623045375E-019
  -68.3300000000000        -4.779014163494202E-020
  -68.1400000000000        -2.036757078913263E-019
  -67.9500000000000        -2.926964504536140E-019
  -67.7600000000000        -2.928680474943512E-019
  -67.5700000000000        -2.084165757694398E-019
  -67.3800000000000        -6.827299272339262E-020
  -67.1900000000000         8.259370419299826E-020
  -67.0000000000000         1.964707007937167E-019
  -66.8100000000000         2.369628987451593E-019
  -66.6200000000000         1.897408961416541E-019
  -66.4300000000000         6.684484598573556E-020
  -66.2400000000000        -9.672548775474481E-020
  -66.0500000000000        -2.531595617131291E-019
  -65.8600000000000        -3.557719601704741E-019
  -65.6700000000000        -3.726517879017084E-019
  -65.4800000000000        -2.960289585534467E-019
  -65.2900000000000        -1.446207455750714E-019
  -65.1000000000000         4.171434452449457E-020
  -64.9100000000000         2.134412798820577E-019
  -64.7200000000000         3.255875780628178E-019
  -64.5300000000000         3.506225871869691E-019
  -64.3400000000000         2.862473474186057E-019
  -64.1500000000000         1.558419904184972E-019
  -63.9600000000000         1.444774565616439E-021
  -63.7700000000000        -1.286914564039201E-019
  -63.5800000000000        -1.943302694112156E-019
  -63.3900000000000        -1.751013922727039E-019
  -63.2000000000000        -7.649596351693534E-020
  -63.0100000000000         7.173955285200645E-020
  -62.8200000000000         2.243197265297524E-019
  -62.6300000000000         3.336795390115364E-019
  -62.4400000000000         3.639047514054537E-019
  -62.2500000000000         3.012929796063749E-019
  -62.0600000000000         1.585005054483700E-019
  -61.8700000000000        -2.891355395075225E-020
  -61.6800000000000        -2.125494990362377E-019
  -61.4900000000000        -3.449407817971439E-019
  -61.3000000000000        -3.930672397998841E-019
  -61.1100000000000        -3.476979719121972E-019
  -60.9200000000000        -2.258547046362587E-019
  -60.7300000000000        -6.568691668342134E-020
  -60.5400000000000         8.473718893125764E-020
  -60.3500000000000         1.814509092632223E-019
  -60.1600000000000         1.973441729375004E-019
  -59.9700000000000         1.299667817852168E-019
  -59.7800000000000         2.143921470824868E-021
  -59.5900000000000        -1.447565062868480E-019
  -59.4000000000000        -2.629629789737082E-019
  -59.2100000000000        -3.123600874662356E-019
  -59.0200000000000        -2.724220420695060E-019
  -58.8300000000000        -1.485569110970998E-019
  -58.6400000000000         2.902142387823508E-020
  -58.4500000000000         2.136333674359422E-019
  -58.2600000000000         3.553283139481093E-019
  -58.0700000000000         4.151423856616361E-019
  -57.8800000000000         3.762943966755639E-019
  -57.6900000000000         2.490733874152704E-019
  -57.5000000000000         6.799948373005174E-020
  -57.3100000000000        -1.179268061828388E-019
  -57.1200000000000        -2.590846369915519E-019
  -56.9300000000000        -3.192243925393669E-019
  -56.7400000000000        -2.855781168646800E-019
  -56.5500000000000        -1.721914064264382E-019
  -56.3600000000000        -1.553127816383313E-020
  -56.1700000000000         1.363407364990604E-019
  -55.9800000000000         2.378689818061539E-019
  -55.7900000000000         2.592620908187710E-019
  -55.6000000000000         1.950500944358819E-019
  -55.4100000000000         6.547360037696310E-020
  -55.2200000000000        -8.965380455569475E-020
  -55.0300000000000        -2.227762506572209E-019
  -54.8400000000000        -2.926486371849628E-019
  -54.6500000000000        -2.765226371226615E-019
  -54.4600000000000        -1.769366103761911E-019
  -54.2700000000000        -2.114465051376440E-020
  -54.0800000000000         1.466606669351119E-019
  -53.8900000000000         2.780980179342843E-019
  -53.7000000000000         3.346350865854450E-019
  -53.5100000000000         2.988350326963618E-019
  -53.3200000000000         1.795278621230726E-019
  -53.1300000000000         9.390350870223294E-021
  -52.9400000000000        -1.643618962737546E-019
  -52.7500000000000        -2.934576682457488E-019
  -52.5600000000000        -3.423162917788452E-019
  -52.3700000000000        -2.980980363516833E-019
  -52.1800000000000        -1.741969863637498E-019
  -51.9900000000000        -6.213305443326930E-021
  -51.8000000000000         1.584072921592233E-019
  -51.6100000000000         2.740754350520410E-019
  -51.4200000000000         3.101534474890752E-019
  -51.2300000000000         2.596617623261623E-019
  -51.0400000000000         1.410692309387590E-019
  -50.8500000000000        -7.359959857001475E-021
  -50.6600000000000        -1.390174100388477E-019
  -50.4700000000000        -2.128475302683930E-019
  -50.2800000000000        -2.056100829986054E-019
  -50.0900000000000        -1.188996686668324E-019
  -49.9000000000000         2.115590235518645E-020
  -49.7100000000000         1.714601593738107E-019
  -49.5200000000000         2.845960554397043E-019
  -49.3300000000000         3.228822173300708E-019
  -49.1400000000000         2.697236001827990E-019
  -48.9500000000000         1.348966490976801E-019
  -48.7600000000000        -4.784820696821749E-020
  -48.5700000000000        -2.302428585822058E-019
  -48.3800000000000        -3.633031799045538E-019
  -48.1900000000000        -4.114526357615891E-019
  -48.0000000000000        -3.628238005865173E-019
  -47.8100000000000        -2.327094356465970E-019
  -47.6200000000000        -5.914839519323042E-020
  -47.4300000000000         1.080664101476286E-019
  -47.2400000000000         2.217629516457874E-019
  -47.0500000000000         2.509871192558133E-019
  -46.8600000000000         1.898981727912378E-019
  -46.6700000000000         5.939515610896555E-020
  -46.4800000000000        -9.900587115989655E-020
  -46.2900000000000        -2.352899204056209E-019
  -46.1000000000000        -3.055563407542453E-019
  -45.9100000000000        -2.848836549789094E-019
  -45.7200000000000        -1.746972351131608E-019
  -45.5300000000000        -2.491605850475188E-021
  -45.3400000000000         1.860053770577037E-019
  -45.1500000000000         3.399344853958160E-019
  -44.9600000000000         4.178612509277379E-019
  -44.7700000000000         3.995784656495138E-019
  -44.5800000000000         2.917710663755997E-019
  -44.3900000000000         1.259434988822450E-019
  -44.2000000000000        -5.076562351218325E-020
  -44.0100000000000        -1.892203538518147E-019
  -43.8200000000000        -2.524394651842618E-019
  -43.6300000000000        -2.261782462948638E-019
  -43.4400000000000        -1.228818851833023E-019
  -43.2500000000000         2.212979641986305E-020
  -43.0600000000000         1.611288229635260E-019
  -42.8700000000000         2.480445879838764E-019
  -42.6800000000000         2.520384041363958E-019
  -42.4900000000000         1.666571845937792E-019
  -42.3000000000000         1.193148575267074E-020
  -42.1100000000000        -1.711779560182129E-019
  -41.9200000000000        -3.323872728426446E-019
  -41.7300000000000        -4.264217070666101E-019
  -41.5400000000000        -4.259614779686831E-019
  -41.3500000000000        -3.294769241714626E-019
  -41.1600000000000        -1.616872775348833E-019
  -40.9700000000000         3.349510597815974E-020
  -40.7800000000000         2.054865906878759E-019
  -40.5900000000000         3.113748305936159E-019
  -40.4000000000000         3.279146411831308E-019
  -40.2100000000000         2.577198188953270E-019
  -40.0200000000000         1.279144416575958E-019
  -39.8300000000000        -1.828272178345514E-020
  -39.6400000000000        -1.345219992629956E-019
  -39.4500000000000        -1.850251917927025E-019
  -39.2600000000000        -1.550364782822302E-019
  -39.0700000000000        -5.499697054727987E-020
  -38.8800000000000         8.275157087450844E-020
  -38.6900000000000         2.137500966188548E-019
  -38.5000000000000         2.948066556502174E-019
  -38.3100000000000         2.970305709561372E-019
  -38.1200000000000         2.146631332340181E-019
  -37.9300000000000         6.709198107516772E-020
  -37.7400000000000        -1.065498196616663E-019
  -37.5500000000000        -2.586169314144470E-019
  -37.3600000000000        -3.467344664280584E-019
  -37.1700000000000        -3.461215783866855E-019
  -36.9800000000000        -2.568839503044148E-019
  -36.7900000000000        -1.041565778046426E-019
  -36.6000000000000         6.897047938176139E-020
  -36.4100000000000         2.137359248696829E-019
  -36.2200000000000         2.896795094033314E-019
  -36.0300000000000         2.762683173633363E-019
  -35.8400000000000         1.787942620166300E-019
  -35.6500000000000         2.680704379363508E-020
  -35.4600000000000        -1.344807827279762E-019
  -35.2700000000000        -2.573239578292134E-019
  -35.0800000000000        -3.052933565016488E-019
  -34.8900000000000        -2.638259561592427E-019
  -34.7000000000000        -1.444268739277947E-019
  -34.5100000000000         1.868331550868021E-020
  -34.3200000000000         1.785039008917505E-019
  -34.1300000000000         2.889058890421788E-019
  -33.9400000000000         3.180595385371432E-019
  -33.7500000000000         2.577459066298558E-019
  -33.5600000000000         1.258292086677155E-019
  -33.3700000000000        -3.886387721677148E-020
  -33.1800000000000        -1.878012567636936E-019
  -32.9900000000000        -2.768806005349426E-019
  -32.8000000000000        -2.793326187647207E-019
  -32.6100000000000        -1.936349443492286E-019
  -32.4200000000000        -4.412681812714181E-020
  -32.2300000000000         1.258729868803776E-019
  -32.0400000000000         2.664810743290576E-019
  -31.8500000000000         3.356396984885943E-019
  -31.6600000000000         3.113457769194631E-019
  -31.4700000000000         1.981796186725831E-019
  -31.2800000000000         2.621052505393707E-020
  -31.0900000000000        -1.574532813804914E-019
  -30.9000000000000        -3.020637753762335E-019
  -30.7100000000000        -3.677192687896962E-019
  -30.5200000000000        -3.367464304866203E-019
  -30.3300000000000        -2.186904424928130E-019
  -30.1400000000000        -4.749304726242332E-020
  -29.9500000000000         1.282909046753276E-019
  -29.7600000000000         2.593883928471997E-019
  -29.5700000000000         3.098120672220810E-019
  -29.3800000000000         2.669737457427326E-019
  -29.1900000000000         1.450431990054404E-019
  -29.0000000000000        -1.937545557948487E-020
  -28.8100000000000        -1.779808150489851E-019
  -28.6200000000000        -2.848150076549844E-019
  -28.4300000000000        -3.095405655263784E-019
  -28.2400000000000        -2.460994553350962E-019
  -28.0500000000000        -1.142432122264645E-019
  -27.8600000000000         4.648668079403318E-020
  -27.6700000000000         1.885319737048500E-019
  -27.4800000000000         2.703699058400644E-019
  -27.2900000000000         2.687245737317335E-019
  -27.1000000000000         1.853788065837792E-019
  -26.9100000000000         4.661561074091938E-020
  -26.7200000000000        -1.045353284681680E-019
  -26.5300000000000        -2.209825828753914E-019
  -26.3400000000000        -2.654915881341737E-019
  -26.1500000000000        -2.217704739989113E-019
  -25.9600000000000        -9.946918124678448E-020
  -25.7700000000000         6.839049510775810E-020
  -25.5800000000000         2.348185947836261E-019
  -25.3900000000000         3.523548011909075E-019
  -25.2000000000000         3.867287266538879E-019
  -25.0100000000000         3.267189695481198E-019
  -24.8200000000000         1.873710212167288E-019
  -24.6300000000000         5.670356954197763E-021
  -24.4400000000000        -1.700551601860263E-019
  -24.2500000000000        -2.939349709206012E-019
  -24.0600000000000        -3.355790320942539E-019
  -23.8700000000000        -2.885707338925832E-019
  -23.6800000000000        -1.719770675454993E-019
  -23.4900000000000        -2.444396226817166E-020
  -23.3000000000000         1.073911786019171E-019
  -23.1100000000000         1.827662865303098E-019
  -22.9200000000000         1.788628462104603E-019
  -22.7300000000000         9.752997626861665E-020
  -22.5400000000000        -3.529936605536506E-020
  -22.3500000000000        -1.773118542664162E-019
  -22.1600000000000        -2.823716332079841E-019
  -21.9700000000000        -3.142674160326031E-019
  -21.7800000000000        -2.576468251486291E-019
  -21.5900000000000        -1.229425262070841E-019
  -21.4000000000000         5.618505584251593E-020
  -21.2100000000000         2.322093284764597E-019
  -21.0200000000000         3.572446233072464E-019
  -20.8300000000000         3.968086037360538E-019
  -20.6400000000000         3.398397577073375E-019
  -20.4500000000000         2.020336028461559E-019
  -20.2600000000000         2.149791294708428E-020
  -20.0700000000000        -1.520368856143343E-019
  -19.8800000000000        -2.713456886569840E-019
  -19.6900000000000        -3.051083756481040E-019
  -19.5000000000000        -2.467313482442938E-019
  -19.3100000000000        -1.160615495236696E-019
  -19.1200000000000         4.649546819746652E-020
  -18.9300000000000         1.917614972320788E-019
  -18.7400000000000         2.760812359018471E-019
  -18.5500000000000         2.739954880623947E-019
  -18.3600000000000         1.856125411268821E-019
  -18.1700000000000         3.652983408155086E-020
  -17.9800000000000        -1.296679401887488E-019
  -17.7900000000000        -2.641354922116678E-019
  -17.6000000000000        -3.269981555788734E-019
  -17.4100000000000        -2.989462826320029E-019
  -17.2200000000000        -1.868426034801254E-019
  -17.0300000000000        -2.174633618562846E-020
  -16.8400000000000         1.500484759725513E-019
  -16.6500000000000         2.803602284586770E-019
  -16.4600000000000         3.329995628633314E-019
  -16.2700000000000         2.941733028300794E-019
  -16.0800000000000         1.763982629730939E-019
  -15.8900000000000         1.478501373327087E-020
  -15.7000000000000        -1.432282660621697E-019
  -15.5100000000000        -2.516978448760246E-019
  -15.3200000000000        -2.795212611981179E-019
  -15.1300000000000        -2.194274555686789E-019
  -14.9400000000000        -9.001578191640774E-020
  -14.7500000000000         6.971853241461878E-020
  -14.5600000000000         2.117622205231359E-019
  -14.3700000000000         2.930656585082048E-019
  -14.1800000000000         2.880915364292991E-019
  -13.9900000000000         1.963066624552865E-019
  -13.8000000000000         4.244072952351212E-020
  -13.6100000000000        -1.305847676812026E-019
  -13.4200000000000        -2.740304843516048E-019
  -13.2300000000000        -3.474334788998340E-019
  -13.0400000000000        -3.303168897294067E-019
  -12.8500000000000        -2.280938804017403E-019
  -12.6600000000000        -7.044389070697020E-020
  -12.4700000000000         9.735350588219130E-020
  -12.2800000000000         2.275876906099639E-019
  -12.0900000000000         2.839508702278528E-019
  -11.9000000000000         2.520213581319992E-019
  -11.7100000000000         1.433615764688573E-019
  -11.5200000000000        -7.956091299696972E-021
  -11.3300000000000        -1.553952715412156E-019
  -11.1400000000000        -2.536644504565999E-019
  -10.9500000000000        -2.720964540267511E-019
  -10.7600000000000        -2.037765907428071E-019
  -10.5700000000000        -6.772310262801592E-020
  -10.3800000000000         9.654437198146220E-020
  -10.1900000000000         2.404776756282013E-019
  -10.0000000000000         3.206729000371235E-019
  -9.81000000000000         3.116161434486759E-019
  -9.62000000000000         2.132963132228659E-019
  -9.42999999999999         5.146991421168375E-020
  -9.23999999999999        -1.295178428043372E-019
  -9.05000000000000        -2.793106605343150E-019
  -8.86000000000000        -3.559134788821335E-019
  -8.67000000000000        -3.377215196012936E-019
  -8.48000000000000        -2.297247235334340E-019
  -8.28999999999999        -6.208043342042789E-020
  -8.09999999999999         1.185397184344733E-019
  -7.91000000000000         2.623198786223675E-019
  -7.72000000000000         3.305097253106809E-019
  -7.53000000000000         3.063693650855382E-019
  -7.34000000000000         1.997183965113457E-019
  -7.15000000000001         4.382839632970367E-020
  -6.95999999999999        -1.143949741166489E-019
  -6.77000000000000        -2.280839919388249E-019
  -6.58000000000000        -2.639941919839758E-019
  -6.39000000000000        -2.120969408870473E-019
  -6.20000000000000        -8.841696224957887E-020
  -6.01000000000001         6.970951224693011E-020
  -5.81999999999999         2.145897467650894E-019
  -5.63000000000000         3.021614781898542E-019
  -5.44000000000000         3.049316141105207E-019
  -5.25000000000000         2.200859012940112E-019
  -5.06000000000000         7.040584088223003E-020
  -4.87000000000000        -1.022637188426092E-019
  -4.67999999999999        -2.490861468986068E-019
  -4.48999999999999        -3.283388160660081E-019
  -4.30000000000000        -3.174751200881333E-019
  -4.11000000000000        -2.196637437294487E-019
  -3.92000000000000        -6.291708333492615E-020
  -3.73000000000000         1.079488794545368E-019
  -3.53999999999999         2.442111106006936E-019
  -3.34999999999999         3.072634732481367E-019
  -3.16000000000000         2.796980100963317E-019
  -2.97000000000000         1.702250066165420E-019
  -2.78000000000000         1.101442865852135E-020
  -2.59000000000000        -1.517425346797022E-019
  -2.40000000000001        -2.712800518734636E-019
  -2.20999999999999        -3.137898584219328E-019
  -2.02000000000000        -2.681160751302178E-019
  -1.83000000000000        -1.488236076638399E-019
  -1.64000000000000         8.221958832213049E-021
  -1.45000000000000         1.564600315166699E-019
  -1.26000000000001         2.523323781453087E-019
  -1.06999999999999         2.680732994720469E-019
 -0.879999999999995         1.998467343058092E-019
 -0.689999999999998         6.883775254944444E-020
 -0.500000000000000        -8.502669201338795E-020
 -0.310000000000002        -2.148799493090048E-019
 -0.120000000000005        -2.807648956563401E-019
  7.000000000000739E-002   -2.614604986380239E-019
  0.260000000000005        -1.608261313861285E-019
  0.450000000000003        -6.818378334164906E-021
  0.640000000000001         1.565341815026199E-019
  0.829999999999998         2.818798927875659E-019
   1.02000000000000         3.323330872154126E-019
   1.21000000000001         2.923044900162932E-019
   1.40000000000001         1.722052936022056E-019
   1.59000000000000         5.612419942197853E-021
   1.78000000000000        -1.603291785898497E-019
   1.97000000000000        -2.785033014140666E-019
   2.16000000000000        -3.154631955117052E-019
   2.34999999999999        -2.611352293229149E-019
   2.54000000000001        -1.317556027653719E-019
   2.73000000000000         3.481240473483740E-020
   2.92000000000000         1.900195602614900E-019
   3.11000000000000         2.886637569267607E-019
   3.30000000000000         3.019647631747562E-019
   3.48999999999999         2.259102613484951E-019
   3.68000000000001         8.245847122794781E-020
   3.87000000000000        -8.676990975101498E-020
   4.06000000000000        -2.325125351763321E-019
   4.25000000000000        -3.121355304408899E-019
   4.44000000000000        -3.020164911417595E-019
   4.63000000000000        -2.044373960995381E-019
   4.82000000000001        -4.697810074875287E-020
   5.01000000000001         1.254138824381968E-019
   5.20000000000000         2.633726640647709E-019
   5.39000000000000         3.273315574685706E-019
   5.58000000000000         2.989089144165994E-019
   5.77000000000000         1.861924808815752E-019
   5.96000000000001         2.140880275095248E-020
   6.15000000000001        -1.483535836852173E-019
   6.34000000000000        -2.747010869308755E-019
   6.53000000000000        -3.218622992236350E-019