  -105.000000000000        -7.960458200220387E-019
  -104.810000000000        -1.846021946021563E-019
  -104.620000000000         4.599894990243971E-019
  -104.430000000000         5.502705620595290E-019
  -104.240000000000         3.467906111413292E-020
  -104.050000000000        -5.592308971148382E-019
  -103.860000000000        -6.333875287547960E-019
  -103.670000000000        -9.326645880236515E-020
  -103.480000000000         5.603120724316819E-019
  -103.290000000000         7.093809125363345E-019
  -103.100000000000         2.104944786731548E-019
  -102.910000000000        -4.660355631231705E-019
  -102.720000000000        -6.831261417652643E-019
  -102.530000000000        -2.430383185126533E-019
  -102.340000000000         4.261516974788210E-019
  -102.150000000000         6.807251361803388E-019
  -101.960000000000         2.760295920265383E-019
  -101.770000000000        -4.003546748349508E-019
  -101.580000000000        -6.991663274854716E-019
  -101.390000000000        -3.304142012594612E-019
  -101.200000000000         3.583843779203513E-019
  -101.010000000000         7.134142670731681E-019
  -100.820000000000         3.991034776178881E-019
  -100.630000000000        -2.811769067740150E-019
  -100.440000000000        -6.746983166636505E-019
  -100.250000000000        -4.025706612021509E-019
  -100.060000000000         2.779408608624491E-019
  -99.8700000000000         7.176362108994181E-019
  -99.6800000000000         4.941613386312710E-019
  -99.4900000000000        -1.842620982363637E-019
  -99.3000000000000        -6.760978312703955E-019
  -99.1100000000000        -5.173367109583240E-019
  -98.9200000000000         1.371981567477856E-019
  -98.7300000000000         6.630553918701530E-019
  -98.5400000000000         5.622118965747349E-019
  -98.3500000000000        -6.339212593300632E-020
  -98.1600000000000        -6.116813854535613E-019
  -97.9700000000000        -5.572855713587670E-019
  -97.7800000000000         4.550793287243842E-020
  -97.5900000000000         6.143997271846896E-019
  -97.4000000000000         5.966640674874902E-019
  -97.2100000000000        -3.696200807540187E-022
  -97.0200000000000        -6.137545474011338E-019
  -96.8300000000000        -6.602460975028333E-019
  -96.6400000000000        -9.116623852473536E-020
  -96.4500000000000         5.620309300161654E-019
  -96.2600000000000         6.939328905345248E-019
  -96.0700000000000         2.002001931636194E-019
  -95.8800000000000        -4.266897076019287E-019
  -95.6900000000000        -5.722634146867115E-019
  -95.5000000000000        -9.153734320320921E-020
  -95.3100000000000         5.493146057868955E-019
  -95.1200000000000         7.176643559886955E-019
  -94.9300000000000         2.207876126104878E-019
  -94.7400000000000        -5.053942256105954E-019
  -94.5500000000000        -8.057493439776814E-019
  -94.3600000000000        -4.243556444021071E-019
  -94.1700000000000         2.560975788006498E-019
  -93.9800000000000         5.816791165822876E-019
  -93.7900000000000         2.513624324417447E-019
  -93.6000000000000        -3.975816435678930E-019
  -93.4100000000000        -7.153386754984307E-019
  -93.2200000000000        -3.643279741070789E-019
  -93.0300000000000         3.547613448481726E-019
  -92.8400000000000         7.868753101618751E-019
  -92.6500000000000         5.449414813538964E-019
  -92.4600000000000        -1.230001152117809E-019
  -92.2700000000000        -5.719272322006408E-019
  -92.0800000000000        -3.763147626313975E-019
  -91.8900000000000         2.635893648446643E-019
  -91.7000000000000         7.144319134030771E-019
  -91.5100000000000         5.173886921502300E-019
  -91.3200000000000        -1.706285975810489E-019
  -91.1300000000000        -7.239374300428492E-019
  -90.9400000000000        -6.422968433014198E-019
  -90.7500000000000        -2.517479588298795E-020
  -90.5600000000000         5.257034527525942E-019
  -90.3700000000000         4.821899782205450E-019
  -90.1800000000000        -1.055841636656280E-019
  -89.9900000000000        -6.580805694860107E-019
  -89.8000000000000        -6.228144333524203E-019
  -89.6100000000000        -6.391018321117318E-021
  -89.4200000000000         6.271505388427373E-019
  -89.2300000000000         6.907209918062936E-019
  -89.0400000000000         1.319297949411694E-019
  -88.8500000000000        -5.167519506729945E-019
  -88.6600000000000        -6.430132908363941E-019
  -88.4700000000000        -1.346756628482670E-019
  -88.2800000000000         5.170657876563802E-019
  -88.0900000000000         6.890000901709454E-019
  -87.9000000000000         2.213510256255496E-019
  -87.7100000000000        -4.317711927174361E-019
  -87.5200000000000        -6.398093076315359E-019
  -87.3300000000000        -2.015425903914053E-019
  -87.1400000000000         4.602850328340818E-019
  -86.9500000000000         7.015624210605956E-019
  -86.7600000000000         2.728768816401906E-019
  -86.5700000000000        -4.388085480811182E-019
  -86.3800000000000        -7.748228519536074E-019
  -86.1900000000000        -4.291572502293088E-019
  -86.0000000000000         2.632835865849542E-019
  -85.8100000000000         6.494403494227038E-019
  -85.6200000000000         3.820962773494371E-019
  -85.4300000000000        -2.518794612406713E-019
  -85.2400000000000        -6.116383148748007E-019
  -85.0500000000000        -3.217346422055607E-019
  -84.8600000000000         3.619186049407258E-019
  -84.6700000000000         7.907473041691211E-019
  -84.4800000000000         5.410694382358694E-019
  -84.2900000000000        -1.786861181900455E-019
  -84.1000000000000        -7.213189459033619E-019
  -83.9100000000000        -6.116051449762919E-019
  -83.7200000000000         7.458623835732184E-021
  -83.5300000000000         5.170460518606577E-019
  -83.3400000000000         4.160975656972726E-019
  -83.1500000000000        -1.998761645909894E-019
  -82.9600000000000        -7.302677981354142E-019
  -82.7700000000000        -6.435696484592867E-019
  -82.5800000000000         1.329116166394921E-020
  -82.3900000000000         6.569239626714485E-019
  -82.2000000000000         7.209760241960222E-019
  -82.0100000000000         1.922306864792925E-019
  -81.8200000000000        -3.825954613054641E-019
  -81.6300000000000        -4.247646615319925E-019
  -81.4400000000000         1.187494338554544E-019
  -81.2500000000000         7.204914252540309E-019
  -81.0600000000000         7.741787358937825E-019
  -80.8700000000000         1.755923642435820E-019
  -80.6800000000000        -5.717229197192443E-019
  -80.4900000000000        -8.282877905165029E-019
  -80.3000000000000        -4.186296310122520E-019
  -80.1100000000000         2.125783570307850E-019
  -79.9200000000000         4.348824478350808E-019
  -79.7300000000000         3.918664958068693E-020
  -79.5400000000000        -5.633589666496984E-019
  -79.3500000000000        -7.402803587661534E-019
  -79.1600000000000        -2.527150132895477E-019
  -78.9700000000000         5.028674141628955E-019
  -78.7800000000000         8.605642749292051E-019
  -78.5900000000000         5.123282177551589E-019
  -78.4000000000000        -2.010541197623588E-019
  -78.2100000000000        -6.127763445594789E-019
  -78.0200000000000        -3.587486486707788E-019
  -77.8300000000000         2.854174245985401E-019
  -77.6400000000000         6.765592484989578E-019
  -77.4500000000000         4.225758993402777E-019
  -77.2600000000000        -2.431482954538291E-019
  -77.0700000000000        -6.878979334429346E-019
  -76.8800000000000        -4.889468285729133E-019
  -76.6900000000000         1.582344211871750E-019
  -76.5000000000000         6.250575030664883E-019
  -76.3100000000000         4.518735562513350E-019
  -76.1200000000000        -2.089346771300438E-019
  -75.9300000000000        -7.330187115887297E-019
  -75.7400000000000        -6.151444164896204E-019
  -75.5500000000000         5.073499679689192E-020
  -75.3600000000000         6.596548538804025E-019
  -75.1700000000000         6.689289404709367E-019
  -74.9800000000000         1.103675449391530E-019
  -74.7900000000000        -4.474850985483407E-019
  -74.6000000000000        -4.500823247731144E-019
  -74.4100000000000         1.078569316724579E-019
  -74.2200000000000         6.757378074617973E-019
  -74.0300000000000         6.757139424630611E-019
  -73.8400000000000         6.105804941186066E-020
  -73.6500000000000        -6.304773302427595E-019
  -73.4600000000000        -7.822630045769421E-019
  -73.2700000000000        -2.833435613463411E-019
  -73.0800000000000         3.660593870672957E-019
  -72.8900000000000         5.306220583499783E-019
  -72.7000000000000         4.471345148199249E-020
  -72.5100000000000        -6.299093180794509E-019
  -72.3200000000000        -8.423118062732563E-019
  -72.1300000000000        -3.683762762720528E-019
  -71.9400000000000         3.801040987472769E-019
  -71.7500000000000         7.489902014924050E-019
  -71.5600000000000         4.608627858574761E-019
  -71.3700000000000        -1.307626391795625E-019
  -71.1800000000000        -3.930204320335113E-019
  -70.9900000000000        -3.223773570154165E-020
  -70.8000000000000         6.149933823301404E-019
  -70.6100000000000         8.986186163430149E-019
  -70.4200000000000         4.782212339744791E-019
  -70.2300000000000        -3.419946337706487E-019
  -70.0400000000000        -8.869179085883043E-019
  -69.8500000000000        -7.352761966799528E-019
  -69.6600000000000        -1.040232929714251E-019
  -69.4700000000000         3.710334456852394E-019
  -69.2800000000000         2.469441113762036E-019
  -69.0900000000000        -3.077727209639452E-019
  -68.9000000000000        -6.868114427810778E-019
  -68.7100000000000        -4.424704814136340E-019
  -68.5200000000000         2.698579798721759E-019
  -68.3300000000000         8.274980823440114E-019
  -68.1400000000000         7.293015301197251E-019
  -67.9500000000000         7.581536568650739E-020
  -67.7600000000000        -5.199106864564581E-019
  -67.5700000000000        -5.097115594648758E-019
  -67.3800000000000         7.263584149453195E-020
  -67.1900000000000         6.475020398452248E-019
  -67.0000000000000         6.435727740626073E-019
  -66.8100000000000         4.095436358058822E-020
  -66.6200000000000        -6.129995790963122E-019
  -66.4300000000000        -7.267384722706894E-019
  -66.2400000000000        -2.255447443772632E-019
  -66.0500000000000         3.840629124791926E-019
  -65.8600000000000         5.060710924612659E-019
  -65.6700000000000         3.079576836154680E-020
  -65.4800000000000        -5.581012535449326E-019
  -65.2900000000000        -6.493290724493828E-019
  -65.1000000000000        -9.683729238535772E-020
  -64.9100000000000         6.284999833456855E-019
  -64.7200000000000         8.758056140865401E-019
  -64.5300000000000         4.261148244557555E-019
  -64.3400000000000        -3.014689124385595E-019
  -64.1500000000000        -6.457464873400485E-019
  -63.9600000000000        -3.262041698456935E-019
  -63.7700000000000         2.991933128055756E-019
  -63.5800000000000         5.857757691213975E-019
  -63.3900000000000         2.258358867947518E-019
  -63.2000000000000        -4.534779424388548E-019
  -63.0100000000000        -8.033064687072066E-019
  -62.8200000000000        -4.774405196043608E-019
  -62.6300000000000         2.298525578401250E-019
  -62.4400000000000         6.577731623930833E-019
  -62.2500000000000         4.066574194924990E-019
  -62.0600000000000        -2.782042645960785E-019
  -61.8700000000000        -7.347542821118316E-019
  -61.6800000000000        -5.096287027552962E-019
  -61.4900000000000         2.136478060353517E-019
  -61.3000000000000         7.899004823602335E-019
  -61.1100000000000         7.214484599316093E-019
  -60.9200000000000         1.206052099407404E-019
  -60.7300000000000        -4.112024740992196E-019
  -60.5400000000000        -3.670592715445746E-019
  -60.3500000000000         1.791101196152642E-019
  -60.1600000000000         6.483242501098372E-019
  -59.9700000000000         5.205176062936380E-019
  -59.7800000000000        -1.553311314448279E-019
  -59.5900000000000        -7.956718366018703E-019
  -59.4000000000000        -8.304582977636760E-019
  -59.2100000000000        -2.425824049245297E-019
  -59.0200000000000         4.150300198605573E-019
  -58.8300000000000         5.410729861109174E-019
  -58.6400000000000         5.112582919962937E-020
  -58.4500000000000        -5.496845348187064E-019
  -58.2600000000000        -6.544094115553085E-019
  -58.0700000000000        -1.361862438642238E-019
  -57.8800000000000         5.318086465824918E-019
  -57.6900000000000         7.320820750364077E-019
  -57.5000000000000         2.963076175968501E-019
  -57.3100000000000        -3.328625443345741E-019
  -57.1200000000000        -5.273878117402791E-019
  -56.9300000000000        -8.035170310709497E-020
  -56.7400000000000         5.876128214927753E-019
  -56.5500000000000         8.230993480269289E-019
  -56.3600000000000         3.626012237677119E-019
  -56.1700000000000        -4.110502026498340E-019
  -55.9800000000000        -8.251070288037039E-019
  -55.7900000000000        -5.472902462887346E-019
  -55.6000000000000         1.100978827800385E-019
  -55.4100000000000         4.992062238430440E-019
  -55.2200000000000         2.599926026079364E-019
  -55.0300000000000        -3.386955099539872E-019
  -54.8400000000000        -6.651378440989163E-019
  -54.6500000000000        -3.417382949273965E-019
  -54.4600000000000         3.797468734260616E-019
  -54.2700000000000         8.473833407384039E-019
  -54.0800000000000         6.264172464897285E-019
  -53.8900000000000        -8.455480126437768E-020
  -53.7000000000000        -6.369789071315609E-019
  -53.5100000000000        -5.422280773733687E-019
  -53.3200000000000         7.057705392825699E-020
  -53.1300000000000         5.826487687928957E-019
  -52.9400000000000         4.775787926150128E-019
  -52.7500000000000        -1.650176626992039E-019
  -52.5600000000000        -7.439586764570804E-019
  -52.3700000000000        -7.085817517051954E-019
  -52.1800000000000        -8.333042967135194E-020
  -51.9900000000000         5.551625325348555E-019
  -51.8000000000000         6.259772787424823E-019
  -51.6100000000000         9.426768452866438E-020
  -51.4200000000000        -4.996489024007559E-019
  -51.2300000000000        -5.595121431916706E-019
  -51.0400000000000        -5.714234494338321E-021
  -50.8500000000000         6.452481985875484E-019
  -50.6600000000000         7.714222185285195E-019
  -50.4700000000000         2.382800374065245E-019
  -50.2800000000000        -4.721904065919202E-019
  -50.0900000000000        -7.181148145581774E-019
  -49.9000000000000        -3.024511434025718E-019
  -49.7100000000000         3.502217944494796E-019
  -49.5200000000000         6.090000934432870E-019
  -49.3300000000000         2.428686932203786E-019
  -49.1400000000000        -3.631975350000311E-019
  -48.9500000000000        -5.877761152202671E-019
  -48.7600000000000        -1.816136630094606E-019
  -48.5700000000000         4.819734537082402E-019
  -48.3800000000000         7.582961009294323E-019
  -48.1900000000000         3.490595701960230E-019
  -48.0000000000000        -4.048663380871877E-019
  -47.8100000000000        -8.371241280263837E-019
  -47.6200000000000        -5.794601837212073E-019
  -47.4300000000000         9.637971489212693E-020
  -47.2400000000000         5.430134150591930E-019
  -47.0500000000000         3.563922053676910E-019
  -46.8600000000000        -2.408362832392456E-019
  -46.6700000000000        -6.181086079439191E-019
  -46.4800000000000        -3.491027248033077E-019
  -46.2900000000000         3.685396650846274E-019
  -46.1000000000000         8.889976445042165E-019
  -45.9100000000000         7.250902871349105E-019
  -45.7200000000000         1.054916450302110E-020
  -45.5300000000000        -6.222403386241913E-019
  -45.3400000000000        -6.348651038881657E-019
  -45.1500000000000        -8.388092739947876E-020
  -44.9600000000000         4.458402835136364E-019
  -44.7700000000000         4.100150415520306E-019
  -44.5800000000000        -1.694300492122740E-019
  -44.3900000000000        -7.249915557527140E-019
  -44.2000000000000        -6.893792358061861E-019
  -44.0100000000000        -4.340208513230851E-020
  -43.8200000000000         6.579430449400292E-019
  -43.6300000000000         8.064974355039810E-019
  -43.4400000000000         3.122860634171046E-019
  -43.2500000000000        -3.197675474565190E-019
  -43.0600000000000        -4.797139025526470E-019
  -42.8700000000000        -3.846128124776976E-020
  -42.6800000000000         5.320405280272976E-019
  -42.4900000000000         6.183870778236976E-019
  -42.3000000000000         6.383368273209086E-020
  -42.1100000000000        -6.680444935742773E-019
  -41.9200000000000        -9.226862034247303E-019
  -41.7300000000000        -4.708807082744792E-019
  -41.5400000000000         2.731204183027711E-019
  -41.3500000000000         6.403067901190703E-019
  -41.1600000000000         3.344453258392385E-019
  -40.9700000000000        -2.971215328754743E-019
  -40.7800000000000        -6.048781891301746E-019
  -40.5900000000000        -2.630131913087171E-019
  -40.4000000000000         4.172269628276270E-019
  -40.2100000000000         7.843826905546630E-019
  -40.0200000000000         4.705486449722370E-019
  -39.8300000000000        -2.523319298694969E-019
  -39.6400000000000        -7.243611033026015E-019
  -39.4500000000000        -5.193394993851023E-019
  -39.2600000000000         1.558592798674217E-019
  -39.0700000000000         6.641382345553221E-019
  -38.8800000000000         5.468593692694450E-019
  -38.6900000000000        -4.502323011622452E-020
  -38.5000000000000        -5.076611265831112E-019
  -38.3100000000000        -3.746947036683336E-019
  -38.1200000000000         2.272808741064936E-019
  -37.9300000000000         6.965507289147797E-019
  -37.7400000000000         5.357635843856266E-019
  -37.5500000000000        -1.630242719388748E-019
  -37.3600000000000        -7.953624017648447E-019
  -37.1700000000000        -8.121827150862719E-019
  -36.9800000000000        -2.356450615963219E-019
  -36.7900000000000         3.697071071103100E-019
  -36.6000000000000         4.415410157610237E-019
  -36.4100000000000        -4.123355516370137E-020
  -36.2200000000000        -5.406627230155194E-019
  -36.0300000000000        -4.820348270919155E-019
  -35.8400000000000         1.811675560360028E-019
  -35.6500000000000         9.014841928161021E-019
  -35.4600000000000         1.039644877264081E-018
  -35.2700000000000         4.617110162513977E-019
  -35.0800000000000        -3.343505832467966E-019
  -34.8900000000000        -6.825080982274106E-019
  -34.7000000000000        -3.640752947718228E-019
  -34.5100000000000         2.056350931578022E-019
  -34.3200000000000         3.920788634853720E-019
  -34.1300000000000        -3.995467978462001E-020
  -33.9400000000000        -6.947786222017747E-019
  -33.7500000000000        -9.230326939326922E-019
  -33.5600000000000        -4.473529572169740E-019
  -33.3700000000000         3.624601224301911E-019
  -33.1800000000000         8.287168070003851E-019
  -32.9900000000000         5.963832279510494E-019
  -32.8000000000000        -4.481317848898217E-020
  -32.6100000000000        -4.502497539128815E-019
  -32.4200000000000        -2.418662056673087E-019
  -32.2300000000000         3.342012524182261E-019
  -32.0400000000000         6.551527305849908E-019
  -31.8500000000000         3.342125417150133E-019
  -31.6600000000000        -3.929411982676964E-019
  -31.4700000000000        -8.817567474929391E-019
  -31.2800000000000        -6.888816917752570E-019
  -31.0900000000000         5.405340418400905E-021
  -30.9000000000000         5.666478888357980E-019
  -30.7100000000000         5.065945287235866E-019
  -30.5200000000000        -5.719811175358645E-020
  -30.3300000000000        -5.207271239194069E-019
  -30.1400000000000        -3.786783106893179E-019
  -29.9500000000000         2.832210329292911E-019
  -29.7600000000000         8.603720039362769E-019
  -29.5700000000000         7.995657424653793E-019
  -29.3800000000000         1.256317963957037E-019
  -29.1900000000000        -5.759320705851741E-019
  -29.0000000000000        -7.042826423536143E-019
  -28.8100000000000        -2.006627999631778E-019
  -28.6200000000000         4.084853009805576E-019
  -28.4300000000000         5.210747168359850E-019
  -28.2400000000000         3.483092340889530E-020
  -28.0500000000000        -5.604898281101182E-019
  -27.8600000000000        -6.606908891920377E-019
  -27.6700000000000        -1.350774712006610E-019
  -27.4800000000000         5.399621209244757E-019
  -27.2900000000000         7.305590666706277E-019
  -27.1000000000000         2.488948888034996E-019
  -26.9100000000000        -4.658120207916068E-019
  -26.7200000000000        -7.623739177893517E-019
  -26.5300000000000        -3.929779646770025E-019
  -26.3400000000000         2.591748125866966E-019
  -26.1500000000000         5.567210791053626E-019
  -25.9600000000000         2.257921083028863E-019
  -25.7700000000000        -3.801885087547194E-019
  -25.5800000000000        -6.241101894471018E-019
  -25.3900000000000        -2.060790074471744E-019
  -25.2000000000000         5.345500660600033E-019
  -25.0100000000000         9.283870500641275E-019
  -24.8200000000000         6.059210536782446E-019
  -24.6300000000000        -1.502378374343588E-019
  -24.4400000000000        -6.678349780111915E-019
  -24.2500000000000        -5.149694097397718E-019
  -24.0600000000000         9.994307973570477E-020
  -23.8700000000000         5.366079595796363E-019
  -23.6800000000000         3.391240121314096E-019
  -23.4900000000000        -3.264708390499948E-019
  -23.3000000000000        -8.281501003014736E-019
  -23.1100000000000        -6.684989185359999E-019
  -22.9200000000000         4.041610789908866E-020
  -22.7300000000000         6.791737085676064E-019
  -22.5400000000000         7.030930536248428E-019
  -22.3500000000000         1.501522936896502E-019
  -22.1600000000000        -4.078399589918442E-019
  -21.9700000000000        -4.205536094698173E-019
  -21.7800000000000         1.124515703061597E-019
  -21.5900000000000         6.451331008541473E-019
  -21.4000000000000         6.150143693598433E-019
  -21.2100000000000        -8.913892109962155E-021
  -21.0200000000000        -6.866802038887434E-019
  -20.8300000000000        -8.162800710474751E-019
  -20.6400000000000        -3.045514617332585E-019
  -20.4500000000000         3.476102855436058E-019
  -20.2600000000000         5.273691111176607E-019
  -20.0700000000000         9.612929517116560E-020
  -19.8800000000000        -4.825071503698792E-019
  -19.6900000000000        -5.949814087931188E-019
  -19.5000000000000        -7.644175136172676E-020
  -19.3100000000000         6.187185810946500E-019
  -19.1200000000000         8.414057943431892E-019
  -18.9300000000000         3.657118305061665E-019
  -18.7400000000000        -3.892533677534678E-019
  -18.5500000000000        -7.477517841898349E-019
  -18.3600000000000        -4.088582587543431E-019
  -18.1700000000000         2.774984254770985E-019
  -17.9800000000000         6.495111167604911E-019
  -17.7900000000000         3.634435888729196E-019
  -17.6000000000000        -2.834293813334476E-019
  -17.4100000000000        -6.420239885277226E-019
  -17.2200000000000        -3.365541195794041E-019
  -17.0300000000000         3.703576125928591E-019
  -16.8400000000000         8.215594344392974E-019
  -16.6500000000000         5.865333591254175E-019
  -16.4600000000000        -1.319631894717096E-019
  -16.2700000000000        -6.919580140299705E-019
  -16.0800000000000        -6.197483025382723E-019
  -15.8900000000000        -5.104386846944620E-020
  -15.7000000000000         4.129505029915446E-019
  -15.5100000000000         2.938802243649579E-019
  -15.3200000000000        -2.966525836975478E-019
  -15.1300000000000        -7.613412811197277E-019
  -14.9400000000000        -5.944217618160881E-019
  -14.7500000000000         1.227396681321132E-019
  -14.5600000000000         7.857769518869191E-019
  -14.3700000000000         8.323954586470487E-019
  -14.1800000000000         2.694580647108400E-019
  -13.9900000000000        -3.404357111914593E-019
  -13.8000000000000        -4.195111180403032E-019
  -13.6100000000000         7.352430972646845E-020
  -13.4200000000000         6.078553461925510E-019
  -13.2300000000000         5.957661166175497E-019
  -13.0400000000000        -3.390120012432386E-020
  -12.8500000000000        -7.538029152595853E-019
  -12.6600000000000        -9.282747418892639E-019
  -12.4700000000000        -4.103782874863147E-019
  -12.2800000000000         3.206302629277880E-019
  -12.0900000000000         6.109124966372542E-019
  -11.9000000000000         2.443579146845166E-019
  -11.7100000000000        -3.638988056768720E-019
  -11.5200000000000        -5.743005643971612E-019
  -11.3300000000000        -1.408694328471245E-019
  -11.1400000000000         5.496757820258884E-019
  -10.9500000000000         8.454716176747502E-019
  -10.7600000000000         4.517103538636985E-019
  -10.5700000000000        -2.867200636192503E-019
  -10.3800000000000        -7.108552614475243E-019
  -10.1900000000000        -4.700865858633970E-019
  -10.0000000000000         1.521135965911807E-019
  -9.81000000000000         5.192098822949688E-019
  -9.62000000000000         2.593969779710686E-019
  -9.42999999999999        -3.733805640548008E-019
  -9.23999999999999        -7.434557430270804E-019
  -9.05000000000000        -4.491487688669828E-019
  -8.86000000000000         2.816853280452821E-019
  -8.67000000000000         7.978005183458249E-019
  -8.48000000000000         6.378366212877329E-019
  -8.28999999999999        -3.333272787254002E-020
  -8.09999999999999        -5.814483187132362E-019
  -7.91000000000000        -5.044930050079286E-019
  -7.72000000000000         9.377503208643894E-020
  -7.53000000000000         6.098070091459727E-019
  -7.34000000000000         5.234947405206711E-019
  -7.15000000000001        -1.000351394515985E-019
  -6.95999999999999        -6.699961185595854E-019
  -6.77000000000000        -6.337929759775103E-019
  -6.58000000000000        -7.598459124973534E-021
  -6.39000000000000         6.317190730002078E-019
  -6.20000000000000         6.872716712865655E-019
  -6.01000000000001         1.038956114737519E-019
  -5.81999999999999        -5.813760658630676E-019
  -5.63000000000000        -7.472299518293035E-019
  -5.44000000000000        -2.706681557347523E-019
  -5.25000000000000         3.687491751583117E-019
  -5.06000000000000         5.576941161508409E-019
  -4.87000000000000         1.393244880603502E-019
  -4.67999999999999        -4.395061343582091E-019
  -4.48999999999999        -5.635249082890713E-019
  -4.30000000000000        -4.931448591616266E-020
  -4.11000000000000         6.659830605285376E-019
  -3.92000000000000         9.320824654523169E-019
  -3.73000000000000         5.021088696772603E-019
  -3.53999999999999        -2.317813284163247E-019
  -3.34999999999999        -6.103637795269247E-019
  -3.16000000000000        -3.317208512514322E-019
  -2.97000000000000         2.682111904389919E-019
  -2.78000000000000         5.457297972721650E-019
  -2.59000000000000         1.736784015958476E-019
  -2.40000000000001        -5.373861809736522E-019
  -2.20999999999999        -9.298110490965856E-019
  -2.02000000000000        -6.252285832426810E-019
  -1.83000000000000         1.119703992376381E-019
  -1.64000000000000         6.224674525113278E-019
  -1.45000000000000         4.749445268483311E-019
  -1.26000000000001        -1.299785493451228E-019
  -1.06999999999999        -5.585527738284303E-019
 -0.879999999999995        -3.546209817394134E-019
 -0.689999999999998         3.196502780966649E-019
 -0.500000000000000         8.329969996191684E-019
 -0.310000000000002         6.834865226297248E-019
 -0.120000000000005        -2.260798016119400E-020
  7.000000000000739E-002   -6.673494751771633E-019
  0.260000000000005        -7.008437936123006E-019
  0.450000000000003        -1.520957823697876E-019
  0.640000000000001         4.129047947759969E-019
  0.829999999999998         4.412892049673245E-019
   1.02000000000000        -7.603914629375485E-020
   1.21000000000001        -6.001002299351703E-019
   1.40000000000001        -5.694694692535399E-019
   1.59000000000000         4.822761771517668E-020
   1.78000000000000         7.104450803182791E-019
   1.97000000000000         8.082018338571595E-019
   2.16000000000000         2.450887773243021E-019
   2.34999999999999        -4.669332849356788E-019
   2.54000000000001        -6.877339608685325E-019
   2.73000000000000        -2.487362757672387E-019
   2.92000000000000         3.972439660245013E-019
   3.11000000000000         6.163132297156030E-019
   3.30000000000000         2.021348164568478E-019
   3.48999999999999        -4.291883198475557E-019
   3.68000000000001        -6.441244716919343E-019
   3.87000000000000        -2.074283746628446E-019
   4.06000000000000         4.833283417935287E-019
   4.25000000000000         7.709085157955849E-019
   4.44000000000000         3.639113311308413E-019
   4.63000000000000        -3.815706661489999E-019
   4.82000000000001        -7.929334320207285E-019
   5.01000000000001        -5.115669645789510E-019
   5.20000000000000         1.745350878433165E-019
   5.39000000000000         6.105704615924758E-019
   5.58000000000000         3.990725062077228E-019
   5.77000000000000        -2.270357483324859E-019
   5.96000000000001        -6.363118877693631E-019
   6.15000000000001        -4.104046175434596E-019
   6.34000000000000         2.511760277637478E-019
   6.53000000000000         7.199457357254297E-019