  -105.000000000000         0.000000000000000E+000
  -104.810000000000         1.928296878170341E-010
  -104.620000000000         4.267283385543481E-010
  -104.430000000000         6.912151596950502E-010
  -104.240000000000         1.133324708832771E-009
  -104.050000000000         1.799322122611125E-009
  -103.860000000000         2.493990924701000E-009
  -103.670000000000         3.085854795279612E-009
  -103.480000000000         3.498333962632705E-009
  -103.290000000000         4.050934037491568E-009
  -103.100000000000         4.610285296329364E-009
  -102.910000000000         5.137891739547261E-009
  -102.720000000000         5.621682396452386E-009
  -102.530000000000         6.088456790736334E-009
  -102.340000000000         6.621327379242455E-009
  -102.150000000000         7.093996806385877E-009
  -101.960000000000         7.614123295362567E-009
  -101.770000000000         7.646997888186514E-009
  -101.580000000000         7.804768774296918E-009
  -101.390000000000         7.836617200284472E-009
  -101.200000000000         7.925321581146246E-009
  -101.010000000000         7.929539786535200E-009
  -100.820000000000         7.918789090734681E-009
  -100.630000000000         8.084111597236460E-009
  -100.440000000000         8.217017145653989E-009
  -100.250000000000         8.216277355479515E-009
  -100.060000000000         8.040271961328565E-009
  -99.8700000000000         7.748030446773236E-009
  -99.6800000000000         7.307013473614833E-009
  -99.4900000000000         6.714138641267036E-009
  -99.3000000000000         6.146700674169810E-009
  -99.1100000000000         5.699390538758050E-009
  -98.9200000000000         5.289412020390480E-009
  -98.7300000000000         4.955775272569271E-009
  -98.5400000000000         4.775117686550862E-009
  -98.3500000000000         4.144688349498307E-009
  -98.1600000000000         3.645761185618021E-009
  -97.9700000000000         3.454115755618915E-009
  -97.7800000000000         3.259884118400777E-009
  -97.5900000000000         3.107170933576787E-009
  -97.4000000000000         3.042828640471187E-009
  -97.2100000000000         3.056976999732738E-009
  -97.0200000000000         3.087293723244958E-009
  -96.8300000000000         3.187308282474580E-009
  -96.6400000000000         3.069853140388086E-009
  -96.4500000000000         2.965534634896320E-009
  -96.2600000000000         3.175640461102456E-009
  -96.0700000000000         3.741759052323599E-009
  -95.8800000000000         4.261086653517753E-009
  -95.6900000000000         4.709134909710643E-009
  -95.5000000000000         5.060324774166155E-009
  -95.3100000000000         5.465995222581903E-009
  -95.1200000000000         5.656911079305655E-009
  -94.9300000000000         5.921829703868659E-009
  -94.7400000000000         6.115405502834479E-009
  -94.5500000000000         6.406367198439634E-009
  -94.3600000000000         7.017330894921391E-009
  -94.1700000000000         7.834386272170974E-009
  -93.9800000000000         7.814181788594837E-009
  -93.7900000000000         8.292630039272069E-009
  -93.6000000000000         8.779702515206363E-009
  -93.4100000000000         9.003884337302784E-009
  -93.2200000000000         9.086039998914616E-009
  -93.0300000000000         9.028825207486307E-009
  -92.8400000000000         8.922799635207757E-009
  -92.6500000000000         8.914217857888372E-009
  -92.4600000000000         8.999938007752619E-009
  -92.2700000000000         8.922741114152506E-009
  -92.0800000000000         8.536485602589567E-009
  -91.8900000000000         7.827618053724997E-009
  -91.7000000000000         7.414526321273243E-009
  -91.5100000000000         7.064168387791810E-009
  -91.3200000000000         6.832183387099309E-009
  -91.1300000000000         6.654342878204154E-009
  -90.9400000000000         7.039488109741639E-009
  -90.7500000000000         7.665595774517293E-009
  -90.5600000000000         8.269132638902164E-009
  -90.3700000000000         8.653875115127485E-009
  -90.1800000000000         8.799763549165020E-009
  -89.9900000000000         9.028325304029046E-009
  -89.8000000000000         9.618834501312403E-009
  -89.6100000000000         9.844779216687986E-009
  -89.4200000000000         1.062407406464380E-008
  -89.2300000000000         1.158951449705642E-008
  -89.0400000000000         1.273309042399046E-008
  -88.8500000000000         1.272200682758256E-008
  -88.6600000000000         1.291996161754810E-008
  -88.4700000000000         1.314738962490133E-008
  -88.2800000000000         1.337685226764339E-008
  -88.0900000000000         1.382378916944313E-008
  -87.9000000000000         1.437420652233383E-008
  -87.7100000000000         1.480523300638731E-008
  -87.5200000000000         1.497522608740581E-008
  -87.3300000000000         1.504276540317928E-008
  -87.1400000000000         1.507363274207735E-008
  -86.9500000000000         1.484409948982215E-008
  -86.7600000000000         1.444567072611971E-008
  -86.5700000000000         1.401784502678421E-008
  -86.3800000000000         1.363046175176351E-008
  -86.1900000000000         1.328514353885103E-008
  -86.0000000000000         1.299479738598727E-008
  -85.8100000000000         1.288172148360529E-008
  -85.6200000000000         1.310783094833960E-008
  -85.4300000000000         1.372231877373056E-008
  -85.2400000000000         1.459798100126029E-008
  -85.0500000000000         1.583240292164458E-008
  -84.8600000000000         1.739917262161649E-008
  -84.6700000000000         1.906395119748243E-008
  -84.4800000000000         2.085989162467194E-008
  -84.2900000000000         2.279580011521607E-008
  -84.1000000000000         2.456690750128592E-008
  -83.9100000000000         2.602654279259279E-008
  -83.7200000000000         2.594399382422606E-008
  -83.5300000000000         2.816327006261818E-008
  -83.3400000000000         2.823494870374808E-008
  -83.1500000000000         2.878204475067232E-008
  -82.9600000000000         2.952640182670294E-008
  -82.7700000000000         3.022867531553118E-008
  -82.5800000000000         3.075721167094151E-008
  -82.3900000000000         3.104658230509496E-008
  -82.2000000000000         3.112276443457144E-008
  -82.0100000000000         3.105220554679893E-008
  -81.8200000000000         3.076773991689032E-008
  -81.6300000000000         3.034328812922382E-008
  -81.4400000000000         2.989394321307686E-008
  -81.2500000000000         2.947639483272208E-008
  -81.0600000000000         2.893731952670127E-008
  -80.8700000000000         2.797021565701616E-008
  -80.6800000000000         2.684911771775847E-008
  -80.4900000000000         2.585179509067995E-008
  -80.3000000000000         2.514331102210586E-008
  -80.1100000000000         2.468607169775330E-008
  -79.9200000000000         2.447013122496553E-008
  -79.7300000000000         2.454710873607895E-008
  -79.5400000000000         2.487356251196844E-008
  -79.3500000000000         2.549181286766922E-008
  -79.1600000000000         2.628458478893231E-008
  -78.9700000000000         2.714248394842064E-008
  -78.7800000000000         2.815135182021683E-008
  -78.5900000000000         2.937395048858971E-008
  -78.4000000000000         3.032055906923675E-008
  -78.2100000000000         3.094511837928453E-008
  -78.0200000000000         3.147047020103663E-008
  -77.8300000000000         3.191933121001213E-008
  -77.6400000000000         3.239109543392037E-008
  -77.4500000000000         3.289699273049509E-008
  -77.2600000000000         3.335965747106507E-008
  -77.0700000000000         3.374869733655965E-008
  -76.8800000000000         3.403563960070568E-008
  -76.6900000000000         3.440006127640875E-008
  -76.5000000000000         3.492970339252021E-008
  -76.3100000000000         3.601166001570032E-008
  -76.1200000000000         3.661183923579051E-008
  -75.9300000000000         3.764597039596752E-008
  -75.7400000000000         3.849221041939196E-008
  -75.5500000000000         3.928230819534755E-008
  -75.3600000000000         4.002736866072587E-008
  -75.1700000000000         4.079880987466764E-008
  -74.9800000000000         4.210640697851613E-008
  -74.7900000000000         4.376196256182906E-008
  -74.6000000000000         4.543205809487563E-008
  -74.4100000000000         4.700480212903594E-008
  -74.2200000000000         4.841982868324964E-008
  -74.0300000000000         4.967678934011161E-008
  -73.8400000000000         5.104512207641378E-008
  -73.6500000000000         5.244231715856791E-008
  -73.4600000000000         5.359975324493574E-008
  -73.2700000000000         5.478299128266188E-008
  -73.0800000000000         5.577543981612186E-008
  -72.8900000000000         5.681543161061868E-008
  -72.7000000000000         5.750076209426461E-008
  -72.5100000000000         5.821066591168688E-008
  -72.3200000000000         5.898352707411318E-008
  -72.1300000000000         5.969994198727158E-008
  -71.9400000000000         6.012482414854071E-008
  -71.7500000000000         6.251582913613511E-008
  -71.5600000000000         6.267831613702819E-008
  -71.3700000000000         6.309140536949698E-008
  -71.1800000000000         6.393801083572103E-008
  -70.9900000000000         6.426481166408679E-008
  -70.8000000000000         6.743573185254696E-008
  -70.6100000000000         6.757036901124544E-008
  -70.4200000000000         6.798375067057556E-008
  -70.2300000000000         7.214552940049212E-008
  -70.0400000000000         7.220432872507174E-008
  -69.8500000000000         7.279555048257540E-008
  -69.6600000000000         7.652266783506327E-008
  -69.4700000000000         7.719582587971365E-008
  -69.2800000000000         7.846819648951133E-008
  -69.0900000000000         7.992275911384162E-008
  -68.9000000000000         8.108279458754412E-008
  -68.7100000000000         8.224721734618355E-008
  -68.5200000000000         8.346271273320966E-008
  -68.3300000000000         8.466157999136026E-008
  -68.1400000000000         8.578260131817833E-008
  -67.9500000000000         8.662211709012720E-008
  -67.7600000000000         8.735345934518232E-008
  -67.5700000000000         8.820121583663242E-008
  -67.3800000000000         8.921183499894251E-008
  -67.1900000000000         9.017962965408777E-008
  -67.0000000000000         9.090174972087127E-008
  -66.8100000000000         9.272433928981379E-008
  -66.6200000000000         9.309383195055154E-008
  -66.4300000000000         9.395608808505585E-008
  -66.2400000000000         9.676681972922135E-008
  -66.0500000000000         9.708452112536479E-008
  -65.8600000000000         9.762547665623058E-008
  -65.6700000000000         9.907611849478753E-008
  -65.4800000000000         1.011137963011865E-007
  -65.2900000000000         1.032601532430652E-007
  -65.1000000000000         1.055927231273958E-007
  -64.9100000000000         1.079325575311469E-007
  -64.7200000000000         1.101370426270013E-007
  -64.5300000000000         1.127988883512562E-007
  -64.3400000000000         1.152648608583715E-007
  -64.1500000000000         1.174130966573473E-007
  -63.9600000000000         1.193531134721273E-007
  -63.7700000000000         1.212250176570176E-007
  -63.5800000000000         1.234146706109387E-007
  -63.3900000000000         1.255792571939401E-007
  -63.2000000000000         1.277705985863313E-007
  -63.0100000000000         1.298320031266999E-007
  -62.8200000000000         1.317692694539542E-007
  -62.6300000000000         1.333853886125809E-007
  -62.4400000000000         1.347481683470584E-007
  -62.2500000000000         1.360161920783647E-007
  -62.0600000000000         1.371889878452446E-007
  -61.8700000000000         1.382153901136825E-007
  -61.6800000000000         1.390969827456239E-007
  -61.4900000000000         1.398412305604188E-007
  -61.3000000000000         1.406405538252505E-007
  -61.1100000000000         1.414783618485573E-007
  -60.9200000000000         1.422998933328832E-007
  -60.7300000000000         1.434561441711996E-007
  -60.5400000000000         1.448585804116592E-007
  -60.3500000000000         1.463516019068989E-007
  -60.1600000000000         1.480705628487509E-007
  -59.9700000000000         1.497950234185775E-007
  -59.7800000000000         1.515598551304184E-007
  -59.5900000000000         1.537311034491902E-007
  -59.4000000000000         1.562914094187548E-007
  -59.2100000000000         1.592652486989793E-007
  -59.0200000000000         1.624978043233709E-007
  -58.8300000000000         1.654838473998252E-007
  -58.6400000000000         1.681104584243662E-007
  -58.4500000000000         1.712400495305413E-007
  -58.2600000000000         1.748905252554057E-007
  -58.0700000000000         1.781091961271010E-007
  -57.8800000000000         1.822567791321923E-007
  -57.6900000000000         1.858448606960009E-007
  -57.5000000000000         1.888109702541903E-007
  -57.3100000000000         1.904029003486284E-007
  -57.1200000000000         1.958558099290084E-007
  -56.9300000000000         1.968671968489654E-007
  -56.7400000000000         1.991172405556838E-007
  -56.5500000000000         2.017503520571431E-007
  -56.3600000000000         2.030218727135110E-007
  -56.1700000000000         2.053504185884381E-007
  -55.9800000000000         2.061438870392765E-007
  -55.7900000000000         2.079197013230664E-007
  -55.6000000000000         2.092487419315119E-007
  -55.4100000000000         2.111087050531810E-007
  -55.2200000000000         2.132153940263652E-007
  -55.0300000000000         2.154909596221078E-007
  -54.8400000000000         2.180107113064211E-007
  -54.6500000000000         2.206066611413916E-007
  -54.4600000000000         2.233327242916458E-007
  -54.2700000000000         2.260111538908338E-007
  -54.0800000000000         2.287580755857106E-007
  -53.8900000000000         2.314495809745264E-007
  -53.7000000000000         2.343829014095697E-007
  -53.5100000000000         2.375094570674607E-007
  -53.3200000000000         2.407381566294868E-007
  -53.1300000000000         2.444912953787673E-007
  -52.9400000000000         2.483870549037784E-007
  -52.7500000000000         2.523387248613380E-007
  -52.5600000000000         2.560990442449436E-007
  -52.3700000000000         2.608009892276460E-007
  -52.1800000000000         2.624055928305083E-007
  -51.9900000000000         2.739344093528138E-007
  -51.8000000000000         2.752019593607331E-007
  -51.6100000000000         2.774051185136728E-007
  -51.4200000000000         2.814179644211236E-007
  -51.2300000000000         2.869276113785535E-007
  -51.0400000000000         2.883641495646078E-007
  -50.8500000000000         2.922175763719401E-007
  -50.6600000000000         2.937494157134558E-007
  -50.4700000000000         3.012068110569982E-007
  -50.2800000000000         3.024427913068138E-007
  -50.0900000000000         3.045987857436537E-007
  -49.9000000000000         3.087777806788204E-007
  -49.7100000000000         3.104684327170808E-007
  -49.5200000000000         3.155196466562997E-007
  -49.3300000000000         3.173120554781090E-007
  -49.1400000000000         3.235503233998199E-007
  -48.9500000000000         3.255859758507510E-007
  -48.7600000000000         3.314886668727350E-007
  -48.5700000000000         3.366404612281510E-007
  -48.3800000000000         3.418637140851129E-007
  -48.1900000000000         3.472224026997295E-007
  -48.0000000000000         3.527240682797633E-007
  -47.8100000000000         3.584895725996807E-007
  -47.6200000000000         3.635123153322730E-007
  -47.4300000000000         3.683445829632869E-007
  -47.2400000000000         3.737363851344548E-007
  -47.0500000000000         3.781749195039271E-007
  -46.8600000000000         3.833335391719270E-007
  -46.6700000000000         3.885262340611840E-007
  -46.4800000000000         3.933776310205354E-007
  -46.2900000000000         3.980123048883875E-007
  -46.1000000000000         4.018760018463760E-007
  -45.9100000000000         4.065877237125852E-007
  -45.7200000000000         4.112208988372921E-007
  -45.5300000000000         4.160100987274785E-007
  -45.3400000000000         4.212734474046316E-007
  -45.1500000000000         4.264020518345544E-007
  -44.9600000000000         4.315294951098677E-007
  -44.7700000000000         4.357796422464453E-007
  -44.5800000000000         4.406950333511032E-007
  -44.3900000000000         4.447939486641981E-007
  -44.2000000000000         4.499977571832406E-007
  -44.0100000000000         4.544214373611222E-007
  -43.8200000000000         4.599502080825925E-007
  -43.6300000000000         4.643128342045618E-007
  -43.4400000000000         4.702939174163688E-007
  -43.2500000000000         4.740456057682425E-007
  -43.0600000000000         4.796945269591989E-007
  -42.8700000000000         4.841783987579364E-007
  -42.6800000000000         4.899295153816517E-007
  -42.4900000000000         4.937910129751851E-007
  -42.3000000000000         4.997862505484472E-007
  -42.1100000000000         5.033414356867655E-007
  -41.9200000000000         5.094335607405384E-007
  -41.7300000000000         5.135978978846634E-007
  -41.5400000000000         5.195415227267634E-007
  -41.3500000000000         5.227273651794249E-007
  -41.1600000000000         5.287835578204657E-007
  -40.9700000000000         5.312339564894267E-007
  -40.7800000000000         5.384993030602610E-007
  -40.5900000000000         5.411942458401007E-007
  -40.4000000000000         5.505480047794059E-007
  -40.2100000000000         5.533241844408592E-007
  -40.0200000000000         5.629945916559992E-007
  -39.8300000000000         5.656250797512589E-007
  -39.6400000000000         5.768760378696776E-007
  -39.4500000000000         5.796715560938427E-007
  -39.2600000000000         5.901385553293734E-007
  -39.0700000000000         5.939976539601307E-007
  -38.8800000000000         6.065437933665407E-007
  -38.6900000000000         6.106975582842180E-007
  -38.5000000000000         6.234569767997839E-007
  -38.3100000000000         6.272367730808215E-007
  -38.1200000000000         6.384504162190108E-007
  -37.9300000000000         6.419387696682787E-007
  -37.7400000000000         6.522465015472542E-007
  -37.5500000000000         6.556158709255981E-007
  -37.3600000000000         6.654836513496638E-007
  -37.1700000000000         6.687427646881226E-007
  -36.9800000000000         6.779703449362822E-007
  -36.7900000000000         6.811034791480772E-007
  -36.6000000000000         6.900778940674262E-007
  -36.4100000000000         6.928527212626237E-007
  -36.2200000000000         7.016798201545738E-007
  -36.0300000000000         7.043149294306541E-007
  -35.8400000000000         7.139113505353127E-007
  -35.6500000000000         7.167402370734592E-007
  -35.4600000000000         7.273573489484981E-007
  -35.2700000000000         7.303810739477402E-007
  -35.0800000000000         7.416296293223455E-007
  -34.8900000000000         7.446071754280504E-007
  -34.7000000000000         7.567336199081964E-007
  -34.5100000000000         7.597862662137984E-007
  -34.3200000000000         7.717378492002835E-007
  -34.1300000000000         7.753628220565597E-007
  -33.9400000000000         7.895182152764903E-007
  -33.7500000000000         7.936397879905705E-007
  -33.5600000000000         8.071406453875246E-007
  -33.3700000000000         8.107989919133366E-007
  -33.1800000000000         8.255988291890172E-007
  -32.9900000000000         8.288241243539902E-007
  -32.8000000000000         8.417567716442267E-007
  -32.6100000000000         8.448976965106029E-007
  -32.4200000000000         8.583902655034570E-007
  -32.2300000000000         8.618359062005475E-007
  -32.0400000000000         8.752755419556892E-007
  -31.8500000000000         8.787339063459344E-007
  -31.6600000000000         8.921501810018537E-007
  -31.4700000000000         8.955364137104323E-007
  -31.2800000000000         9.085751608752091E-007
  -31.0900000000000         9.122179025629284E-007
  -30.9000000000000         9.254007944418044E-007
  -30.7100000000000         9.293239502889729E-007
  -30.5200000000000         9.426994729712022E-007
  -30.3300000000000         9.465671501630261E-007
  -30.1400000000000         9.607394206367081E-007
  -29.9500000000000         9.644277256104426E-007
  -29.7600000000000         9.788654872120660E-007
  -29.5700000000000         9.825588215467082E-007
  -29.3800000000000         9.961133468714701E-007
  -29.1900000000000         1.000409139586796E-006
  -29.0000000000000         1.015461538507321E-006
  -28.8100000000000         1.020789769164700E-006
  -28.6200000000000         1.034873525185486E-006
  -28.4300000000000         1.041104374656447E-006
  -28.2400000000000         1.054490949329505E-006
  -28.0500000000000         1.060438523870305E-006
  -27.8600000000000         1.071723933297869E-006
  -27.6700000000000         1.081341264077378E-006
  -27.4800000000000         1.090475664953805E-006
  -27.2900000000000         1.099517358703850E-006
  -27.1000000000000         1.108570979238813E-006
  -26.9100000000000         1.117158031924946E-006
  -26.7200000000000         1.125060202451867E-006
  -26.5300000000000         1.133755231827673E-006
  -26.3400000000000         1.142143418242447E-006
  -26.1500000000000         1.151298806315263E-006
  -25.9600000000000         1.160638732040262E-006
  -25.7700000000000         1.170498323504824E-006
  -25.5800000000000         1.180615583977896E-006
  -25.3900000000000         1.190217108597849E-006
  -25.2000000000000         1.199555613526098E-006
  -25.0100000000000         1.210013231460976E-006
  -24.8200000000000         1.219922755713664E-006
  -24.6300000000000         1.230536661215376E-006
  -24.4400000000000         1.241922474330334E-006
  -24.2500000000000         1.252687969036067E-006
  -24.0600000000000         1.264347238045212E-006
  -23.8700000000000         1.275116181485963E-006
  -23.6800000000000         1.285190157099916E-006
  -23.4900000000000         1.295979290345880E-006
  -23.3000000000000         1.307261013259805E-006
  -23.1100000000000         1.318268820786775E-006
  -22.9200000000000         1.329450597305094E-006
  -22.7300000000000         1.341263324532249E-006
  -22.5400000000000         1.352843367028821E-006
  -22.3500000000000         1.364485956086557E-006
  -22.1600000000000         1.376646472491456E-006
  -21.9700000000000         1.388485033370571E-006
  -21.7800000000000         1.399631757192668E-006
  -21.5900000000000         1.411706396182088E-006
  -21.4000000000000         1.423299483902040E-006
  -21.2100000000000         1.433895260789593E-006
  -21.0200000000000         1.447207427233391E-006
  -20.8300000000000         1.453020513341907E-006
  -20.6400000000000         1.469778381386851E-006
  -20.4500000000000         1.473862997863079E-006
  -20.2600000000000         1.495532572212359E-006
  -20.0700000000000         1.499159750690841E-006
  -19.8800000000000         1.508674082814029E-006
  -19.6900000000000         1.524202267731746E-006
  -19.5000000000000         1.528087650243672E-006
  -19.3100000000000         1.549909596731540E-006
  -19.1200000000000         1.553992055327979E-006
  -18.9300000000000         1.568020666308568E-006
  -18.7400000000000         1.572642311137942E-006
  -18.5500000000000         1.595267539439111E-006
  -18.3600000000000         1.599198218991480E-006
  -18.1700000000000         1.612777482817056E-006
  -17.9800000000000         1.628919466300816E-006
  -17.7900000000000         1.633514071218314E-006
  -17.6000000000000         1.651720156546249E-006
  -17.4100000000000         1.655862703705081E-006
  -17.2200000000000         1.675391037540624E-006
  -17.0300000000000         1.679797845883703E-006
  -16.8400000000000         1.699672614084137E-006
  -16.6500000000000         1.704424817185185E-006
  -16.4600000000000         1.726631926430963E-006
  -16.2700000000000         1.731389173364601E-006
  -16.0800000000000         1.754496058350415E-006
  -15.8900000000000         1.759086487637864E-006
  -15.7000000000000         1.780202905340532E-006
  -15.5100000000000         1.785020817632279E-006
  -15.3200000000000         1.808429143417368E-006
  -15.1300000000000         1.812940714067689E-006
  -14.9400000000000         1.831727753477531E-006
  -14.7500000000000         1.836344154021962E-006
  -14.5600000000000         1.860555349847108E-006
  -14.3700000000000         1.865066715646154E-006
  -14.1800000000000         1.882698494746132E-006
  -13.9900000000000         1.887552984385066E-006
  -13.8000000000000         1.909680459648320E-006
  -13.6100000000000         1.913892922314826E-006
  -13.4200000000000         1.932046748623149E-006
  -13.2300000000000         1.936311873372066E-006
  -13.0400000000000         1.959344406098821E-006
  -12.8500000000000         1.963592200035897E-006
  -12.6600000000000         1.982342929984970E-006
  -12.4700000000000         1.986784731735383E-006
  -12.2800000000000         2.010005943572655E-006
  -12.0900000000000         2.014437059250452E-006
  -11.9000000000000         2.036081414740353E-006
  -11.7100000000000         2.040762984919179E-006
  -11.5200000000000         2.065796863330743E-006
  -11.3300000000000         2.070616432449364E-006
  -11.1400000000000         2.091760889259996E-006
  -10.9500000000000         2.096550786076982E-006
  -10.7600000000000         2.122068861018882E-006
  -10.5700000000000         2.126705088852896E-006
  -10.3800000000000         2.144932086008887E-006
  -10.1900000000000         2.149693619129835E-006
  -10.0000000000000         2.175265749851834E-006
  -9.81000000000000         2.180043689899269E-006
  -9.62000000000000         2.197813826386813E-006
  -9.42999999999999         2.203223092261037E-006
  -9.23999999999999         2.228967112794427E-006
  -9.05000000000000         2.233869630913612E-006
  -8.86000000000000         2.255498582135607E-006
  -8.67000000000000         2.260583279393390E-006
  -8.48000000000000         2.286581831138440E-006
  -8.28999999999999         2.291776926561871E-006
  -8.09999999999999         2.313806324242352E-006
  -7.91000000000000         2.319348794424126E-006
  -7.72000000000000         2.346522408604556E-006
  -7.53000000000000         2.351943191750635E-006
  -7.34000000000000         2.374942450917182E-006
  -7.15000000000001         2.380383907706150E-006
  -6.95999999999999         2.405963052068777E-006
  -6.77000000000000         2.411529256677703E-006
  -6.58000000000000         2.433567393899720E-006
  -6.39000000000000         2.439430841612644E-006
  -6.20000000000000         2.467680496465640E-006
  -6.01000000000001         2.473166813030447E-006
  -5.81999999999999         2.485577276038447E-006
  -5.63000000000000         2.510800305173725E-006
  -5.44000000000000         2.516488419253131E-006
  -5.25000000000000         2.537519025620545E-006
  -5.06000000000000         2.543519527955247E-006
  -4.87000000000000         2.573185295005839E-006
  -4.67999999999999         2.578841406546594E-006
  -4.48999999999999         2.586720528395142E-006
  -4.30000000000000         2.611242141120232E-006
  -4.11000000000000         2.616993175892706E-006
  -3.92000000000000         2.627398822315258E-006
  -3.73000000000000         2.659101121742787E-006
  -3.53999999999999         2.664941469855400E-006
  -3.34999999999999         2.673086327468875E-006
  -3.16000000000000         2.694171145282564E-006
  -2.97000000000000         2.700596350051851E-006
  -2.78000000000000         2.732168869456779E-006
  -2.59000000000000         2.738536234566035E-006
  -2.40000000000001         2.748960612265782E-006
  -2.20999999999999         2.780526066253139E-006
  -2.02000000000000         2.786775370363824E-006
  -1.83000000000000         2.796319973866103E-006
  -1.64000000000000         2.822303131232558E-006
  -1.45000000000000         2.828614867508333E-006
  -1.26000000000001         2.841931273776865E-006
  -1.06999999999999         2.874145882948150E-006
 -0.879999999999995         2.880436807215228E-006
 -0.689999999999998         2.888793605627104E-006
 -0.500000000000000         2.900160493688210E-006
 -0.310000000000002         2.925701009086684E-006
 -0.120000000000005         2.932206190119867E-006
  7.000000000000739E-002    2.942363380284333E-006
  0.260000000000005         2.959612692859975E-006
  0.450000000000003         2.967197374001406E-006
  0.640000000000001         3.006979438618474E-006
  0.829999999999998         3.013658636711386E-006
   1.02000000000000         3.022431831267369E-006
   1.21000000000001         3.033911289555766E-006
   1.40000000000001         3.045012647388273E-006
   1.59000000000000         3.056101226276114E-006
   1.78000000000000         3.067408834895053E-006
   1.97000000000000         3.079456667027679E-006
   2.16000000000000         3.091322189344281E-006
   2.34999999999999         3.143793989236811E-006
   2.54000000000001         3.151685001328999E-006
   2.73000000000000         3.160677087198920E-006
   2.92000000000000         3.170731984980945E-006
   3.11000000000000         3.181052656667817E-006
   3.30000000000000         3.191648365397724E-006
   3.48999999999999         3.203274929741883E-006
   3.68000000000001         3.215759164126115E-006
   3.87000000000000         3.230907014501653E-006
   4.06000000000000         3.243726004324643E-006
   4.25000000000000         3.259642002597094E-006
   4.44000000000000         3.272501102459795E-006
   4.63000000000000         3.288911665655660E-006
   4.82000000000001         3.302187344180206E-006
   5.01000000000001         3.320320094673931E-006
   5.20000000000000         3.333253754815390E-006
   5.39000000000000         3.349520990758889E-006
   5.58000000000000         3.363018825927891E-006
   5.77000000000000         3.377025289606077E-006
   5.96000000000001         3.391528635444566E-006
   6.15000000000001         3.405462535199653E-006
   6.34000000000000         3.419935677122877E-006
   6.53000000000000         3.433931331210816E-006