  -105.000000000000         0.000000000000000E+000
  -104.810000000000         6.188262079060971E-021
  -104.620000000000         1.706371431557070E-020
  -104.430000000000         3.012877863903247E-020
  -104.240000000000         4.258922468000935E-020
  -104.050000000000         5.213205812785759E-020
  -103.860000000000         5.755740191142387E-020
  -103.670000000000         5.908280215993077E-020
  -103.480000000000         5.823364893411602E-020
  -103.290000000000         5.735375165963322E-020
  -103.100000000000         5.888040573511493E-020
  -102.910000000000         6.459631195159383E-020
  -102.720000000000         7.507675402044913E-020
  -102.530000000000         8.949305264822439E-020
  -102.340000000000         1.058294852757216E-019
  -102.150000000000         1.214507833566619E-019
  -101.960000000000         1.338555931545430E-019
  -101.770000000000         1.413971335254489E-019
  -101.580000000000         1.437613557497468E-019
  -101.390000000000         1.420628003814503E-019
  -101.200000000000         1.385290888564650E-019
  -101.010000000000         1.358645601228269E-019
  -100.820000000000         1.364770459027459E-019
  -100.630000000000         1.417916757013340E-019
  -100.440000000000         1.518501737399835E-019
  -100.250000000000         1.653109395571622E-019
  -100.060000000000         1.798487993835491E-019
  -99.8700000000000         1.928376464574948E-019
  -99.6800000000000         2.021176701236142E-019
  -99.4900000000000         2.066248075406125E-019
  -99.3000000000000         2.067001625077321E-019
  -99.1100000000000         2.039898355825726E-019
  -98.9200000000000         2.009643027174591E-019
  -98.7300000000000         2.001969776175901E-019
  -98.5400000000000         2.036117826156384E-019
  -98.3500000000000         2.119187752908108E-019
  -98.1600000000000         2.244022182064076E-019
  -97.9700000000000         2.391228296484779E-019
  -97.7800000000000         2.534753647850284E-019
  -97.5900000000000         2.649394128862222E-019
  -97.4000000000000         2.718053773711234E-019
  -97.2100000000000         2.736650585733316E-019
  -97.0200000000000         2.715246718588548E-019
  -96.8300000000000         2.675076144979707E-019
  -96.6400000000000         2.642332710759874E-019
  -96.4500000000000         2.640522832501914E-019
  -96.2600000000000         2.683606396067201E-019
  -96.0700000000000         2.771922458661045E-019
  -95.8800000000000         2.892086869824553E-019
  -95.6900000000000         3.020892107720743E-019
  -95.5000000000000         3.132073811921928E-019
  -95.3100000000000         3.203974742215877E-019
  -95.1200000000000         3.225877524254672E-019
  -94.9300000000000         3.201165580949289E-019
  -94.7400000000000         3.146392089178195E-019
  -94.5500000000000         3.086522547804892E-019
  -94.3600000000000         3.047725876193497E-019
  -94.1700000000000         3.049802316828962E-019
  -93.9800000000000         3.100446788503133E-019
  -93.7900000000000         3.193018996762046E-019
  -93.6000000000000         3.308476082942737E-019
  -93.4100000000000         3.420913195652701E-019
  -93.2200000000000         3.505105522879159E-019
  -93.0300000000000         3.543861200561378E-019
  -92.8400000000000         3.533049682369424E-019
  -92.6500000000000         3.482846947772458E-019
  -92.4600000000000         3.414837324030169E-019
  -92.2700000000000         3.355810903429929E-019
  -92.0800000000000         3.330049073701620E-019
  -91.8900000000000         3.352325710127132E-019
  -91.7000000000000         3.423644637851917E-019
  -91.5100000000000         3.530944253551467E-019
  -91.3200000000000         3.650853320584661E-019
  -91.1300000000000         3.756408075275241E-019
  -90.9400000000000         3.824781180243489E-019
  -90.7500000000000         3.843779979597124E-019
  -90.5600000000000         3.815231958807679E-019
  -90.3700000000000         3.754284024921926E-019
  -90.1800000000000         3.684832847809388E-019
  -89.9900000000000         3.632428011386077E-019
  -89.8000000000000         3.616721333832280E-019
  -89.6100000000000         3.645663971030682E-019
  -89.4200000000000         3.713143009946703E-019
  -89.2300000000000         3.800749976653019E-019
  -89.0400000000000         3.883173784310514E-019
  -88.8500000000000         3.935656601088592E-019
  -88.6600000000000         3.941348426596792E-019
  -88.4700000000000         3.896421137970201E-019
  -88.2800000000000         3.811449946421547E-019
  -88.0900000000000         3.708651863896036E-019
  -87.9000000000000         3.615770872033977E-019
  -87.7100000000000         3.558367599141918E-019
  -87.5200000000000         3.552727353902213E-019
  -87.3300000000000         3.601416023811491E-019
  -87.1400000000000         3.692745973237141E-019
  -86.9500000000000         3.804286600378118E-019
  -86.7600000000000         3.909390418366500E-019
  -86.5700000000000         3.984839213378796E-019
  -86.3800000000000         4.017396044577546E-019
  -86.1900000000000         4.007371674328362E-019
  -86.0000000000000         3.968186864813334E-019
  -85.8100000000000         3.922081406182211E-019
  -85.6200000000000         3.893244648499231E-019
  -85.4300000000000         3.900391583081731E-019
  -85.2400000000000         3.950965204951804E-019
  -85.0500000000000         4.038666938673539E-019
  -84.8600000000000         4.145044878853072E-019
  -84.6700000000000         4.244688732598670E-019
  -84.4800000000000         4.312532503753159E-019
  -84.2900000000000         4.331151970297163E-019
  -84.1000000000000         4.295939269668602E-019
  -83.9100000000000         4.216643402007407E-019
  -83.7200000000000         4.114811165973646E-019
  -83.5300000000000         4.017848518510482E-019
  -83.3400000000000         3.951404204752920E-019
  -83.1500000000000         3.932267878800132E-019
  -82.9600000000000         3.963828135768980E-019
  -82.7700000000000         4.035393790506093E-019
  -82.5800000000000         4.125561793514056E-019
  -82.3900000000000         4.208644372129789E-019
  -82.2000000000000         4.262285378942042E-019
  -82.0100000000000         4.274054689689258E-019
  -81.8200000000000         4.245106862008809E-019
  -81.6300000000000         4.189840850692099E-019
  -81.4400000000000         4.131657452242652E-019
  -81.2500000000000         4.096045859927639E-019
  -81.0600000000000         4.103010681109734E-019
  -80.8700000000000         4.161047465081232E-019
  -80.6800000000000         4.264428807280350E-019
  -80.4900000000000         4.394603015756983E-019
  -80.3000000000000         4.525312736854179E-019
  -80.1100000000000         4.629960151200257E-019
  -79.9200000000000         4.689092706541269E-019
  -79.7300000000000         4.695847412768312E-019
  -79.5400000000000         4.657781604089810E-019
  -79.3500000000000         4.594562557078291E-019
  -79.1600000000000         4.532186264385805E-019
  -78.9700000000000         4.495401796239159E-019
  -78.7800000000000         4.500540379958140E-019
  -78.5900000000000         4.550833142222400E-019
  -78.4000000000000         4.635578199488822E-019
  -78.2100000000000         4.733395396416200E-019
  -78.0200000000000         4.818614024769792E-019
  -77.8300000000000         4.868925488980652E-019
  -77.6400000000000         4.872065685169852E-019
  -77.4500000000000         4.829575399978455E-019
  -77.2600000000000         4.756535948576787E-019
  -77.0700000000000         4.677344321142073E-019
  -76.8800000000000         4.618740900016957E-019
  -76.6900000000000         4.602103178366192E-019
  -76.5000000000000         4.637239468131038E-019
  -76.3100000000000         4.719490654557992E-019
  -76.1200000000000         4.830994915323351E-019
  -75.9300000000000         4.945763909672201E-019
  -75.7400000000000         5.037110355608293E-019
  -75.5500000000000         5.085281592182795E-019
  -75.3600000000000         5.083093766917175E-019
  -75.1700000000000         5.037943846557009E-019
  -74.9800000000000         4.969628982473738E-019
  -74.7900000000000         4.904615603772523E-019
  -74.6000000000000         4.868421507813807E-019
  -74.4100000000000         4.878310484213883E-019
  -74.2200000000000         4.938399937818070E-019
  -74.0300000000000         5.038579030016229E-019
  -73.8400000000000         5.157531192180506E-019
  -73.6500000000000         5.268968010464242E-019
  -73.4600000000000         5.349253924393415E-019
  -73.2700000000000         5.384202214146733E-019
  -73.0800000000000         5.373069248243751E-019
  -72.8900000000000         5.328594561813319E-019
  -72.7000000000000         5.273089383447637E-019
  -72.5100000000000         5.231728264513108E-019
  -72.3200000000000         5.225011783151603E-019
  -72.1300000000000         5.262607274652453E-019
  -71.9400000000000         5.340371425836732E-019
  -71.7500000000000         5.441431598250671E-019
  -71.5600000000000         5.541020954048311E-019
  -71.3700000000000         5.613668424979367E-019
  -71.1800000000000         5.640656427786659E-019
  -70.9900000000000         5.615578413119021E-019
  -70.8000000000000         5.546379294996420E-019
  -70.6100000000000         5.453283209628864E-019
  -70.4200000000000         5.363205180950014E-019
  -70.2300000000000         5.302257917499753E-019
  -70.0400000000000         5.288509122504480E-019
  -69.8500000000000         5.327065089268002E-019
  -69.6600000000000         5.408880226730437E-019
  -69.4700000000000         5.513615855607445E-019
  -69.2800000000000         5.615703647426990E-019
  -69.0900000000000         5.691844081693494E-019
  -68.9000000000000         5.727755479224591E-019
  -68.7100000000000         5.722207557872190E-019
  -68.5200000000000         5.687165962236474E-019
  -68.3300000000000         5.644013238335799E-019
  -68.1400000000000         5.616964703877706E-019
  -67.9500000000000         5.625624231405690E-019
  -67.7600000000000         5.678879490605176E-019
  -67.5700000000000         5.771943284920921E-019
  -67.3800000000000         5.887425007991150E-019
  -67.1900000000000         6.000137540785856E-019
  -67.0000000000000         6.084255516525386E-019
  -66.8100000000000         6.120755585451892E-019
  -66.6200000000000         6.102983145257587E-019
  -66.4300000000000         6.038726022850676E-019
  -66.2400000000000         5.948180242781776E-019
  -66.0500000000000         5.858378446897982E-019
  -65.8600000000000         5.795675499298730E-019
  -65.6700000000000         5.778450066775488E-019
  -65.4800000000000         5.812119819075228E-019
  -65.2900000000000         5.887898261394243E-019
  -65.1000000000000         5.985637649374440E-019
  -64.9100000000000         6.079919545769834E-019
  -64.7200000000000         6.147615152898113E-019
  -64.5300000000000         6.174713554270855E-019
  -64.3400000000000         6.160430395719632E-019
  -64.1500000000000         6.117400834202710E-019
  -63.9600000000000         6.067899989924184E-019
  -63.7700000000000         6.037191107681757E-019
  -63.5800000000000         6.045939607454858E-019
  -63.3900000000000         6.103905757620043E-019
  -63.2000000000000         6.206759217284114E-019
  -63.0100000000000         6.336952708733048E-019
  -62.8200000000000         6.468414645407064E-019
  -62.6300000000000         6.573715916405658E-019
  -62.4400000000000         6.631654666041041E-019
  -62.2500000000000         6.633086959508416E-019
  -62.0600000000000         6.583338777985372E-019
  -61.8700000000000         6.500516794521448E-019
  -61.6800000000000         6.410211065760111E-019
  -61.4900000000000         6.338118091862673E-019
  -61.3000000000000         6.302711961049890E-019
  -61.1100000000000         6.310079929841001E-019
  -60.9200000000000         6.352415430984335E-019
  -60.7300000000000         6.410602587958450E-019
  -60.5400000000000         6.460137843736652E-019
  -60.3500000000000         6.478662457214102E-019
  -60.1600000000000         6.452907843660098E-019
  -59.9700000000000         6.383021283357642E-019
  -59.7800000000000         6.282994190330218E-019
  -59.5900000000000         6.177040292673699E-019
  -59.4000000000000         6.092941863630318E-019
  -59.2100000000000         6.054261908525430E-019
  -59.0200000000000         6.073656851308129E-019
  -58.8300000000000         6.149220531281297E-019
  -58.6400000000000         6.264930401515682E-019
  -58.4500000000000         6.395093777805636E-019
  -58.2600000000000         6.511541148498191E-019
  -58.0700000000000         6.591517575407223E-019
  -57.8800000000000         6.624014842459447E-019
  -57.6900000000000         6.612729288690011E-019
  -57.5000000000000         6.574796847410850E-019
  -57.3100000000000         6.535669213531863E-019
  -57.1200000000000         6.521604728974791E-019
  -56.9300000000000         6.551936316984652E-019
  -56.7400000000000         6.633347948192767E-019
  -56.5500000000000         6.757817081117978E-019
  -56.3600000000000         6.904823591529625E-019
  -56.1700000000000         7.047188012066636E-019
  -55.9800000000000         7.158842449051696E-019
  -55.7900000000000         7.222267633507779E-019
  -55.6000000000000         7.233420281128564E-019
  -55.4100000000000         7.202704650597588E-019
  -55.2200000000000         7.151700234457825E-019
  -55.0300000000000         7.106604741862239E-019
  -54.8400000000000         7.090320881371741E-019
  -54.6500000000000         7.115521311857707E-019
  -54.4600000000000         7.180748234287728E-019
  -54.2700000000000         7.270721611454331E-019
  -54.0800000000000         7.360797746255944E-019
  -53.8900000000000         7.424295245081597E-019
  -53.7000000000000         7.440546716056927E-019
  -53.5100000000000         7.401298925674358E-019
  -53.3200000000000         7.313549820550665E-019
  -53.1300000000000         7.197948320326631E-019
  -52.9400000000000         7.083188204310133E-019
  -52.7500000000000         6.998012745338069E-019
  -52.5600000000000         6.963158436003855E-019
  -52.3700000000000         6.985591954494966E-019
  -52.1800000000000         7.056725826541017E-019
  -51.9900000000000         7.155131708419847E-019
  -51.8000000000000         7.252949436517672E-019
  -51.6100000000000         7.324104183483397E-019
  -51.4200000000000         7.351913545709562E-019
  -51.2300000000000         7.333848410504697E-019
  -51.0400000000000         7.282053477672541E-019
  -50.8500000000000         7.219487561751080E-019
  -50.6600000000000         7.172839659389130E-019
  -50.4700000000000         7.164330050467650E-019
  -50.2800000000000         7.204832784470867E-019
  -50.0900000000000         7.290359537987689E-019
  -49.9000000000000         7.402945095412912E-019
  -49.7100000000000         7.515672511909914E-019
  -49.5200000000000         7.600359386549605E-019
  -49.3300000000000         7.635652511314078E-019
  -49.1400000000000         7.613168794891001E-019
  -48.9500000000000         7.539902787429599E-019
  -48.7600000000000         7.436221323461577E-019
  -48.5700000000000         7.330058704140358E-019
  -48.3800000000000         7.249029806586153E-019
  -48.1900000000000         7.212768710918437E-019
  -48.0000000000000         7.227706926750479E-019
  -47.8100000000000         7.285763976380140E-019
  -47.6200000000000         7.367262185023986E-019
  -47.4300000000000         7.447144525177212E-019
  -47.2400000000000         7.502629555453978E-019
  -47.0500000000000         7.520049166985407E-019
  -46.8600000000000         7.498885203563898E-019
  -46.6700000000000         7.451860716907477E-019
  -46.4800000000000         7.401099360895178E-019
  -46.2900000000000         7.371504961111320E-019
  -46.1000000000000         7.383307358134758E-019
  -45.9100000000000         7.445947207238403E-019
  -45.7200000000000         7.555070973539681E-019
  -45.5300000000000         7.693496874572993E-019
  -45.3400000000000         7.835859256349228E-019
  -45.1500000000000         7.955579687617093E-019
  -44.9600000000000         8.032155149225561E-019
  -44.7700000000000         8.056682859250551E-019
  -44.5800000000000         8.034068405704927E-019
  -44.3900000000000         7.981326644429007E-019
  -44.2000000000000         7.922501245242040E-019
  -44.0100000000000         7.881681264636217E-019
  -43.8200000000000         7.876116450445242E-019
  -43.6300000000000         7.911384886475943E-019
  -43.4400000000000         7.979966314884572E-019
  -43.2500000000000         8.063597397582659E-019
  -43.0600000000000         8.138711359381886E-019
  -42.8700000000000         8.183396783253941E-019
  -42.6800000000000         8.183889271279507E-019
  -42.4900000000000         8.138748852955622E-019
  -42.3000000000000         8.059533268636869E-019
  -42.1100000000000         7.967767567409892E-019
  -41.9200000000000         7.889057267309833E-019
  -41.7300000000000         7.846003186919923E-019
  -41.5400000000000         7.851922515050963E-019
  -41.3500000000000         7.907161855223180E-019
  -41.1600000000000         7.999060490779846E-019
  -40.9700000000000         8.105586870454647E-019
  -40.7800000000000         8.201620114969562E-019
  -40.5900000000000         8.266083891399154E-019
  -40.4000000000000         8.287888277277312E-019
  -40.2100000000000         8.268974484058109E-019
  -40.0200000000000         8.223590197250516E-019
  -39.8300000000000         8.174006626362104E-019
  -39.6400000000000         8.143909184677378E-019
  -39.4500000000000         8.151361921176541E-019
  -39.2600000000000         8.203373930313000E-019
  -39.0700000000000         8.293647591995568E-019
  -38.8800000000000         8.404186595596044E-019
  -38.6900000000000         8.510336064615060E-019
  -38.5000000000000         8.587828977461323E-019
  -38.3100000000000         8.619811132366709E-019
  -38.1200000000000         8.601794049166626E-019
  -37.9300000000000         8.543060801422510E-019
  -37.7400000000000         8.464068124215545E-019
  -37.5500000000000         8.390558991884042E-019
  -37.3600000000000         8.346079698421438E-019
  -37.1700000000000         8.345088342457210E-019
  -36.9800000000000         8.388691512413852E-019
  -36.7900000000000         8.464289343788921E-019
  -36.6000000000000         8.549266125277298E-019
  -36.4100000000000         8.617671145695823E-019
  -36.2200000000000         8.647945405652999E-019
  -36.0300000000000         8.629429199946758E-019
  -35.8400000000000         8.565731623545293E-019
  -35.6500000000000         8.473956309792809E-019
  -35.4600000000000         8.379989482475578E-019
  -35.2700000000000         8.311208846731515E-019
  -35.0800000000000         8.288725473364745E-019
  -34.8900000000000         8.321406448204567E-019
  -34.7000000000000         8.403408231725857E-019
  -34.5100000000000         8.515933168500086E-019
  -34.3200000000000         8.632698312917992E-019
  -34.1300000000000         8.727527508073058E-019
  -33.9400000000000         8.781856454877700E-019
  -33.7500000000000         8.789961158008681E-019
  -33.5600000000000         8.760382872082447E-019
  -33.3700000000000         8.713138201719674E-019
  -33.1800000000000         8.673544992827628E-019
  -32.9900000000000         8.664494565540388E-019
  -32.8000000000000         8.699458395585338E-019
  -32.6100000000000         8.778294126803074E-019
  -32.4200000000000         8.887080218258650E-019
  -32.2300000000000         9.002014554766761E-019
  -32.0400000000000         9.096219157583740E-019
  -31.8500000000000         9.147453615085700E-019
  -31.6600000000000         9.144494093954930E-019
  -31.4700000000000         9.090342432330749E-019
  -31.2800000000000         9.001360894138496E-019
  -31.0900000000000         8.902608449543481E-019
  -30.9000000000000         8.820744907919181E-019
  -30.7100000000000         8.776558756370804E-019
  -30.5200000000000         8.779267199668797E-019
  -30.3300000000000         8.824209879774898E-019
  -30.1400000000000         8.894568081436689E-019
  -29.9500000000000         8.966577482359863E-019
  -29.7600000000000         9.016699834614275E-019
  -29.5700000000000         9.028663634377097E-019
  -29.3800000000000         8.998332712729077E-019
  -29.1900000000000         8.934998535776878E-019
  -29.0000000000000         8.858732800019266E-019
  -28.8100000000000         8.794581382566414E-019
  -28.6200000000000         8.765296711473217E-019
  -28.4300000000000         8.784725659834532E-019
  -28.2400000000000         8.853771836554933E-019
  -28.0500000000000         8.960094336186994E-019
  -27.8600000000000         9.081612784084808E-019
  -27.6700000000000         9.192782039787573E-019
  -27.4800000000000         9.271804188183861E-019
  -27.2900000000000         9.306690886400738E-019
  -27.1000000000000         9.298441509478243E-019
  -26.9100000000000         9.260448247161564E-019
  -26.7200000000000         9.214327783531321E-019
  -26.5300000000000         9.183400073789443E-019
  -26.3400000000000         9.185703400948406E-019
  -26.1500000000000         9.228566752420429E-019
  -25.9600000000000         9.306318556485713E-019
  -25.7700000000000         9.401815682246529E-019
  -25.5800000000000         9.491377370680827E-019
  -25.3900000000000         9.551717938325967E-019
  -25.2000000000000         9.566877567075890E-019
  -25.0100000000000         9.533129445625949E-019
  -24.8200000000000         9.460406928241714E-019
  -24.6300000000000         9.369790404361751E-019
  -24.4400000000000         9.287737117864393E-019
  -24.2500000000000         9.238695119442581E-019
  -24.0600000000000         9.238229286993997E-019
  -23.8700000000000         9.288653867598354E-019
  -23.6800000000000         9.378446969336388E-019
  -23.4900000000000         9.485625877965143E-019
  -23.3000000000000         9.584108497684973E-019
  -23.1100000000000         9.651215275310157E-019
  -22.9200000000000         9.674134846189897E-019
  -22.7300000000000         9.653481641926096E-019
  -22.5400000000000         9.602922273529275E-019
  -22.3500000000000         9.544988589166520E-019
  -22.1600000000000         9.504296428520896E-019
  -21.9700000000000         9.500135880387430E-019
  -21.7800000000000         9.540584239559647E-019
  -21.5900000000000         9.619867941905002E-019
  -21.4000000000000         9.719779682253798E-019
  -21.2100000000000         9.814791885205414E-019
  -21.0200000000000         9.879424596684087E-019
  -20.8300000000000         9.895742249846489E-019
  -20.6400000000000         9.858782203028092E-019
  -20.4500000000000         9.778295274469536E-019
  -20.2600000000000         9.676246908844850E-019
  -20.0700000000000         9.580774788539536E-019
  -19.8800000000000         9.518348989399774E-019
  -19.6900000000000         9.506413479146461E-019
  -19.5000000000000         9.548641453468264E-019
  -19.3100000000000         9.634160196883757E-019
  -19.1200000000000         9.740933385604287E-019
  -18.9300000000000         9.842282034195158E-019
  -18.7400000000000         9.914632690302081E-019
  -18.5500000000000         9.944251607709574E-019
  -18.3600000000000         9.931036835880557E-019
  -18.1700000000000         9.888297874512512E-019
  -17.9800000000000         9.838609202213467E-019
  -17.7900000000000         9.806951813343637E-019
  -17.6000000000000         9.813135754301021E-019
  -17.4100000000000         9.865706094539793E-019
  -17.2200000000000         9.959115185371033E-019
  -17.0300000000000         1.007501025717961E-018
  -16.8400000000000         1.018729672808309E-018
  -16.6500000000000         1.026953216308003E-018
  -16.4600000000000         1.030250821355296E-018
  -16.2700000000000         1.027980273607090E-018
  -16.0800000000000         1.020966647333064E-018
  -15.8900000000000         1.011268354939870E-018
  -15.7000000000000         1.001589117698038E-018
  -15.5100000000000         9.945083022098569E-019
  -15.3200000000000         9.917540867034262E-019
  -15.1300000000000         9.937292922350350E-019
  -14.9400000000000         9.994239566011993E-019
  -14.7500000000000         1.006735316772841E-018
  -14.5600000000000         1.013098730070682E-018
  -14.3700000000000         1.016245921613081E-018
  -14.1800000000000         1.014873243916786E-018
  -13.9900000000000         1.009029964444230E-018
  -13.8000000000000         1.000116328198441E-018
  -13.6100000000000         9.904914546473870E-019
  -13.4200000000000         9.828021479725440E-019
  -13.2300000000000         9.792245794895438E-019
  -13.0400000000000         9.808378464286536E-019
  -12.8500000000000         9.873122409720960E-019
  -12.6600000000000         9.970045824353925E-019
  -12.4700000000000         1.007434062449978E-018
  -12.2800000000000         1.016000157518858E-018
  -12.0900000000000         1.020732942970688E-018
  -11.9000000000000         1.020856962647436E-018
  -11.7100000000000         1.017005427816367E-018
  -11.5200000000000         1.011025151823427E-018
  -11.3300000000000         1.005432799948438E-018
  -11.1400000000000         1.002683622542866E-018
  -10.9500000000000         1.004465746166831E-018
  -10.7600000000000         1.011222645964897E-018
  -10.5700000000000         1.022038126551255E-018
  -10.3800000000000         1.034912511337601E-018
  -10.1900000000000         1.047346287060896E-018
  -10.0000000000000         1.057060042353705E-018
  -9.81000000000000         1.062641555899295E-018
  -9.62000000000000         1.063932759800770E-018
  -9.42999999999999         1.062044785043124E-018
  -9.23999999999999         1.058997050205336E-018
  -9.05000000000000         1.057085861376060E-018
  -8.86000000000000         1.058168085890868E-018
  -8.67000000000000         1.063072621240753E-018
  -8.48000000000000         1.071317154842553E-018
  -8.28999999999999         1.081218632233715E-018
  -8.09999999999999         1.090368707619741E-018
  -7.91000000000000         1.096335925281140E-018
  -7.72000000000000         1.097388133938353E-018
  -7.53000000000000         1.093022255115304E-018
  -7.34000000000000         1.084145437647586E-018
  -7.15000000000001         1.072854105484666E-018
  -6.95999999999999         1.061874386656949E-018
  -6.77000000000000         1.053824471128007E-018
  -6.58000000000000         1.050509182331269E-018
  -6.39000000000000         1.052446355395152E-018
  -6.20000000000000         1.058757542618315E-018
  -6.01000000000001         1.067451693071904E-018
  -5.81999999999999         1.076019061172314E-018
  -5.63000000000000         1.082164480907731E-018
  -5.44000000000000         1.084468853820001E-018
  -5.25000000000000         1.082787474187501E-018
  -5.06000000000000         1.078269358917352E-018
  -4.87000000000000         1.072991902892639E-018
  -4.67999999999999         1.069317700703391E-018
  -4.48999999999999         1.069162167264394E-018
  -4.30000000000000         1.073387686003993E-018
  -4.11000000000000         1.081504190152531E-018
  -3.92000000000000         1.091767312063855E-018
  -3.73000000000000         1.101649234681559E-018
  -3.53999999999999         1.108548146393558E-018
  -3.34999999999999         1.110531866900334E-018
  -3.16000000000000         1.106900575182334E-018
  -2.97000000000000         1.098405745599233E-018
  -2.78000000000000         1.087061624121827E-018
  -2.59000000000000         1.075602398597923E-018
  -2.40000000000001         1.066739022173679E-018
  -2.20999999999999         1.062426243827251E-018
  -2.02000000000000         1.063347099366176E-018
  -1.83000000000000         1.068759960692404E-018
  -1.64000000000000         1.076750085602256E-018
  -1.45000000000000         1.084812777637481E-018
  -1.26000000000001         1.090600765604542E-018
  -1.06999999999999         1.092620569786141E-018
 -0.879999999999995         1.090675671509845E-018
 -0.689999999999998         1.085925997590275E-018
 -0.500000000000000         1.080544116286856E-018
 -0.310000000000002         1.077066753846965E-018
 -0.120000000000005         1.077630767084345E-018
  7.000000000000739E-002    1.083318005440992E-018
  0.260000000000005         1.093802428138627E-018
  0.450000000000003         1.107404683543515E-018
  0.640000000000001         1.121540560524292E-018
  0.829999999999998         1.133435046144424E-018
   1.02000000000000         1.140896153352340E-018
   1.21000000000001         1.142924741602705E-018
   1.40000000000001         1.139983738799075E-018
   1.59000000000000         1.133848649322080E-018
   1.78000000000000         1.127082112061627E-018
   1.97000000000000         1.122283776411545E-018
   2.16000000000000         1.121332000557727E-018
   2.34999999999999         1.124836926749272E-018
   2.54000000000001         1.131963991422065E-018
   2.73000000000000         1.140680090486400E-018
   2.92000000000000         1.148352224447821E-018
   3.11000000000000         1.152525779699645E-018
   3.30000000000000         1.151656513984596E-018
   3.48999999999999         1.145582601544330E-018
   3.68000000000001         1.135597534550171E-018
   3.87000000000000         1.124100057100532E-018
   4.06000000000000         1.113920763270335E-018
   4.25000000000000         1.107520726569391E-018
   4.44000000000000         1.106296442252434E-018
   4.63000000000000         1.110194612873695E-018
   4.82000000000001         1.117748821065670E-018
   5.01000000000001         1.126525869047030E-018
   5.20000000000000         1.133849778283585E-018
   5.39000000000000         1.137591179541747E-018
   5.58000000000000         1.136792102422763E-018
   5.77000000000000         1.131945452950283E-018
   5.96000000000001         1.124849546101149E-018
   6.15000000000001         1.118081243574513E-018
   6.34000000000000         1.114241233746664E-018
   6.53000000000000         1.115190405228504E-018