  -105.000000000000         1.628490020805518E-020
  -104.810000000000         4.490451135676501E-020
  -104.620000000000         6.300135936834602E-020
  -104.430000000000         6.717239569589120E-020
  -104.240000000000         5.790336707585562E-020
  -104.050000000000         3.938994008266978E-020
  -103.860000000000         1.829143166335045E-020
  -103.670000000000         1.779597428137210E-021
  -103.480000000000        -4.550132895519823E-021
  -103.290000000000         1.701991581576102E-021
  -103.100000000000         1.905936918937006E-020
  -102.910000000000         4.262196917193216E-020
  -102.720000000000         6.551773867534357E-020
  -102.530000000000         8.092824014545379E-020
  -102.340000000000         8.409929133799351E-020
  -102.150000000000         7.375291547058275E-020
  -101.960000000000         5.249039518101812E-020
  -101.770000000000         2.606779630316776E-020
  -101.580000000000         1.751754884214284E-021
  -101.390000000000        -1.376912340337322E-020
  -101.200000000000        -1.631115857532460E-020
  -101.010000000000        -5.400113036102884E-021
  -100.820000000000         1.559767257501866E-020
  -100.630000000000         4.045559957167818E-020
  -100.440000000000         6.189279962060073E-020
  -100.250000000000         7.368059379885691E-020
  -100.060000000000         7.243870236929633E-020
  -99.8700000000000         5.860229142122399E-020
  -99.6800000000000         3.628200285030965E-020
  -99.4900000000000         1.205919048452055E-020
  -99.3000000000000        -6.934136731683816E-021
  -99.1100000000000        -1.509436786913937E-020
  -98.9200000000000        -9.981205171006775E-021
  -98.7300000000000         6.967052363629794E-021
  -98.5400000000000         3.084683598215984E-020
  -98.3500000000000         5.471167260728732E-020
  -98.1600000000000         7.158961673070302E-020
  -97.9700000000000         7.650828047005467E-020
  -97.7800000000000         6.793837694143211E-020
  -97.5900000000000         4.823687522656560E-020
  -97.4000000000000         2.296222549239335E-020
  -97.2100000000000        -7.386987164964001E-022
  -97.0200000000000        -1.620380019831850E-020
  -96.8300000000000        -1.918789679701896E-020
  -96.6400000000000        -9.092976967840204E-021
  -96.4500000000000         1.086149613350715E-020
  -96.2600000000000         3.457884898924506E-020
  -96.0700000000000         5.486328256772395E-020
  -95.8800000000000         6.551832869992051E-020
  -95.6900000000000         6.315445844667750E-020
  -95.5000000000000         4.817964065661414E-020
  -95.3100000000000         2.468518745598513E-020
  -95.1200000000000        -7.392529648915048E-022
  -94.9300000000000        -2.091721975696743E-020
  -94.7400000000000        -3.016921924852561E-020
  -94.5500000000000        -2.596479289070980E-020
  -94.3600000000000        -9.663218677876326E-021
  -94.1700000000000         1.387392429200931E-020
  -93.9800000000000         3.768859998239071E-020
  -93.7900000000000         5.474455116831693E-020
  -93.6000000000000         5.997215760280380E-020
  -93.4100000000000         5.174458945695278E-020
  -93.2200000000000         3.235473813386227E-020
  -93.0300000000000         7.353726181648819E-021
  -92.8400000000000        -1.605638231287320E-020
  -92.6500000000000        -3.110851535243550E-020
  -92.4600000000000        -3.343053798487622E-020
  -92.2700000000000        -2.231269745488132E-020
  -92.0800000000000        -9.171561323153218E-022
  -91.8900000000000         2.463041161849934E-020
  -91.7000000000000         4.700487984850923E-020
  -91.5100000000000         5.979175861387980E-020
  -91.3200000000000         5.933258466415097E-020
  -91.1300000000000         4.577048938390210E-020
  -90.9400000000000         2.299260640049563E-020
  -90.7500000000000        -2.512953009423880E-021
  -90.5600000000000        -2.355156701978886E-020
  -90.3700000000000        -3.431555552586606E-020
  -90.1800000000000        -3.206737198311854E-020
  -89.9900000000000        -1.792408262555457E-020
  -89.8000000000000         3.483147274895967E-021
  -89.6100000000000         2.537412529326905E-020
  -89.4200000000000         4.081210674272042E-020
  -89.2300000000000         4.474494062205547E-020
  -89.0400000000000         3.550174327251894E-020
  -88.8500000000000         1.530911639112563E-020
  -88.6600000000000        -1.032512187326113E-020
  -88.4700000000000        -3.418381057243328E-020
  -88.2800000000000        -4.941296686162233E-020
  -88.0900000000000        -5.149449325988692E-020
  -87.9000000000000        -3.954849072476816E-020
  -87.7100000000000        -1.659039950835832E-020
  -87.5200000000000         1.132853280778283E-020
  -87.3300000000000         3.684700508813884E-020
  -87.1400000000000         5.338699383332282E-020
  -86.9500000000000         5.701169608667322E-020
  -86.7600000000000         4.751384552649424E-020
  -86.5700000000000         2.842253321343321E-020
  -86.3800000000000         5.929594986728593E-021
  -86.1900000000000        -1.294978414847657E-020
  -86.0000000000000        -2.244480740688208E-020
  -85.8100000000000        -1.972163587213238E-020
  -85.6200000000000        -5.707848184336998E-021
  -85.4300000000000         1.518962011909775E-020
  -85.2400000000000         3.638825147152856E-020
  -85.0500000000000         5.107359839507084E-020
  -84.8600000000000         5.421626155924442E-020
  -84.6700000000000         4.407569076318069E-020
  -84.4800000000000         2.275348360486686E-020
  -84.2900000000000        -4.366640548567262E-021
  -84.1000000000000        -3.013383376046205E-020
  -83.9100000000000        -4.766529044604117E-020
  -83.7200000000000        -5.231444302550655E-020
  -83.5300000000000        -4.300183190019098E-020
  -83.3400000000000        -2.252122097640740E-020
  -83.1500000000000         3.269455530541581E-021
  -82.9600000000000         2.713839781735767E-020
  -82.7700000000000         4.256148888028361E-020
  -82.5800000000000         4.559225832202519E-020
  -82.3900000000000         3.597989090210101E-020
  -82.2000000000000         1.721324146301825E-020
  -82.0100000000000        -4.520662350850096E-021
  -81.8200000000000        -2.216153657819990E-020
  -81.6300000000000        -2.985510783319962E-020
  -81.4400000000000        -2.468289230643646E-020
  -81.2500000000000        -7.538623982346552E-021
  -81.0600000000000         1.710568556673454E-020
  -80.8700000000000         4.247845425542503E-020
  -80.6800000000000         6.146198701993468E-020
  -80.4900000000000         6.865366567732363E-020
  -80.3000000000000         6.193608827454555E-020
  -80.1100000000000         4.309999202291869E-020
  -79.9200000000000         1.733875304422548E-020
  -79.7300000000000        -8.239763803016029E-021
  -79.5400000000000        -2.665390939211101E-020
  -79.3500000000000        -3.305140518526409E-020
  -79.1600000000000        -2.609493706292948E-020
  -78.9700000000000        -8.327864323070189E-021
  -78.7800000000000         1.458719631137919E-020
  -78.5900000000000         3.553626829754835E-020
  -78.4000000000000         4.804269847205250E-020
  -78.2100000000000         4.816732244236036E-020
  -78.0200000000000         3.566581383275070E-020
  -77.8300000000000         1.406622642106870E-020
  -77.6400000000000        -1.035528657952549E-020
  -77.4500000000000        -3.040256226133363E-020
  -77.2600000000000        -4.006081022010030E-020
  -77.0700000000000        -3.626185488416511E-020
  -76.8800000000000        -1.980030073049518E-020
  -76.6900000000000         4.868044240547389E-021
  -76.5000000000000         3.089144110310529E-020
  -76.3100000000000         5.098827557692470E-020
  -76.1200000000000         5.954559345110728E-020
  -75.9300000000000         5.424090533814218E-020
  -75.7400000000000         3.671517960805171E-020
  -75.5500000000000         1.210089771286366E-020
  -75.3600000000000        -1.245730148047042E-020
  -75.1700000000000        -2.985915380090424E-020
  -74.9800000000000        -3.508637968012738E-020
  -74.7900000000000        -2.663354596313949E-020
  -74.6000000000000        -6.922399883852674E-021
  -74.4100000000000         1.841537631691169E-020
  -74.2200000000000         4.217593310588094E-020
  -74.0300000000000         5.766611956906178E-020
  -73.8400000000000         6.062867906526618E-020
  -73.6500000000000         5.045335058234426E-020
  -73.4600000000000         3.032479044276097E-020
  -73.2700000000000         6.267190486930682E-021
  -73.0800000000000        -1.463359271931918E-020
  -72.8900000000000        -2.631049073581865E-020
  -72.7000000000000        -2.549113086847675E-020
  -72.5100000000000        -1.265200007790403E-020
  -72.3200000000000         8.126055299827801E-021
  -72.1300000000000         3.035780070661262E-020
  -71.9400000000000         4.705903252584668E-020
  -71.7500000000000         5.280250742410017E-020
  -71.5600000000000         4.532548071807818E-020
  -71.3700000000000         2.621986151009215E-020
  -71.1800000000000         5.026284578032712E-022
  -70.9900000000000        -2.480977178690535E-020
  -70.8000000000000        -4.270926407635697E-020
  -70.6100000000000        -4.820371422273793E-020
  -70.4200000000000        -3.974349792871248E-020
  -70.2300000000000        -1.965685748566677E-020
  -70.0400000000000         6.528203096907710E-021
  -69.8500000000000         3.167660637525125E-020
  -69.6600000000000         4.909230693143217E-020
  -69.4700000000000         5.442721597277758E-020
  -69.2800000000000         4.690216475948682E-020
  -69.0900000000000         2.948732415726362E-020
  -68.9000000000000         7.990388468078529E-021
  -68.7100000000000        -1.068145183897817E-020
  -68.5200000000000        -2.057745250957699E-020
  -68.3300000000000        -1.847401535757012E-020
  -68.1400000000000        -4.839212350028806E-021
  -67.9500000000000         1.629336492828165E-020
  -67.7600000000000         3.850501408295572E-020
  -67.5700000000000         5.488039931209854E-020
  -67.3800000000000         6.005111996445674E-020
  -67.1900000000000         5.179750224585146E-020
  -67.0000000000000         3.174159070158851E-020
  -66.8100000000000         4.928323350578692E-021
  -66.6200000000000        -2.158672700031946E-020
  -66.4300000000000        -4.073760591468655E-020
  -66.2400000000000        -4.745988840860338E-020
  -66.0500000000000        -4.013282723237977E-020
  -65.8600000000000        -2.103378424276219E-020
  -65.6700000000000         4.327452572762778E-021
  -65.4800000000000         2.880215647862005E-020
  -65.2900000000000         4.566258692084479E-020
  -65.1000000000000         5.053191694094454E-020
  -64.9100000000000         4.262565882201932E-020
  -64.7200000000000         2.494579171079562E-020
  -64.5300000000000         3.372432321452455E-021
  -64.3400000000000        -1.508229475477506E-020
  -64.1500000000000        -2.435010678827585E-020
  -63.9600000000000        -2.110782276867209E-020
  -63.7700000000000        -5.779048018243776E-021
  -63.5800000000000         1.755648682586502E-020
  -63.3900000000000         4.232094995506706E-020
  -63.2000000000000         6.132814502973779E-020
  -63.0100000000000         6.885669161130324E-020
  -62.8200000000000         6.230610728226635E-020
  -62.6300000000000         4.295790016683643E-020
  -62.4400000000000         1.562395871125283E-020
  -62.2500000000000        -1.271470738307021E-020
  -62.0600000000000        -3.488688552288703E-020
  -61.8700000000000        -4.555992426980640E-020
  -61.6800000000000        -4.273650069967678E-020
  -61.4900000000000        -2.828923808163639E-020
  -61.3000000000000        -7.378463689914192E-021
  -61.1100000000000         1.307986050906438E-020
  -60.9200000000000         2.645333108353910E-020
  -60.7300000000000         2.834800335587337E-020
  -60.5400000000000         1.791049190938233E-020
  -60.3500000000000        -1.902631599094286E-021
  -60.1600000000000        -2.516872996222649E-020
  -59.9700000000000        -4.471411929733675E-020
  -59.7800000000000        -5.420552386419597E-020
  -59.5900000000000        -5.001377018418462E-020
  -59.4000000000000        -3.231010109165042E-020
  -59.2100000000000        -5.075003242681382E-021
  -59.0200000000000         2.498911125154460E-020
  -58.8300000000000         5.033514479146174E-020
  -58.6400000000000         6.470348592745752E-020
  -58.4500000000000         6.489756499539642E-020
  -58.2600000000000         5.169047305304914E-020
  -58.0700000000000         2.959834051611999E-020
  -57.8800000000000         5.582029811259770E-021
  -57.6900000000000        -1.295210396015761E-020
  -57.5000000000000        -2.027896714688148E-020
  -57.3100000000000        -1.399792590422591E-020
  -57.1200000000000         4.280816698102482E-021
  -56.9300000000000         2.940611032052027E-020
  -56.7400000000000         5.417914845613858E-020
  -56.5500000000000         7.144095877285751E-020
  -56.3600000000000         7.615024498648797E-020
  -56.1700000000000         6.684706776896558E-020
  -55.9800000000000         4.607358458977481E-020
  -55.7900000000000         1.962574528338610E-020
  -55.6000000000000        -5.148153397418718E-021
  -55.4100000000000        -2.150527543966805E-020
  -55.2200000000000        -2.528944966719717E-020
  -55.0300000000000        -1.615246133844408E-020
  -54.8400000000000         2.346465788280443E-021
  -54.6500000000000         2.379667181999724E-020
  -54.4600000000000         4.084218410437526E-020
  -54.2700000000000         4.738145051795157E-020
  -54.0800000000000         4.041411411243804E-020
  -53.8900000000000         2.098657100025856E-020
  -53.7000000000000        -6.051663001904338E-021
  -53.5100000000000        -3.342023565954278E-020
  -53.3200000000000        -5.351331719677070E-020
  -53.1300000000000        -6.062147795803465E-020
  -52.9400000000000        -5.261462499698992E-020
  -52.7500000000000        -3.158678113323111E-020
  -52.5600000000000        -3.268629169237524E-021
  -52.3700000000000         2.462299750978002E-020
  -52.1800000000000         4.461572471707312E-020
  -51.9900000000000         5.163779209911802E-020
  -51.8000000000000         4.446644080619772E-020
  -51.6100000000000         2.604318662944539E-020
  -51.4200000000000         2.564270268762562E-021
  -51.2300000000000        -1.838422843079446E-020
  -51.0400000000000        -3.009496019831897E-020
  -50.8500000000000        -2.874047849563451E-020
  -50.6600000000000        -1.451513454827207E-020
  -50.4700000000000         8.419243442562391E-021
  -50.2800000000000         3.316565461053807E-020
  -50.0900000000000         5.213481866895920E-020
  -49.9000000000000         5.929288787426921E-020
  -49.7100000000000         5.195112924649900E-020
  -49.5200000000000         3.157368405372718E-020
  -49.3300000000000         3.370896931946412E-021
  -49.1400000000000        -2.519729575907264E-020
  -48.9500000000000        -4.656512406037498E-020
  -48.7600000000000        -5.522212718137955E-020
  -48.5700000000000        -4.926092549353243E-020
  -48.3800000000000        -3.086578768997931E-020
  -48.1900000000000        -5.611284167283730E-021
  -48.0000000000000         1.920928038465798E-020
  -47.8100000000000         3.672506796671218E-020
  -47.6200000000000         4.246856547291314E-020
  -47.4300000000000         3.562299221841876E-020
  -47.2400000000000         1.918543205478854E-020
  -47.0500000000000        -9.853557605473498E-022
  -46.8600000000000        -1.794432896787671E-020
  -46.6700000000000        -2.573311649176907E-020
  -46.4800000000000        -2.114625152530483E-020
  -46.2900000000000        -4.682105989584255E-021
  -46.1000000000000         1.959006477028576E-020
  -45.9100000000000         4.520095142234878E-020
  -45.7200000000000         6.514464929857631E-020
  -45.5300000000000         7.389165337093303E-020
  -45.3400000000000         6.896916132739393E-020
  -45.1500000000000         5.165681391482480E-020
  -44.9600000000000         2.660609779827970E-020
  -44.7700000000000         5.034885472016718E-022
  -44.5800000000000        -1.983058284777553E-020
  -44.3900000000000        -2.935977906918104E-020
  -44.2000000000000        -2.622246836652336E-020
  -44.0100000000000        -1.220652494652577E-020
  -43.8200000000000         7.816742589401029E-021
  -43.6300000000000         2.732891169456079E-020
  -43.4400000000000         4.005592397545249E-020
  -43.2500000000000         4.177501170981987E-020
  -43.0600000000000         3.152615412402159E-020
  -42.8700000000000         1.188892418358461E-020
  -42.6800000000000        -1.174945534166375E-020
  -42.4900000000000        -3.272526385332681E-020
  -42.3000000000000        -4.499507514361291E-020
  -42.1100000000000        -4.486210561237773E-020
  -41.9200000000000        -3.204325802367664E-020
  -41.7300000000000        -9.772303226018596E-021
  -41.5400000000000         1.609438639559372E-020
  -41.3500000000000         3.872051992865325E-020
  -41.1600000000000         5.221710927143892E-020
  -40.9700000000000         5.330516426045087E-020
  -40.7800000000000         4.223605814329008E-020
  -40.5900000000000         2.270214797572416E-020
  -40.4000000000000         7.606822786732527E-022
  -40.2100000000000        -1.692054737547322E-020
  -40.0200000000000        -2.499154149894941E-020
  -39.8300000000000        -2.096868751924669E-020
  -39.6400000000000        -5.959132943568411E-021
  -39.4500000000000         1.564861727253229E-020
  -39.2600000000000         3.744359758395382E-020
  -39.0700000000000         5.284543823237939E-020
  -38.8800000000000         5.702328226828863E-020
  -38.6900000000000         4.832694259612709E-020
  -38.5000000000000         2.880922835569625E-020
  -38.3100000000000         3.675018869815980E-021
  -38.1200000000000        -2.019745551163151E-020
  -37.9300000000000        -3.624366446081054E-020
  -37.7400000000000        -4.013205514170164E-020
  -37.5500000000000        -3.104958573529090E-020
  -37.3600000000000        -1.196596037548098E-020
  -37.1700000000000         1.121363526116135E-020
  -36.9800000000000         3.136868456097578E-020
  -36.7900000000000         4.225647706932777E-020
  -36.6000000000000         4.036363208076392E-020
  -36.4100000000000         2.596823167781584E-020
  -36.2200000000000         3.094224802877006E-021
  -36.0300000000000        -2.163520581781726E-020
  -35.8400000000000        -4.091391846156496E-020
  -35.6500000000000        -4.887951080781978E-020
  -35.4600000000000        -4.282827975297246E-020
  -35.2700000000000        -2.401684450284975E-020
  -35.0800000000000         2.683579335014048E-021
  -34.8900000000000         3.017967325292388E-020
  -34.7000000000000         5.119124218303061E-020
  -34.5100000000000         6.033949505056141E-020
  -34.3200000000000         5.568272094025638E-020
  -34.1300000000000         3.925214262097612E-020
  -33.9400000000000         1.642990787779563E-020
  -33.7500000000000        -5.650942840856320E-021
  -33.5600000000000        -2.021656744447595E-020
  -33.3700000000000        -2.285207348811052E-020
  -33.1800000000000        -1.280095688928566E-020
  -32.9900000000000         6.819316515186790E-021
  -32.8000000000000         2.994725296386498E-020
  -32.6100000000000         4.937416386139783E-020
  -32.4200000000000         5.887379683254850E-020
  -32.2300000000000         5.503656298028712E-020
  -32.0400000000000         3.827343692603757E-020
  -31.8500000000000         1.270393062399788E-020
  -31.6600000000000        -1.502925861972445E-020
  -31.4700000000000        -3.766663153064017E-020
  -31.2800000000000        -4.940367968085954E-020
  -31.0900000000000        -4.753052268929401E-020
  -30.9000000000000        -3.317097188754642E-020
  -30.7100000000000        -1.091518638168051E-020
  -30.5200000000000         1.253976931686557E-020
  -30.3300000000000         3.034233730734047E-020
  -30.1400000000000         3.746515857499168E-020
  -29.9500000000000         3.213993504673314E-020
  -29.7600000000000         1.633846105716675E-020
  -29.5700000000000        -4.833453127684034E-021
  -29.3800000000000        -2.464871015795210E-020
  -29.1900000000000        -3.673681913416086E-020
  -29.0000000000000        -3.695188242380752E-020
  -28.8100000000000        -2.458844435422339E-020
  -28.6200000000000        -2.593611245232103E-021
  -28.4300000000000         2.328292765308303E-020
  -28.2400000000000         4.614965167170054E-020
  -28.0500000000000         5.995814408680958E-020
  -27.8600000000000         6.123360621067919E-020
  -27.6700000000000         5.005036949975048E-020
  -27.4800000000000         2.997601226662227E-020
  -27.2900000000000         7.009821393258486E-021
  -27.1000000000000        -1.216911558925656E-020
  -26.9100000000000        -2.213519103866387E-020
  -26.7200000000000        -2.027583509792618E-020
  -26.5300000000000        -7.532732258661181E-021
  -26.3400000000000         1.188596806078526E-020
  -26.1500000000000         3.174083040455364E-020
  -25.9600000000000         4.559182363844797E-020
  -25.7700000000000         4.869968794608305E-020
  -25.5800000000000         3.944796212616739E-020
  -25.3900000000000         1.986847273554324E-020
  -25.2000000000000        -4.891708605267395E-021
  -25.0100000000000        -2.801858916688897E-020
  -24.8200000000000        -4.298395822742086E-020
  -24.6300000000000        -4.543942378350559E-020
  -24.4400000000000        -3.449875918925541E-020
  -24.2500000000000        -1.302837654484061E-020
  -24.0600000000000         1.314703898836155E-020
  -23.8700000000000         3.689939009010197E-020
  -23.6800000000000         5.183473957020747E-020
  -23.4900000000000         5.412145482857540E-020
  -23.3000000000000         4.357615719605641E-020
  -23.1100000000000         2.369114434340086E-020
  -22.9200000000000         5.964122673517963E-022
  -22.7300000000000        -1.874015070016366E-020
  -22.5400000000000        -2.855080335778218E-020
  -22.3500000000000        -2.595416973904695E-020
  -22.1600000000000        -1.180334441555041E-020
  -21.9700000000000         9.549423957566862E-021
  -21.7800000000000         3.150843724146677E-020
  -21.5900000000000         4.715669544582864E-020
  -21.4000000000000         5.129577455273992E-020
  -21.2100000000000         4.201181958691851E-020
  -21.0200000000000         2.130272753712529E-020
  -20.8300000000000        -5.432208856839797E-021
  -20.6400000000000        -3.090709878340860E-020
  -20.4500000000000        -4.803560373243304E-020
  -20.2600000000000        -5.197907524473712E-020
  -20.0700000000000        -4.155208406449317E-020
  -19.8800000000000        -1.956876562975527E-020
  -19.6900000000000         7.971701070655759E-021
  -19.5000000000000         3.361755729928800E-020
  -19.3100000000000         5.060314003579543E-020
  -19.1200000000000         5.476890455563178E-020
  -18.9300000000000         4.571034334152392E-020
  -18.7400000000000         2.683409829326728E-020
  -18.5500000000000         4.316880415389577E-021
  -18.3600000000000        -1.472466663080600E-020
  -18.1700000000000        -2.432306149134024E-020
  -17.9800000000000        -2.140685820233574E-020
  -17.7900000000000        -6.703538924328646E-021
  -17.6000000000000         1.546165294635613E-020
  -17.4100000000000         3.841563975526731E-020
  -17.2200000000000         5.508004279995157E-020
  -17.0300000000000         6.004777439790933E-020
  -16.8400000000000         5.118997523695293E-020
  -16.6500000000000         3.031881196575367E-020
  -16.4600000000000         2.702782366018425E-021
  -16.2700000000000        -2.443203690060885E-020
  -16.0800000000000        -4.397873333478866E-020
  -15.8900000000000        -5.099349903954142E-020
  -15.7000000000000        -4.410540192108713E-020
  -15.5100000000000        -2.588166051213702E-020
  -15.3200000000000        -2.050026249531669E-021
  -15.1300000000000         2.018386815203439E-020
  -14.9400000000000         3.422638036264871E-020
  -14.7500000000000         3.598624597232342E-020
  -14.5600000000000         2.502790747431381E-020
  -14.3700000000000         4.669773279222239E-021
  -14.1800000000000        -1.898936097066002E-020
  -13.9900000000000        -3.883398873248806E-020
  -13.8000000000000        -4.878555209695442E-020
  -13.6100000000000        -4.556363217341280E-020
  -13.4200000000000        -2.964967146800805E-020
  -13.2300000000000        -5.169214589184990E-021
  -13.0400000000000         2.128331969092611E-020
  -12.8500000000000         4.254404212299641E-020
  -12.6600000000000         5.295216178389915E-020
  -12.4700000000000         4.998835548280389E-020
  -12.2800000000000         3.499705400186813E-020
  -12.0900000000000         1.278106612783681E-020
  -11.9000000000000        -9.809250406107673E-021
  -11.7100000000000        -2.587318637897171E-020
  -11.5200000000000        -3.045428386297136E-020
  -11.3300000000000        -2.195139284358194E-020
  -11.1400000000000        -2.544878372649778E-021
  -10.9500000000000         2.247111426850211E-020
  -10.7600000000000         4.624310627479925E-020
  -10.5700000000000         6.234175098079951E-020
  -10.3800000000000         6.660042239379292E-020
  -10.1900000000000         5.828297635816784E-020
  -10.0000000000000         4.025070746947146E-020
  -9.81000000000000         1.808609854491033E-020
  -9.62000000000000        -1.570449621503001E-021
  -9.42999999999999        -1.298870946166960E-020
  -9.23999999999999        -1.304979912385143E-020
  -9.05000000000000        -2.181485038072979E-021
  -8.86000000000000         1.575463122287653E-020
  -8.67000000000000         3.460281303075045E-020
  -8.48000000000000         4.775266050779485E-020
  -8.28999999999999         5.013566520312556E-020
  -8.09999999999999         3.978235012480278E-020
  -7.91000000000000         1.847217452266473E-020
  -7.72000000000000        -8.720184646938000E-021
  -7.53000000000000        -3.484920076517786E-020
  -7.34000000000000        -5.307407797536335E-020
  -7.15000000000001        -5.860802892273034E-020
  -6.95999999999999        -5.007798514910241E-020
  -6.77000000000000        -2.990843243599725E-020
  -6.58000000000000        -3.626620349618074E-021
  -6.39000000000000         2.170621128169907E-020
  -6.20000000000000         3.948773072829589E-020
  -6.01000000000001         4.542504882631260E-020
  -5.81999999999999         3.871786272585840E-020
  -5.63000000000000         2.223629644128073E-020
  -5.44000000000000         1.639455999394612E-021
  -5.25000000000000        -1.631446027012632E-020
  -5.06000000000000        -2.577781919700424E-020
  -4.87000000000000        -2.355699529989745E-020
  -4.67999999999999        -1.007825165327658E-020
  -4.48999999999999         1.071048763316212E-020
  -4.30000000000000         3.247900760036042E-020
  -4.11000000000000         4.836743699963703E-020
  -3.92000000000000         5.301327507639069E-020
  -3.73000000000000         4.416009034132381E-020
  -3.53999999999999         2.337534794414245E-020
  -3.34999999999999        -4.335713713749375E-021
  -3.16000000000000        -3.191084552921390E-020
  -2.97000000000000        -5.220776594869994E-020
  -2.78000000000000        -6.000880789818429E-020
  -2.59000000000000        -5.348053144249492E-020
  -2.40000000000001        -3.467409150176783E-020
  -2.20999999999999        -8.926112651325717E-021
  -2.02000000000000         1.666767596093122E-020
  -1.83000000000000         3.527101641073758E-020
  -1.64000000000000         4.224425511862311E-020
  -1.45000000000000         3.644915790075105E-020
  -1.26000000000001         2.054682144384392E-020
  -1.06999999999999         1.971208034316358E-022
 -0.879999999999995        -1.761729525228056E-020
 -0.689999999999998        -2.666198742891982E-020
 -0.500000000000000        -2.331379932450189E-020
 -0.310000000000002        -7.666708427658946E-021
 -0.120000000000005         1.645066208954633E-020
  7.000000000000739E-002    4.255700277442533E-020
  0.260000000000005         6.338599500664056E-020
  0.450000000000003         7.299508522543373E-020
  0.640000000000001         6.850095421291794E-020
  0.829999999999998         5.093577060012666E-020
   1.02000000000000         2.497288278495059E-020
   1.21000000000001        -2.401090929644307E-021
   1.40000000000001        -2.388445337006765E-020
   1.59000000000000        -3.395164930907393E-020
   1.78000000000000        -3.043387608035456E-020
   1.97000000000000        -1.513187237868435E-020
   2.16000000000000         6.718816678230563E-021
   2.34999999999999         2.797892332720576E-020
   2.54000000000001         4.169253615033616E-020
   2.73000000000000         4.312692901514701E-020
   2.92000000000000         3.117286635064341E-020
   3.11000000000000         8.695498780987226E-021
   3.30000000000000        -1.827152146135490E-020
   3.48999999999999        -4.226047219585343E-020
   3.68000000000001        -5.653301169420452E-020
   3.87000000000000        -5.704413494693891E-020
   4.06000000000000        -4.362981718721153E-020
   4.25000000000000        -2.006400267868552E-020
   4.44000000000000         7.036542906062059E-021
   4.63000000000000         3.013783898219926E-020
   4.82000000000001         4.297698992983017E-020
   5.01000000000001         4.237094004714658E-020
   5.20000000000000         2.911923814399086E-020
   5.39000000000000         7.742958260993740E-021
   5.58000000000000        -1.485717524069461E-020
   5.77000000000000        -3.142777979372202E-020
   5.96000000000001        -3.648476151518491E-020
   6.15000000000001        -2.791661145917059E-020
   6.34000000000000        -7.607469331601087E-021
   6.53000000000000         1.909768087452146E-020