  -105.000000000000         0.000000000000000E+000
  -104.810000000000         1.796906172131326E-020
  -104.620000000000         4.010512790063441E-020
  -104.430000000000         5.185789438438625E-020
  -104.240000000000         5.118945818815407E-020
  -104.050000000000         4.973821789437110E-020
  -103.860000000000         6.091044332208826E-020
  -103.670000000000         8.638006140654032E-020
  -103.480000000000         1.139549708238942E-019
  -103.290000000000         1.288820027773694E-019
  -103.100000000000         1.277962404800083E-019
  -102.910000000000         1.219590408797394E-019
  -102.720000000000         1.266416910994237E-019
  -102.530000000000         1.467444098244667E-019
  -102.340000000000         1.723328753312769E-019
  -102.150000000000         1.883017992634347E-019
  -101.960000000000         1.889057904582899E-019
  -101.770000000000         1.832802797266481E-019
  -101.580000000000         1.866905890465377E-019
  -101.390000000000         2.058779583553744E-019
  -101.200000000000         2.325202335344177E-019
  -101.010000000000         2.510801008098839E-019
  -100.820000000000         2.535547253592546E-019
  -100.630000000000         2.470324507214448E-019
  -100.440000000000         2.468376630988759E-019
  -100.250000000000         2.618188295947966E-019
  -100.060000000000         2.858376064410791E-019
  -99.8700000000000         3.035984088762577E-019
  -99.6800000000000         3.052699816206429E-019
  -99.4900000000000         2.959407179664515E-019
  -99.3000000000000         2.908540600620211E-019
  -99.1100000000000         3.009397574459749E-019
  -98.9200000000000         3.224366191621630E-019
  -98.7300000000000         3.405074000847130E-019
  -98.5400000000000         3.433975481744071E-019
  -98.3500000000000         3.336453428226698E-019
  -98.1600000000000         3.256789219667529E-019
  -97.9700000000000         3.321101871165079E-019
  -97.7800000000000         3.517916580834404E-019
  -97.5900000000000         3.710035733908694E-019
  -97.4000000000000         3.765997162696392E-019
  -97.2100000000000         3.685207556510867E-019
  -97.0200000000000         3.597037987181979E-019
  -96.8300000000000         3.634893401853869E-019
  -96.6400000000000         3.805949548777730E-019
  -96.4500000000000         3.981480446575557E-019
  -96.2600000000000         4.017635336641652E-019
  -96.0700000000000         3.892036297719678E-019
  -95.8800000000000         3.726273602151024E-019
  -95.6900000000000         3.672913455041368E-019
  -95.5000000000000         3.774632490524822E-019
  -95.3100000000000         3.929358477242932E-019
  -95.1200000000000         3.993617469044285E-019
  -94.9300000000000         3.924029695969418E-019
  -94.7400000000000         3.820709196351942E-019
  -94.5500000000000         3.830614891814207E-019
  -94.3600000000000         4.003281473163391E-019
  -94.1700000000000         4.237455741592130E-019
  -93.9800000000000         4.370918466482273E-019
  -93.7900000000000         4.329210180958711E-019
  -93.6000000000000         4.192367561734638E-019
  -93.4100000000000         4.116513844847077E-019
  -93.2200000000000         4.185282733597540E-019
  -93.0300000000000         4.332631188631536E-019
  -92.8400000000000         4.410085251028027E-019
  -92.6500000000000         4.333490178434803E-019
  -92.4600000000000         4.168535924268958E-019
  -92.2700000000000         4.072771704212897E-019
  -92.0800000000000         4.148790952879572E-019
  -91.8900000000000         4.348283296852515E-019
  -91.7000000000000         4.518441722866565E-019
  -91.5100000000000         4.546509464199819E-019
  -91.3200000000000         4.464678729740460E-019
  -91.1300000000000         4.415624621875209E-019
  -90.9400000000000         4.512153041764730E-019
  -90.7500000000000         4.725431987146409E-019
  -90.5600000000000         4.908875546562428E-019
  -90.3700000000000         4.935303041977530E-019
  -90.1800000000000         4.816875193400562E-019
  -89.9900000000000         4.693581098282643E-019
  -89.8000000000000         4.701324647201154E-019
  -89.6100000000000         4.845359977401160E-019
  -89.4200000000000         4.999306705377153E-019
  -89.2300000000000         5.029705494529242E-019
  -89.0400000000000         4.926288745896733E-019
  -88.8500000000000         4.813155554796562E-019
  -88.6600000000000         4.830205748936431E-019
  -88.4700000000000         4.998388006782017E-019
  -88.2800000000000         5.198061694484850E-019
  -88.0900000000000         5.281846897682959E-019
  -87.9000000000000         5.214603010569983E-019
  -87.7100000000000         5.106822853935410E-019
  -87.5200000000000         5.109264050833820E-019
  -87.3300000000000         5.269045303076496E-019
  -87.1400000000000         5.484162496870601E-019
  -86.9500000000000         5.599526863292222E-019
  -86.7600000000000         5.552860778343415E-019
  -86.5700000000000         5.431515033185811E-019
  -86.3800000000000         5.386516229999942E-019
  -86.1900000000000         5.486660601901115E-019
  -86.0000000000000         5.652783667373968E-019
  -85.8100000000000         5.735417275474826E-019
  -85.6200000000000         5.661459175379996E-019
  -85.4300000000000         5.509048958727676E-019
  -85.2400000000000         5.438121176916368E-019
  -85.0500000000000         5.541767657823340E-019
  -84.8600000000000         5.759277853534125E-019
  -84.6700000000000         5.933390013281890E-019
  -84.4800000000000         5.957295347626534E-019
  -84.2900000000000         5.871717529767462E-019
  -84.1000000000000         5.820341828136314E-019
  -83.9100000000000         5.907313259667198E-019
  -83.7200000000000         6.093958830608299E-019
  -83.5300000000000         6.234034744473470E-019
  -83.3400000000000         6.214070217077090E-019
  -83.1500000000000         6.064640143510734E-019
  -82.9600000000000         5.935707518085466E-019
  -82.7700000000000         5.958579068282212E-019
  -82.5800000000000         6.125295520160229E-019
  -82.3900000000000         6.299969098356048E-019
  -82.2000000000000         6.350845056533024E-019
  -82.0100000000000         6.276689194660850E-019
  -81.8200000000000         6.206686062854599E-019
  -81.6300000000000         6.273999414541842E-019
  -81.4400000000000         6.483845485650604E-019
  -81.2500000000000         6.702317182157948E-019
  -81.0600000000000         6.777341645421166E-019
  -80.8700000000000         6.677454504500028E-019
  -80.6800000000000         6.517189456159999E-019
  -80.4900000000000         6.445950453401330E-019
  -80.3000000000000         6.507162220630184E-019
  -80.1100000000000         6.602159541545575E-019
  -79.9200000000000         6.592441531251576E-019
  -79.7300000000000         6.441313287846609E-019
  -79.5400000000000         6.258268783960243E-019
  -79.3500000000000         6.202388335159648E-019
  -79.1600000000000         6.335758234491485E-019
  -78.9700000000000         6.566069886573612E-019
  -78.7800000000000         6.733082738020936E-019
  -78.5900000000000         6.756871519122151E-019
  -78.4000000000000         6.707273431862855E-019
  -78.2100000000000         6.729649249565278E-019
  -78.0200000000000         6.899408975299334E-019
  -77.8300000000000         7.145292110669006E-019
  -77.6400000000000         7.314895664131437E-019
  -77.4500000000000         7.319381493683239E-019
  -77.2600000000000         7.218249985001324E-019
  -77.0700000000000         7.162245254075466E-019
  -76.8800000000000         7.248416522193554E-019
  -76.6900000000000         7.426051725753220E-019
  -76.5000000000000         7.544137290773142E-019
  -76.3100000000000         7.495812807733451E-019
  -76.1200000000000         7.322347001819225E-019
  -75.9300000000000         7.177400819238844E-019
  -75.7400000000000         7.185213521644054E-019
  -75.5500000000000         7.327190871056772E-019
  -75.3600000000000         7.464229838003310E-019
  -75.1700000000000         7.472763895401408E-019
  -74.9800000000000         7.364098125275642E-019
  -74.7900000000000         7.272696814353385E-019
  -74.6000000000000         7.324590841738073E-019
  -74.4100000000000         7.512062553191344E-019
  -74.2200000000000         7.695196119737785E-019
  -74.0300000000000         7.730049317024766E-019
  -73.8400000000000         7.602409821883150E-019
  -73.6500000000000         7.440396027684496E-019
  -73.4600000000000         7.394033771825761E-019
  -73.2700000000000         7.496221005073191E-019
  -73.0800000000000         7.636917491020668E-019
  -72.8900000000000         7.674179628800494E-019
  -72.7000000000000         7.575063278486728E-019
  -72.5100000000000         7.451238329073682E-019
  -72.3200000000000         7.455071556999236E-019
  -72.1300000000000         7.635190739150967E-019
  -71.9400000000000         7.889029919103607E-019
  -71.7500000000000         8.057297486914730E-019
  -71.5600000000000         8.070179413654901E-019
  -71.3700000000000         8.006188505485911E-019
  -71.1800000000000         8.008522180566508E-019
  -70.9900000000000         8.140355626823581E-019
  -70.8000000000000         8.318914117289459E-019
  -70.6100000000000         8.392474726635824E-019
  -70.4200000000000         8.287237514933127E-019
  -70.2300000000000         8.083587353069021E-019
  -70.0400000000000         7.947967921997539E-019
  -69.8500000000000         7.983811950246268E-019
  -69.6600000000000         8.142043102234031E-019
  -69.4700000000000         8.275024991756603E-019
  -69.2800000000000         8.281239670692277E-019
  -69.0900000000000         8.201822848071811E-019
  -68.9000000000000         8.176857948998736E-019
  -68.7100000000000         8.304199326874948E-019
  -68.5200000000000         8.537288015646408E-019
  -68.3300000000000         8.721331596485253E-019
  -68.1400000000000         8.734898519054163E-019
  -67.9500000000000         8.602742430347555E-019
  -67.7600000000000         8.472219938994412E-019
  -67.5700000000000         8.475085411406783E-019
  -67.3800000000000         8.605545009061054E-019
  -67.1900000000000         8.729955599259910E-019
  -67.0000000000000         8.718092483155947E-019
  -66.8100000000000         8.570333315957776E-019
  -66.6200000000000         8.419595654125021E-019
  -66.4300000000000         8.406663345288375E-019
  -66.2400000000000         8.548165390073043E-019
  -66.0500000000000         8.723147425177189E-019
  -65.8600000000000         8.790716932740750E-019
  -65.6700000000000         8.725856264653913E-019
  -65.4800000000000         8.643025719681965E-019
  -65.2900000000000         8.684591894893233E-019
  -65.1000000000000         8.880719894056627E-019
  -64.9100000000000         9.115030989568875E-019
  -64.7200000000000         9.229593242184734E-019
  -64.5300000000000         9.169980528696645E-019
  -64.3400000000000         9.032881040397203E-019
  -64.1500000000000         8.971472895500381E-019
  -63.9600000000000         9.049220051266718E-019
  -63.7700000000000         9.181723712675636E-019
  -63.5800000000000         9.221828223568465E-019
  -63.3900000000000         9.105937192331391E-019
  -63.2000000000000         8.920853009046921E-019
  -63.0100000000000         8.826506915679953E-019
  -62.8200000000000         8.907757083535143E-019
  -62.6300000000000         9.096302584504943E-019
  -62.4400000000000         9.237079380002199E-019
  -62.2500000000000         9.235851770475497E-019
  -62.0600000000000         9.147220144473926E-019
  -61.8700000000000         9.119024953620981E-019
  -61.6800000000000         9.246307825817683E-019
  -61.4900000000000         9.474628221764068E-019
  -61.3000000000000         9.645706248594731E-019
  -61.1100000000000         9.642795622586806E-019
  -60.9200000000000         9.498278150282002E-019
  -60.7300000000000         9.361949827746650E-019
  -60.5400000000000         9.360801074895032E-019
  -60.3500000000000         9.483798826204602E-019
  -60.1600000000000         9.600555983049686E-019
  -59.9700000000000         9.594350557633848E-019
  -59.7800000000000         9.480494733802828E-019
  -59.5900000000000         9.395413644882908E-019
  -59.4000000000000         9.466169307317105E-019
  -59.2100000000000         9.685246092052163E-019
  -59.0200000000000         9.911050096662934E-019
  -58.8300000000000         9.995048684633885E-019
  -58.6400000000000         9.915835098468378E-019
  -58.4500000000000         9.793612516252224E-019
  -58.2600000000000         9.772267034759244E-019
  -58.0700000000000         9.882080243216032E-019
  -57.8800000000000         1.001399300417772E-018
  -57.6900000000000         1.002909555125780E-018
  -57.5000000000000         9.897442145294716E-019
  -57.3100000000000         9.732363087100611E-019
  -57.1200000000000         9.686605854872094E-019
  -56.9300000000000         9.809003867855208E-019
  -56.7400000000000         9.998608822664929E-019
  -56.5500000000000         1.010067285275330E-018
  -56.3600000000000         1.005347061083812E-018
  -56.1700000000000         9.945975947663963E-019
  -55.9800000000000         9.931119823288290E-019
  -55.7900000000000         1.007714929240612E-018
  -55.6000000000000         1.029879252979081E-018
  -55.4100000000000         1.043399960102337E-018
  -55.2200000000000         1.039355047038947E-018
  -55.0300000000000         1.024171275043320E-018
  -54.8400000000000         1.013198183045373E-018
  -54.6500000000000         1.015996005907776E-018
  -54.4600000000000         1.027413102656892E-018
  -54.2700000000000         1.032951536855859E-018
  -54.0800000000000         1.023222835335247E-018
  -53.8900000000000         1.003590692857919E-018
  -53.7000000000000         9.897071617204507E-019
  -53.5100000000000         9.931367497681904E-019
  -53.3200000000000         1.010732114607874E-018
  -53.1300000000000         1.027860256924270E-018
  -52.9400000000000         1.032390598187634E-018
  -52.7500000000000         1.026107515582764E-018
  -52.5600000000000         1.022677185771030E-018
  -52.3700000000000         1.034147736350764E-018
  -52.1800000000000         1.058920272450987E-018
  -51.9900000000000         1.082711687239778E-018
  -51.8000000000000         1.091607778526880E-018
  -51.6100000000000         1.084771373371377E-018
  -51.4200000000000         1.074728307448820E-018
  -51.2300000000000         1.075033615127938E-018
  -51.0400000000000         1.087177961291217E-018
  -50.8500000000000         1.099315334964503E-018
  -50.6600000000000         1.098058266674147E-018
  -50.4700000000000         1.082015892029017E-018
  -50.2800000000000         1.064000469399756E-018
  -50.0900000000000         1.059613408728025E-018
  -49.9000000000000         1.072935677371867E-018
  -49.7100000000000         1.092855026266093E-018
  -49.5200000000000         1.103493543263656E-018
  -49.3300000000000         1.098844341392580E-018
  -49.1400000000000         1.087782360924641E-018
  -48.9500000000000         1.084829693142195E-018
  -48.7600000000000         1.095653114699761E-018
  -48.5700000000000         1.111269648031782E-018
  -48.3800000000000         1.116553873834694E-018
  -48.1900000000000         1.104909529499459E-018
  -48.0000000000000         1.085032863297277E-018
  -47.8100000000000         1.073215433982356E-018
  -47.6200000000000         1.078416568135474E-018
  -47.4300000000000         1.094244646125802E-018
  -47.2400000000000         1.105436391929677E-018
  -47.0500000000000         1.102630966150550E-018
  -46.8600000000000         1.091341653083234E-018
  -46.6700000000000         1.086585326401596E-018
  -46.4800000000000         1.098338373854730E-018
  -46.2900000000000         1.121735294548862E-018
  -46.1000000000000         1.141366938615918E-018
  -45.9100000000000         1.145564119981986E-018
  -45.7200000000000         1.137041181939550E-018
  -45.5300000000000         1.129776674773504E-018
  -45.3400000000000         1.135172793926109E-018
  -45.1500000000000         1.150798373752092E-018
  -44.9600000000000         1.162557629820543E-018
  -44.7700000000000         1.158264897438469E-018
  -44.5800000000000         1.139651555273936E-018
  -44.3900000000000         1.121281508106685E-018
  -44.2000000000000         1.117317010053123E-018
  -44.0100000000000         1.128648840905788E-018
  -43.8200000000000         1.142563061887978E-018
  -43.6300000000000         1.145197009651549E-018
  -43.4400000000000         1.134881161668793E-018
  -43.2500000000000         1.123650194512941E-018
  -43.0600000000000         1.125526976347513E-018
  -42.8700000000000         1.142830359807051E-018
  -42.6800000000000         1.163632740477311E-018
  -42.4900000000000         1.172815197070892E-018
  -42.3000000000000         1.166170754856706E-018
  -42.1100000000000         1.154103821404364E-018
  -41.9200000000000         1.151413279454050E-018
  -41.7300000000000         1.162941188332386E-018
  -41.5400000000000         1.178837156522343E-018
  -41.3500000000000         1.184016043965711E-018
  -41.1600000000000         1.172806882572369E-018
  -40.9700000000000         1.154794224150596E-018
  -40.7800000000000         1.146237074576941E-018
  -40.5900000000000         1.155192841231815E-018
  -40.4000000000000         1.174442302722436E-018
  -40.2100000000000         1.188841020827035E-018
  -40.0200000000000         1.189968007747273E-018
  -39.8300000000000         1.184016997612878E-018
  -39.6400000000000         1.185382004989999E-018
  -39.4500000000000         1.202127377526113E-018
  -39.2600000000000         1.227364032715827E-018
  -39.0700000000000         1.244948947915679E-018
  -38.8800000000000         1.244224261853445E-018
  -38.6900000000000         1.229825935545621E-018
  -38.5000000000000         1.217225671370673E-018
  -38.3100000000000         1.218206232040484E-018
  -38.1200000000000         1.230026747718967E-018
  -37.9300000000000         1.238519062598772E-018
  -37.7400000000000         1.232094131987389E-018
  -37.5500000000000         1.213246711628363E-018
  -37.3600000000000         1.196550372631508E-018
  -37.1700000000000         1.195049651140242E-018
  -36.9800000000000         1.208033908811730E-018
  -36.7900000000000         1.221841382060503E-018
  -36.6000000000000         1.222903889374649E-018
  -36.4100000000000         1.210587109093908E-018
  -36.2200000000000         1.197600307503972E-018
  -36.0300000000000         1.197618867714641E-018
  -35.8400000000000         1.211972328836370E-018
  -35.6500000000000         1.228145738378053E-018
  -35.4600000000000         1.231553102662542E-018
  -35.2700000000000         1.219361965983904E-018
  -35.0800000000000         1.203203355616812E-018
  -34.8900000000000         1.198218280052351E-018
  -34.7000000000000         1.208897125217881E-018
  -34.5100000000000         1.225168451511995E-018
  -34.3200000000000         1.232371122422754E-018
  -34.1300000000000         1.225484105816505E-018
  -33.9400000000000         1.213946860415706E-018
  -33.7500000000000         1.212451931360308E-018
  -33.5600000000000         1.226573893085421E-018
  -33.3700000000000         1.247079979203954E-018
  -33.1800000000000         1.258460528855608E-018
  -32.9900000000000         1.253586487599121E-018
  -32.8000000000000         1.240495428153735E-018
  -32.6100000000000         1.234773691217029E-018
  -32.4200000000000         1.244733539004335E-018
  -32.2300000000000         1.263492920997743E-018
  -32.0400000000000         1.275525269656606E-018
  -31.8500000000000         1.271452369713643E-018
  -31.6600000000000         1.256979315478873E-018
  -31.4700000000000         1.247466702349424E-018
  -31.2800000000000         1.253351502667115E-018
  -31.0900000000000         1.270348581299116E-018
  -30.9000000000000         1.283779714275839E-018
  -30.7100000000000         1.282878395323814E-018
  -30.5200000000000         1.271370951460925E-018
  -30.3300000000000         1.264146633430361E-018
  -30.1400000000000         1.273091196507664E-018
  -29.9500000000000         1.295536571533532E-018
  -29.7600000000000         1.316342520176871E-018
  -29.5700000000000         1.321679582155941E-018
  -29.3800000000000         1.311483148248018E-018
  -29.1900000000000         1.298861847473195E-018
  -29.0000000000000         1.297173900859790E-018
  -28.8100000000000         1.307181676482629E-018
  -28.6200000000000         1.316545965846745E-018
  -28.4300000000000         1.312087223236850E-018
  -28.2400000000000         1.293009922125494E-018
  -28.0500000000000         1.272352434704942E-018
  -27.8600000000000         1.265193322027124E-018
  -27.6700000000000         1.274821809098768E-018
  -27.4800000000000         1.290029536649251E-018
  -27.2900000000000         1.296063597545659E-018
  -27.1000000000000         1.288760170267697E-018
  -26.9100000000000         1.278368303910048E-018
  -26.7200000000000         1.279434203664937E-018
  -26.5300000000000         1.296449372833142E-018
  -26.3400000000000         1.319037736693719E-018
  -26.1500000000000         1.331349474068510E-018
  -25.9600000000000         1.326743026406540E-018
  -25.7700000000000         1.313779162138401E-018
  -25.5800000000000         1.307848014892677E-018
  -25.3900000000000         1.316448049056446E-018
  -25.2000000000000         1.332163397326776E-018
  -25.0100000000000         1.340016614282474E-018
  -24.8200000000000         1.332133257663929E-018
  -24.6300000000000         1.315642814332909E-018
  -24.4400000000000         1.306179439629990E-018
  -24.2500000000000         1.313118690712316E-018
  -24.0600000000000         1.330621842776317E-018
  -23.8700000000000         1.343052144457942E-018
  -23.6800000000000         1.339643499857259E-018
  -23.4900000000000         1.324505408480279E-018
  -23.3000000000000         1.312503425685040E-018
  -23.1100000000000         1.315001060858490E-018
  -22.9200000000000         1.329084867827087E-018
  -22.7300000000000         1.340535403533858E-018
  -22.5400000000000         1.337647173720611E-018
  -22.3500000000000         1.322622104726364E-018
  -22.1600000000000         1.309604780491564E-018
  -21.9700000000000         1.311234916515860E-018
  -21.7800000000000         1.326585932421878E-018
  -21.5900000000000         1.342039799028658E-018
  -21.4000000000000         1.344301007631417E-018
  -21.2100000000000         1.333154734942200E-018
  -21.0200000000000         1.321784024347089E-018
  -20.8300000000000         1.324306157128210E-018
  -20.6400000000000         1.342385647595482E-018
  -20.4500000000000         1.363664777162342E-018
  -20.2600000000000         1.373464558909779E-018
  -20.0700000000000         1.368552077335827E-018
  -19.8800000000000         1.359836658793803E-018
  -19.6900000000000         1.361463146757982E-018
  -19.5000000000000         1.376781003482207E-018
  -19.3100000000000         1.394679882853883E-018
  -19.1200000000000         1.399903371920298E-018
  -18.9300000000000         1.387575498017064E-018
  -18.7400000000000         1.368084160529183E-018
  -18.5500000000000         1.357615935473555E-018
  -18.3600000000000         1.363300276358169E-018
  -18.1700000000000         1.377037439247135E-018
  -17.9800000000000         1.383787839388896E-018
  -17.7900000000000         1.376331857726621E-018
  -17.6000000000000         1.362381159611831E-018
  -17.4100000000000         1.357248685994299E-018
  -17.2200000000000         1.369082660722670E-018
  -17.0300000000000         1.390784730448226E-018
  -16.8400000000000         1.406357554445097E-018
  -16.6500000000000         1.405651120074125E-018
  -16.4600000000000         1.393482246898562E-018
  -16.2700000000000         1.384513667375968E-018
  -16.0800000000000         1.388883334696012E-018
  -15.8900000000000         1.402374188439510E-018
  -15.7000000000000         1.410543223032399E-018
  -15.5100000000000         1.402866126352018E-018
  -15.3200000000000         1.383340399523888E-018
  -15.1300000000000         1.367325592370135E-018
  -14.9400000000000         1.367533837509725E-018
  -14.7500000000000         1.382459210639584E-018
  -14.5600000000000         1.398210840986821E-018
  -14.3700000000000         1.401926080892920E-018
  -14.1800000000000         1.393923162971840E-018
  -13.9900000000000         1.387008941836673E-018
  -13.8000000000000         1.393665523069149E-018
  -13.6100000000000         1.413456923792777E-018
  -13.4200000000000         1.432821239403255E-018
  -13.2300000000000         1.437571218978760E-018
  -13.0400000000000         1.426223030106589E-018
  -12.8500000000000         1.411412680159514E-018
  -12.6600000000000         1.407989532115231E-018
  -12.4700000000000         1.419066007454095E-018
  -12.2800000000000         1.433248155191906E-018
  -12.0900000000000         1.435641099827235E-018
  -11.9000000000000         1.422136966851783E-018
  -11.7100000000000         1.403390084277892E-018
  -11.5200000000000         1.394726646269214E-018
  -11.3300000000000         1.401657023444735E-018
  -11.1400000000000         1.414840876608390E-018
  -10.9500000000000         1.419295039229316E-018
  -10.7600000000000         1.409009658720545E-018
  -10.5700000000000         1.392975566180072E-018
  -10.3800000000000         1.386827079843687E-018
  -10.1900000000000         1.398027150857373E-018
  -10.0000000000000         1.418696107570029E-018
  -9.81000000000000         1.432925653492480E-018
  -9.62000000000000         1.431624095853769E-018
  -9.42999999999999         1.420770132203876E-018
  -9.23999999999999         1.415276609922602E-018
  -9.05000000000000         1.424426638352807E-018
  -8.86000000000000         1.442861588893404E-018
  -8.67000000000000         1.455734213842493E-018
  -8.48000000000000         1.453067804789354E-018
  -8.28999999999999         1.439552623335303E-018
  -8.09999999999999         1.430354709044989E-018
  -7.91000000000000         1.436871851834733E-018
  -7.72000000000000         1.456002037256983E-018
  -7.53000000000000         1.473163084130340E-018
  -7.34000000000000         1.476170714992720E-018
  -7.15000000000001         1.466712374358127E-018
  -6.95999999999999         1.458468203903853E-018
  -6.77000000000000         1.463696269422027E-018
  -6.58000000000000         1.481120697848740E-018
  -6.39000000000000         1.496742151764141E-018
  -6.20000000000000         1.496885573034729E-018
  -6.01000000000001         1.481112849118506E-018
  -5.81999999999999         1.462715739607643E-018
  -5.63000000000000         1.456325200359984E-018
  -5.44000000000000         1.464444985482826E-018
  -5.25000000000000         1.475697980989624E-018
  -5.06000000000000         1.476344617703523E-018
  -4.87000000000000         1.463953512608928E-018
  -4.67999999999999         1.450071778192129E-018
  -4.48999999999999         1.449271073160490E-018
  -4.30000000000000         1.464996534110227E-018
  -4.11000000000000         1.485768625833697E-018
  -3.92000000000000         1.495464387095505E-018
  -3.73000000000000         1.487987486083085E-018
  -3.53999999999999         1.472455900249318E-018
  -3.34999999999999         1.464086414627964E-018
  -3.16000000000000         1.469562704968737E-018
  -2.97000000000000         1.480853397885210E-018
  -2.78000000000000         1.483308986998710E-018
  -2.59000000000000         1.470201947747319E-018
  -2.40000000000001         1.449705756574541E-018
  -2.20999999999999         1.437532028515684E-018
  -2.02000000000000         1.442190908021009E-018
  -1.83000000000000         1.456958226146653E-018
  -1.64000000000000         1.466274284741280E-018
  -1.45000000000000         1.460531179610228E-018
  -1.26000000000001         1.445195521228321E-018
  -1.06999999999999         1.435598074171284E-018
 -0.879999999999995         1.442354921170708E-018
 -0.689999999999998         1.461291462218629E-018
 -0.500000000000000         1.477443658492433E-018
 -0.310000000000002         1.479284143850093E-018
 -0.120000000000005         1.469566274501114E-018
  7.000000000000739E-002    1.462434291754567E-018
  0.260000000000005         1.469600727039845E-018
  0.450000000000003         1.488841977237805E-018
  0.640000000000001         1.505831514834104E-018
  0.829999999999998         1.507591010738421E-018
   1.02000000000000         1.494756634653702E-018
   1.21000000000001         1.480974690236937E-018
   1.40000000000001         1.479995142431455E-018
   1.59000000000000         1.492757776739189E-018
   1.78000000000000         1.506763550435238E-018
   1.97000000000000         1.508277578907250E-018
   2.16000000000000         1.495658955215381E-018
   2.34999999999999         1.481071504814339E-018
   2.54000000000001         1.478954499387290E-018
   2.73000000000000         1.492269937691890E-018
   2.92000000000000         1.509652634568710E-018
   3.11000000000000         1.516177697144675E-018
   3.30000000000000         1.507450385363727E-018
   3.48999999999999         1.493545422074542E-018
   3.68000000000001         1.489051600697140E-018
   3.87000000000000         1.498811641845373E-018
   4.06000000000000         1.513088567239324E-018
   4.25000000000000         1.516861925580899E-018
   4.44000000000000         1.504414039989683E-018
   4.63000000000000         1.485252944254281E-018
   4.82000000000001         1.475615109257064E-018
   5.01000000000001         1.483510481575896E-018
   5.20000000000000         1.501455110249441E-018
   5.39000000000000         1.513752306257359E-018
   5.58000000000000         1.511342347403076E-018
   5.77000000000000         1.500063654819729E-018
   5.96000000000001         1.494516415948740E-018
   6.15000000000001         1.503499775006660E-018
   6.34000000000000         1.521036574197024E-018
   6.53000000000000         1.531659982026671E-018