  -105.000000000000         0.000000000000000E+000
  -104.810000000000         1.968671265650407E-010
  -104.620000000000         4.305403226437226E-010
  -104.430000000000         6.679463624512554E-010
  -104.240000000000         1.017668896510378E-009
  -104.050000000000         1.478460003840897E-009
  -103.860000000000         1.857525886129749E-009
  -103.670000000000         2.071405675851696E-009
  -103.480000000000         2.159020335131672E-009
  -103.290000000000         2.651613007478859E-009
  -103.100000000000         3.301328563584250E-009
  -102.910000000000         4.285081377170739E-009
  -102.720000000000         5.266775218233599E-009
  -102.530000000000         6.082365086460372E-009
  -102.340000000000         6.760019572283957E-009
  -102.150000000000         7.288281058281675E-009
  -101.960000000000         7.643772160348296E-009
  -101.770000000000         7.657041980735849E-009
  -101.580000000000         7.819295041215642E-009
  -101.390000000000         8.164899560920669E-009
  -101.200000000000         8.295506042019827E-009
  -101.010000000000         8.354760074196012E-009
  -100.820000000000         8.101126264934968E-009
  -100.630000000000         7.613145380523574E-009
  -100.440000000000         7.229196010979719E-009
  -100.250000000000         6.944129980280463E-009
  -100.060000000000         6.691686227006830E-009
  -99.8700000000000         6.594926177156437E-009
  -99.6800000000000         6.526137646336609E-009
  -99.4900000000000         6.134244242962522E-009
  -99.3000000000000         5.251912539059918E-009
  -99.1100000000000         4.386544861420470E-009
  -98.9200000000000         3.454923809465201E-009
  -98.7300000000000         2.687710283374630E-009
  -98.5400000000000         2.507862768466536E-009
  -98.3500000000000         1.922479922693300E-009
  -98.1600000000000         1.748149455835472E-009
  -97.9700000000000         1.554764783427414E-009
  -97.7800000000000         1.516574271751930E-009
  -97.5900000000000         1.470725568644253E-009
  -97.4000000000000         1.353997887411633E-009
  -97.2100000000000         1.249352008385535E-009
  -97.0200000000000         1.208220340391913E-009
  -96.8300000000000         1.462931661873174E-009
  -96.6400000000000         1.916952996525244E-009
  -96.4500000000000         2.442314829118105E-009
  -96.2600000000000         3.191743580368955E-009
  -96.0700000000000         3.683748682965991E-009
  -95.8800000000000         3.952872341969016E-009
  -95.6900000000000         4.082498940872480E-009
  -95.5000000000000         4.271908781584523E-009
  -95.3100000000000         4.554855967619777E-009
  -95.1200000000000         4.853765419459203E-009
  -94.9300000000000         5.152023800110823E-009
  -94.7400000000000         5.364908292105271E-009
  -94.5500000000000         5.619825539104457E-009
  -94.3600000000000         5.933507984472310E-009
  -94.1700000000000         6.151726424858384E-009
  -93.9800000000000         6.373837558011923E-009
  -93.7900000000000         6.514159958180493E-009
  -93.6000000000000         7.015654270438068E-009
  -93.4100000000000         7.345787809222492E-009
  -93.2200000000000         7.571179437441065E-009
  -93.0300000000000         7.728247259512706E-009
  -92.8400000000000         7.658549211622551E-009
  -92.6500000000000         7.161242003351320E-009
  -92.4600000000000         6.237530745485067E-009
  -92.2700000000000         5.098191613320387E-009
  -92.0800000000000         4.015512827673393E-009
  -91.8900000000000         3.153515540559767E-009
  -91.7000000000000         2.813137955987860E-009
  -91.5100000000000         2.542760924387746E-009
  -91.3200000000000         2.371590281255262E-009
  -91.1300000000000         1.905359216994785E-009
  -90.9400000000000         1.370473794236101E-009
  -90.7500000000000         1.118897067953334E-009
  -90.5600000000000         1.195367800492487E-009
  -90.3700000000000         1.672837971741361E-009
  -90.1800000000000         2.538604818556190E-009
  -89.9900000000000         3.537613392663088E-009
  -89.8000000000000         4.383779124087631E-009
  -89.6100000000000         4.560194725436098E-009
  -89.4200000000000         4.859077703935060E-009
  -89.2300000000000         5.179993731184788E-009
  -89.0400000000000         6.098088429966037E-009
  -88.8500000000000         6.170468380805304E-009
  -88.6600000000000         6.826840458490919E-009
  -88.4700000000000         7.402987260159648E-009
  -88.2800000000000         7.794806532934524E-009
  -88.0900000000000         8.028950465022470E-009
  -87.9000000000000         8.042678217334947E-009
  -87.7100000000000         7.921113309472555E-009
  -87.5200000000000         7.861060685653025E-009
  -87.3300000000000         7.804399090366259E-009
  -87.1400000000000         7.685429828593189E-009
  -86.9500000000000         7.626011378174133E-009
  -86.7600000000000         7.542869305912042E-009
  -86.5700000000000         7.404760374118561E-009
  -86.3800000000000         7.354592492692359E-009
  -86.1900000000000         7.446175314574906E-009
  -86.0000000000000         7.684896721399138E-009
  -85.8100000000000         8.129247106674762E-009
  -85.6200000000000         8.920592323707736E-009
  -85.4300000000000         9.975306824579464E-009
  -85.2400000000000         1.108892942103294E-008
  -85.0500000000000         1.247698505190742E-008
  -84.8600000000000         1.375660286572900E-008
  -84.6700000000000         1.487768998464269E-008
  -84.4800000000000         1.593497451742146E-008
  -84.2900000000000         1.710123594491927E-008
  -84.1000000000000         1.848941017741752E-008
  -83.9100000000000         2.010531209810860E-008
  -83.7200000000000         2.011507615609281E-008
  -83.5300000000000         2.295518605686378E-008
  -83.3400000000000         2.280262821329187E-008
  -83.1500000000000         2.309976821270792E-008
  -82.9600000000000         2.317153980785808E-008
  -82.7700000000000         2.297823591288601E-008
  -82.5800000000000         2.257684931708425E-008
  -82.3900000000000         2.215791516993589E-008
  -82.2000000000000         2.183526512215420E-008
  -82.0100000000000         2.137720999345131E-008
  -81.8200000000000         2.066403340586505E-008
  -81.6300000000000         1.969693615264456E-008
  -81.4400000000000         1.861520451109619E-008
  -81.2500000000000         1.769934259962167E-008
  -81.0600000000000         1.694395959233347E-008
  -80.8700000000000         1.623047502892295E-008
  -80.6800000000000         1.589191587668934E-008
  -80.4900000000000         1.578389803157817E-008
  -80.3000000000000         1.571287736673955E-008
  -80.1100000000000         1.562424776904011E-008
  -79.9200000000000         1.558708787292751E-008
  -79.7300000000000         1.565461194488309E-008
  -79.5400000000000         1.595601341348526E-008
  -79.3500000000000         1.672865220829132E-008
  -79.1600000000000         1.771795385592456E-008
  -78.9700000000000         1.857316318745822E-008
  -78.7800000000000         1.928283836566219E-008
  -78.5900000000000         1.991983443252040E-008
  -78.4000000000000         2.024444305694616E-008
  -78.2100000000000         2.032245224456523E-008
  -78.0200000000000         2.034885006038888E-008
  -77.8300000000000         2.021361115981521E-008
  -77.6400000000000         1.998285459277437E-008
  -77.4500000000000         1.970227784676382E-008
  -77.2600000000000         1.946833087193658E-008
  -77.0700000000000         1.937384035198764E-008
  -76.8800000000000         1.939919997684083E-008
  -76.6900000000000         1.949921847183410E-008
  -76.5000000000000         1.990446775240378E-008
  -76.3100000000000         2.076154897676891E-008
  -76.1200000000000         2.106932338834985E-008
  -75.9300000000000         2.155371148964072E-008
  -75.7400000000000         2.176666399803303E-008
  -75.5500000000000         2.203805638836434E-008
  -75.3600000000000         2.219675088524232E-008
  -75.1700000000000         2.233325798971025E-008
  -74.9800000000000         2.258323532749008E-008
  -74.7900000000000         2.282151792806132E-008
  -74.6000000000000         2.295363145739531E-008
  -74.4100000000000         2.305731214405000E-008
  -74.2200000000000         2.324480589792504E-008
  -74.0300000000000         2.357726528139489E-008
  -73.8400000000000         2.409934878435610E-008
  -73.6500000000000         2.472582265218005E-008
  -73.4600000000000         2.532894417452054E-008
  -73.2700000000000         2.604530019934453E-008
  -73.0800000000000         2.680675659548794E-008
  -72.8900000000000         2.805209257885183E-008
  -72.7000000000000         2.924887811260923E-008
  -72.5100000000000         3.057015321127976E-008
  -72.3200000000000         3.187595373022333E-008
  -72.1300000000000         3.279517525128297E-008
  -71.9400000000000         3.322418031529627E-008
  -71.7500000000000         3.561186000316594E-008
  -71.5600000000000         3.576999213725589E-008
  -71.3700000000000         3.625042861379868E-008
  -71.1800000000000         3.713481128807644E-008
  -70.9900000000000         3.753132773072661E-008
  -70.8000000000000         4.090470832825856E-008
  -70.6100000000000         4.114293460781067E-008
  -70.4200000000000         4.157792618459546E-008
  -70.2300000000000         4.599017100160862E-008
  -70.0400000000000         4.617952127650198E-008
  -69.8500000000000         4.673800262333763E-008
  -69.6600000000000         4.911088820822852E-008
  -69.4700000000000         4.919219993800841E-008
  -69.2800000000000         5.004555847751017E-008
  -69.0900000000000         5.029811636434503E-008
  -68.9000000000000         5.057430717874214E-008
  -68.7100000000000         5.072830378125425E-008
  -68.5200000000000         5.068433837768931E-008
  -68.3300000000000         5.046855296241908E-008
  -68.1400000000000         5.022440570805028E-008
  -67.9500000000000         5.017132939710948E-008
  -67.7600000000000         5.023227869785113E-008
  -67.5700000000000         5.049005266679674E-008
  -67.3800000000000         5.140708545406783E-008
  -67.1900000000000         5.313625313681382E-008
  -67.0000000000000         5.419911799660534E-008
  -66.8100000000000         5.685762843366606E-008
  -66.6200000000000         5.736851770766735E-008
  -66.4300000000000         5.854709151816407E-008
  -66.2400000000000         6.247016350184025E-008
  -66.0500000000000         6.270733874949227E-008
  -65.8600000000000         6.330717189415201E-008
  -65.6700000000000         6.422719370515633E-008
  -65.4800000000000         6.492709212323051E-008
  -65.2900000000000         6.575666971869480E-008
  -65.1000000000000         6.664915109422521E-008
  -64.9100000000000         6.758245862006296E-008
  -64.7200000000000         6.845693160180196E-008
  -64.5300000000000         6.937654701016055E-008
  -64.3400000000000         7.016963472115493E-008
  -64.1500000000000         7.095970440816696E-008
  -63.9600000000000         7.169063828185637E-008
  -63.7700000000000         7.233249179369496E-008
  -63.5800000000000         7.299438300899803E-008
  -63.3900000000000         7.360846969026905E-008
  -63.2000000000000         7.414499703425560E-008
  -63.0100000000000         7.447630385487531E-008
  -62.8200000000000         7.478195757961190E-008
  -62.6300000000000         7.507954244808351E-008
  -62.4400000000000         7.542102743687572E-008
  -62.2500000000000         7.565988324951288E-008
  -62.0600000000000         7.583564177965914E-008
  -61.8700000000000         7.600332022200848E-008
  -61.6800000000000         7.611010610637475E-008
  -61.4900000000000         7.621125495127784E-008
  -61.3000000000000         7.645291872699220E-008
  -61.1100000000000         7.703028810331299E-008
  -60.9200000000000         7.802636397585936E-008
  -60.7300000000000         7.940385697327385E-008
  -60.5400000000000         8.070780748805913E-008
  -60.3500000000000         8.181578738441860E-008
  -60.1600000000000         8.286102560104397E-008
  -59.9700000000000         8.383716884799011E-008
  -59.7800000000000         8.489140349315516E-008
  -59.5900000000000         8.607831182620410E-008
  -59.4000000000000         8.718496026998001E-008
  -59.2100000000000         8.831070113132788E-008
  -59.0200000000000         8.948270693356327E-008
  -58.8300000000000         9.069600235694016E-008
  -58.6400000000000         9.187723245987730E-008
  -58.4500000000000         9.331131998820286E-008
  -58.2600000000000         9.507405907889778E-008
  -58.0700000000000         9.670021005216624E-008
  -57.8800000000000         9.851105333026017E-008
  -57.6900000000000         9.992740403478590E-008
  -57.5000000000000         1.013726855970160E-007
  -57.3100000000000         1.020825520350507E-007
  -57.1200000000000         1.047059453640047E-007
  -56.9300000000000         1.054038989470799E-007
  -56.7400000000000         1.070783969166461E-007
  -56.5500000000000         1.089807726359364E-007
  -56.3600000000000         1.099849868213768E-007
  -56.1700000000000         1.117107835682866E-007
  -55.9800000000000         1.122973688075692E-007
  -55.7900000000000         1.135785326912613E-007
  -55.6000000000000         1.143583106180947E-007
  -55.4100000000000         1.152447180939963E-007
  -55.2200000000000         1.157527697510469E-007
  -55.0300000000000         1.160063422419871E-007
  -54.8400000000000         1.161554015190752E-007
  -54.6500000000000         1.163196793424640E-007
  -54.4600000000000         1.166040649624304E-007
  -54.2700000000000         1.170472923680914E-007
  -54.0800000000000         1.177176175576671E-007
  -53.8900000000000         1.185925205266516E-007
  -53.7000000000000         1.197745696568191E-007
  -53.5100000000000         1.213171219901719E-007
  -53.3200000000000         1.232276776412769E-007
  -53.1300000000000         1.256431016925933E-007
  -52.9400000000000         1.282325636997733E-007
  -52.7500000000000         1.308470972404974E-007
  -52.5600000000000         1.332168268508737E-007
  -52.3700000000000         1.359210323204188E-007
  -52.1800000000000         1.369051134823455E-007
  -51.9900000000000         1.439789855334734E-007
  -51.8000000000000         1.442089523136760E-007
  -51.6100000000000         1.458998376057205E-007
  -51.4200000000000         1.486653758563581E-007
  -51.2300000000000         1.512396532869131E-007
  -51.0400000000000         1.522572864898062E-007
  -50.8500000000000         1.546305205368395E-007
  -50.6600000000000         1.556055161807831E-007
  -50.4700000000000         1.603030192166269E-007
  -50.2800000000000         1.613229317329981E-007
  -50.0900000000000         1.631185152952463E-007
  -49.9000000000000         1.661839211028728E-007
  -49.7100000000000         1.671336714130741E-007
  -49.5200000000000         1.698486127621360E-007
  -49.3300000000000         1.707859439974346E-007
  -49.1400000000000         1.735661899498216E-007
  -48.9500000000000         1.745635517781207E-007
  -48.7600000000000         1.769090859002124E-007
  -48.5700000000000         1.786743444561963E-007
  -48.3800000000000         1.807590822833374E-007
  -48.1900000000000         1.827087707825251E-007
  -48.0000000000000         1.847328926550258E-007
  -47.8100000000000         1.871327173961028E-007
  -47.6200000000000         1.897421679855861E-007
  -47.4300000000000         1.925476150078559E-007
  -47.2400000000000         1.956725832327526E-007
  -47.0500000000000         1.983170839362145E-007
  -46.8600000000000         2.012821068703734E-007
  -46.6700000000000         2.039967791074574E-007
  -46.4800000000000         2.065356445866461E-007
  -46.2900000000000         2.089506812292639E-007
  -46.1000000000000         2.109686599661509E-007
  -45.9100000000000         2.133021720259336E-007
  -45.7200000000000         2.153042124867145E-007
  -45.5300000000000         2.171929826860290E-007
  -45.3400000000000         2.189102611912427E-007
  -45.1500000000000         2.203386011682804E-007
  -44.9600000000000         2.217715617228351E-007
  -44.7700000000000         2.230281704027190E-007
  -44.5800000000000         2.245876973775402E-007
  -44.3900000000000         2.258995135506439E-007
  -44.2000000000000         2.276888937804987E-007
  -44.0100000000000         2.291921758956979E-007
  -43.8200000000000         2.310837176902403E-007
  -43.6300000000000         2.325260313586704E-007
  -43.4400000000000         2.346672201812231E-007
  -43.2500000000000         2.361259127085024E-007
  -43.0600000000000         2.384907239755697E-007
  -42.8700000000000         2.403179416433124E-007
  -42.6800000000000         2.426566681766431E-007
  -42.4900000000000         2.441712342552575E-007
  -42.3000000000000         2.465213263102819E-007
  -42.1100000000000         2.477949869031096E-007
  -41.9200000000000         2.499871988019201E-007
  -41.7300000000000         2.513782897392276E-007
  -41.5400000000000         2.534012036592914E-007
  -41.3500000000000         2.544744746707424E-007
  -41.1600000000000         2.566767874350001E-007
  -40.9700000000000         2.575347035289991E-007
  -40.7800000000000         2.603968000317675E-007
  -40.5900000000000         2.615961349358868E-007
  -40.4000000000000         2.657515776846162E-007
  -40.2100000000000         2.671989529350747E-007
  -40.0200000000000         2.716660728249593E-007
  -39.8300000000000         2.731230516524106E-007
  -39.6400000000000         2.783821992374847E-007
  -39.4500000000000         2.799918847694928E-007
  -39.2600000000000         2.848584133735626E-007
  -39.0700000000000         2.868643669133542E-007
  -38.8800000000000         2.920043281433552E-007
  -38.6900000000000         2.939087720922624E-007
  -38.5000000000000         2.988477133091598E-007
  -38.3100000000000         3.007631988508387E-007
  -38.1200000000000         3.056157007524087E-007
  -37.9300000000000         3.074602298113552E-007
  -37.7400000000000         3.122353802791598E-007
  -37.5500000000000         3.138933802747833E-007
  -37.3600000000000         3.182492146163242E-007
  -37.1700000000000         3.197986134894792E-007
  -36.9800000000000         3.239656386012362E-007
  -36.7900000000000         3.255064174871447E-007
  -36.6000000000000         3.298515273479187E-007
  -36.4100000000000         3.311966099054126E-007
  -36.2200000000000         3.354255855626432E-007
  -36.0300000000000         3.366312048157908E-007
  -35.8400000000000         3.407849737057976E-007
  -35.6500000000000         3.419614563855711E-007
  -35.4600000000000         3.462538729601215E-007
  -35.2700000000000         3.475403733356120E-007
  -35.0800000000000         3.522803925517490E-007
  -34.8900000000000         3.536407939221278E-007
  -34.7000000000000         3.590743406864561E-007
  -34.5100000000000         3.606128163492076E-007
  -34.3200000000000         3.662486687940037E-007
  -34.1300000000000         3.681103588198241E-007
  -33.9400000000000         3.746280758680809E-007
  -33.7500000000000         3.767371650522235E-007
  -33.5600000000000         3.828351705731765E-007
  -33.3700000000000         3.847169575487576E-007
  -33.1800000000000         3.912213821442171E-007
  -32.9900000000000         3.928042308471730E-007
  -32.8000000000000         3.984286573866000E-007
  -32.6100000000000         3.999261088900860E-007
  -32.4200000000000         4.060308965881999E-007
  -32.2300000000000         4.075554001610408E-007
  -32.0400000000000         4.134576163590411E-007
  -31.8500000000000         4.150636993339643E-007
  -31.6600000000000         4.212346839124469E-007
  -31.4700000000000         4.228359949576087E-007
  -31.2800000000000         4.290891864751380E-007
  -31.0900000000000         4.308800056189539E-007
  -30.9000000000000         4.372734905275930E-007
  -30.7100000000000         4.391314321120238E-007
  -30.5200000000000         4.451948309371600E-007
  -30.3300000000000         4.468954404647348E-007
  -30.1400000000000         4.529694374718121E-007
  -29.9500000000000         4.545638812481261E-007
  -29.7600000000000         4.607762931073795E-007
  -29.5700000000000         4.623584666333010E-007
  -29.3800000000000         4.680172155630159E-007
  -29.1900000000000         4.697378984142411E-007
  -29.0000000000000         4.753269367128869E-007
  -28.8100000000000         4.771653739100770E-007
  -28.6200000000000         4.817623485455604E-007
  -28.4300000000000         4.838296501868203E-007
  -28.2400000000000         4.880438262492457E-007
  -28.0500000000000         4.898168367345132E-007
  -27.8600000000000         4.931514590917052E-007
  -27.6700000000000         4.961326640918770E-007
  -27.4800000000000         4.986766080688952E-007
  -27.2900000000000         5.016606215802370E-007
  -27.1000000000000         5.045918305672308E-007
  -26.9100000000000         5.073575492584209E-007
  -26.7200000000000         5.099347462233593E-007
  -26.5300000000000         5.128866491433048E-007
  -26.3400000000000         5.157025050286849E-007
  -26.1500000000000         5.187560547938578E-007
  -25.9600000000000         5.218658215973550E-007
  -25.7700000000000         5.250912875132867E-007
  -25.5800000000000         5.283860406074369E-007
  -25.3900000000000         5.314695173148623E-007
  -25.2000000000000         5.345376461390719E-007
  -25.0100000000000         5.381521910258306E-007
  -24.8200000000000         5.416648529675020E-007
  -24.6300000000000         5.455663042487012E-007
  -24.4400000000000         5.498271281293185E-007
  -24.2500000000000         5.536581060313918E-007
  -24.0600000000000         5.578051290610771E-007
  -23.8700000000000         5.616028455967894E-007
  -23.6800000000000         5.651385174913894E-007
  -23.4900000000000         5.691005153943668E-007
  -23.3000000000000         5.732383625500201E-007
  -23.1100000000000         5.771890287239502E-007
  -22.9200000000000         5.811498897367073E-007
  -22.7300000000000         5.852019812884306E-007
  -22.5400000000000         5.889729991859900E-007
  -22.3500000000000         5.927630817716057E-007
  -22.1600000000000         5.968902280246032E-007
  -21.9700000000000         6.009983366988896E-007
  -21.7800000000000         6.049165927122975E-007
  -21.5900000000000         6.092487538974872E-007
  -21.4000000000000         6.133221591953769E-007
  -21.2100000000000         6.169743004349852E-007
  -21.0200000000000         6.217494304767464E-007
  -20.8300000000000         6.237224060556397E-007
  -20.6400000000000         6.298491934770478E-007
  -20.4500000000000         6.311436214503169E-007
  -20.2600000000000         6.392559506064805E-007
  -20.0700000000000         6.403831624609566E-007
  -19.8800000000000         6.445281192506296E-007
  -19.6900000000000         6.510977985188673E-007
  -19.5000000000000         6.526051065672568E-007
  -19.3100000000000         6.615911187314003E-007
  -19.1200000000000         6.628255243481085E-007
  -18.9300000000000         6.684024800720439E-007
  -18.7400000000000         6.699627292509631E-007
  -18.5500000000000         6.784186662809468E-007
  -18.3600000000000         6.792924235208077E-007
  -18.1700000000000         6.840751994496609E-007
  -17.9800000000000         6.898492350563036E-007
  -17.7900000000000         6.911823006039369E-007
  -17.6000000000000         6.973342916632153E-007
  -17.4100000000000         6.983620619174040E-007
  -17.2200000000000         7.044189514775884E-007
  -17.0300000000000         7.053680924037891E-007
  -16.8400000000000         7.115808169786648E-007
  -16.6500000000000         7.127420111206459E-007
  -16.4600000000000         7.197588468292112E-007
  -16.2700000000000         7.208553109488115E-007
  -16.0800000000000         7.281123103408043E-007
  -15.8900000000000         7.292919688821252E-007
  -15.7000000000000         7.368804885584851E-007
  -15.5100000000000         7.383484614617486E-007
  -15.3200000000000         7.474582426710563E-007
  -15.1300000000000         7.488271542795666E-007
  -14.9400000000000         7.562375973789684E-007
  -14.7500000000000         7.576904093486892E-007
  -14.5600000000000         7.667728393831207E-007
  -14.3700000000000         7.679226002965510E-007
  -14.1800000000000         7.745064538037827E-007
  -13.9900000000000         7.760556873779111E-007
  -13.8000000000000         7.843841318993110E-007
  -13.6100000000000         7.854206074813928E-007
  -13.4200000000000         7.917095989819507E-007
  -13.2300000000000         7.928411495166900E-007
  -13.0400000000000         8.006841663693454E-007
  -12.8500000000000         8.016237727242098E-007
  -12.6600000000000         8.080971746703228E-007
  -12.4700000000000         8.093565455816746E-007
  -12.2800000000000         8.177039548109660E-007
  -12.0900000000000         8.187957822333820E-007
  -11.9000000000000         8.264161132615557E-007
  -11.7100000000000         8.276799271528432E-007
  -11.5200000000000         8.366395892786526E-007
  -11.3300000000000         8.378578928789486E-007
  -11.1400000000000         8.454860221915067E-007
  -10.9500000000000         8.468863933607342E-007
  -10.7600000000000         8.564213249226026E-007
  -10.5700000000000         8.577215486107945E-007
  -10.3800000000000         8.649782893528651E-007
  -10.1900000000000         8.665963719127574E-007
  -10.0000000000000         8.765009750279981E-007
  -9.81000000000000         8.777138572011203E-007
  -9.62000000000000         8.841961001025251E-007
  -9.42999999999999         8.858137149935648E-007
  -9.23999999999999         8.946002122145780E-007
  -9.05000000000000         8.956900943662902E-007
  -8.86000000000000         9.027395073878408E-007
  -8.67000000000000         9.040153151838367E-007
  -8.48000000000000         9.124082678717259E-007
  -8.28999999999999         9.135109707379081E-007
  -8.09999999999999         9.205165752695462E-007
  -7.91000000000000         9.218954410683866E-007
  -7.72000000000000         9.305228181127183E-007
  -7.53000000000000         9.316968449369711E-007
  -7.34000000000000         9.390217144177983E-007
  -7.15000000000001         9.403847486631712E-007
  -6.95999999999999         9.485925134298679E-007
  -6.77000000000000         9.498451121792389E-007
  -6.58000000000000         9.566441988388164E-007
  -6.39000000000000         9.580560043240638E-007
  -6.20000000000000         9.664894773232818E-007
  -6.01000000000001         9.675944680602911E-007
  -5.81999999999999         9.714191753869085E-007
  -5.63000000000000         9.785905170077434E-007
  -5.44000000000000         9.800612999527182E-007
  -5.25000000000000         9.861563855292633E-007
  -5.06000000000000         9.875396643993264E-007
  -4.87000000000000         9.956868687259763E-007
  -4.67999999999999         9.966986082262710E-007
  -4.48999999999999         9.990200109483402E-007
  -4.30000000000000         1.006088467777983E-006
  -4.11000000000000         1.007450141022719E-006
  -3.92000000000000         1.010461450083721E-006
  -3.73000000000000         1.019024425221038E-006
  -3.53999999999999         1.020120669108497E-006
  -3.34999999999999         1.022440460180927E-006
  -3.16000000000000         1.028509012813225E-006
  -2.97000000000000         1.030129998206967E-006
  -2.78000000000000         1.038730589647066E-006
  -2.59000000000000         1.039792832402967E-006
  -2.40000000000001         1.042655996249519E-006
  -2.20999999999999         1.050848148891008E-006
  -2.02000000000000         1.052065008723329E-006
  -1.83000000000000         1.054781485939998E-006
  -1.64000000000000         1.061950727068030E-006
  -1.45000000000000         1.063378670714057E-006
  -1.26000000000001         1.067073576111309E-006
  -1.06999999999999         1.075491450390135E-006
 -0.879999999999995         1.076785693477990E-006
 -0.689999999999998         1.079309991233943E-006
 -0.500000000000000         1.082889226333619E-006
 -0.310000000000002         1.090137166777990E-006
 -0.120000000000005         1.091653165183585E-006
  7.000000000000739E-002    1.094515721535250E-006
  0.260000000000005         1.099121662295763E-006
  0.450000000000003         1.100938745660379E-006
  0.640000000000001         1.110466676311059E-006
  0.829999999999998         1.111346800208703E-006
   1.02000000000000         1.114018633238468E-006
   1.21000000000001         1.117647661508917E-006
   1.40000000000001         1.120932546278171E-006
   1.59000000000000         1.123937819707901E-006
   1.78000000000000         1.126702988239756E-006
   1.97000000000000         1.129370230100798E-006
   2.16000000000000         1.131809620105272E-006
   2.34999999999999         1.142607720077738E-006
   2.54000000000001         1.143907337732600E-006
   2.73000000000000         1.147178277856486E-006
   2.92000000000000         1.151064735346183E-006
   3.11000000000000         1.155016171881671E-006
   3.30000000000000         1.158812617984044E-006
   3.48999999999999         1.162630875906578E-006
   3.68000000000001         1.166364232242264E-006
   3.87000000000000         1.170522154500276E-006
   4.06000000000000         1.173844203453016E-006
   4.25000000000000         1.177932993637956E-006
   4.44000000000000         1.181155639227144E-006
   4.63000000000000         1.185318197078829E-006
   4.82000000000001         1.188630474629194E-006
   5.01000000000001         1.193236709603022E-006
   5.20000000000000         1.196474178024004E-006
   5.39000000000000         1.200672051918376E-006
   5.58000000000000         1.204074355146617E-006
   5.77000000000000         1.207649945584603E-006
   5.96000000000001         1.211305065737144E-006
   6.15000000000001         1.214796439560722E-006
   6.34000000000000         1.218406963992055E-006
   6.53000000000000         1.221851160648251E-006