  -105.000000000000         4.376854508253853E-020
  -104.810000000000         1.206888042983927E-019
  -104.620000000000         1.693272800864363E-019
  -104.430000000000         1.805376786356800E-019
  -104.240000000000         1.556255295911894E-019
  -104.050000000000         1.058674267917814E-019
  -103.860000000000         4.916145962400615E-020
  -103.670000000000         4.782987770409100E-021
  -103.480000000000        -1.222928222406516E-020
  -103.290000000000         4.574405285188830E-021
  -103.100000000000         5.122542329484658E-020
  -102.910000000000         1.145540732459619E-019
  -102.720000000000         1.760904973721275E-019
  -102.530000000000         2.175089390257673E-019
  -102.340000000000         2.260316972064268E-019
  -102.150000000000         1.982239912852346E-019
  -101.960000000000         1.410772276749087E-019
  -101.770000000000         7.006183113906878E-020
  -101.580000000000         4.708146183840657E-021
  -101.390000000000        -3.700700869063730E-020
  -101.200000000000        -4.383919585575360E-020
  -101.010000000000        -1.451375580127451E-020
  -100.820000000000         4.192165584690629E-020
  -100.630000000000         1.087318163186245E-019
  -100.440000000000         1.663479409456128E-019
  -100.250000000000         1.980293404459985E-019
  -100.060000000000         1.946911450387927E-019
  -99.8700000000000         1.575032934303694E-019
  -99.6800000000000         9.751407707283274E-020
  -99.4900000000000         3.241192870054225E-020
  -99.3000000000000        -1.863507327240416E-020
  -99.1100000000000        -4.056686136433617E-020
  -98.9200000000000        -2.682521084601420E-020
  -98.7300000000000         1.872418260398224E-020
  -98.5400000000000         8.290285987084715E-020
  -98.3500000000000         1.470423212261737E-019
  -98.1600000000000         1.924056024013296E-019
  -97.9700000000000         2.056290757430462E-019
  -97.7800000000000         1.826016621767149E-019
  -97.5900000000000         1.296558841376976E-019
  -97.4000000000000         6.172805170800897E-020
  -97.2100000000000        -1.975941488677587E-021
  -97.0200000000000        -4.355136242660613E-020
  -96.8300000000000        -5.158666470367307E-020
  -96.6400000000000        -2.447002521060211E-020
  -96.4500000000000         2.915179406796137E-020
  -96.2600000000000         9.289859767171838E-020
  -96.0700000000000         1.474335587873336E-019
  -95.8800000000000         1.761017177346754E-019
  -95.6900000000000         1.697878600723764E-019
  -95.5000000000000         1.295794745647254E-019
  -95.3100000000000         6.646144335226048E-020
  -95.1200000000000        -1.866557401369642E-021
  -94.9300000000000        -5.612449934389588E-020
  -94.7400000000000        -8.104909808953048E-020
  -94.5500000000000        -6.983141937101254E-020
  -94.3600000000000        -2.610728016753120E-020
  -94.1700000000000         3.708103294099627E-020
  -93.9800000000000         1.010566850726982E-019
  -93.7900000000000         1.469240079937937E-019
  -93.6000000000000         1.610565693547916E-019
  -93.4100000000000         1.390611808819422E-019
  -93.2200000000000         8.706356321711852E-020
  -93.0300000000000         1.994181188075652E-020
  -92.8400000000000        -4.297785032031733E-020
  -92.6500000000000        -8.351338317586062E-020
  -92.4600000000000        -8.988841467043986E-020
  -92.2700000000000        -6.014397406739666E-020
  -92.0800000000000        -2.717844842019736E-021
  -91.8900000000000         6.597463076883705E-020
  -91.7000000000000         1.262612199113478E-019
  -91.5100000000000         1.608734163451473E-019
  -91.3200000000000         1.599108048887128E-019
  -91.1300000000000         1.236706562882190E-019
  -90.9400000000000         6.252138672460689E-020
  -90.7500000000000        -6.142210869277795E-021
  -90.5600000000000        -6.297398971383036E-020
  -90.3700000000000        -9.230293127992341E-020
  -90.1800000000000        -8.667401132451956E-020
  -89.9900000000000        -4.898543853924396E-020
  -89.8000000000000         8.395076367952250E-021
  -89.6100000000000         6.727553345804929E-020
  -89.4200000000000         1.089871288625935E-019
  -89.2300000000000         1.198812013808400E-019
  -89.0400000000000         9.537718021637019E-020
  -88.8500000000000         4.138027549921094E-020
  -88.6600000000000        -2.735054848195916E-020
  -88.4700000000000        -9.141714685864138E-020
  -88.2800000000000        -1.323593834715154E-019
  -88.0900000000000        -1.379776856850255E-019
  -87.9000000000000        -1.058590636473392E-019
  -87.7100000000000        -4.408913477171474E-020
  -87.5200000000000         3.105002480364231E-020
  -87.3300000000000         9.972563262318935E-020
  -87.1400000000000         1.441995553436203E-019
  -86.9500000000000         1.538446499710165E-019
  -86.7600000000000         1.280877880514567E-019
  -86.5700000000000         7.643554225728657E-020
  -86.3800000000000         1.558333324380509E-020
  -86.1900000000000        -3.554441116967535E-020
  -86.0000000000000        -6.137302145151634E-020
  -85.8100000000000        -5.424538850920747E-020
  -85.6200000000000        -1.664691962251605E-020
  -85.4300000000000         3.955620253314058E-020
  -85.2400000000000         9.663551711453929E-020
  -85.0500000000000         1.362432471782907E-019
  -84.8600000000000         1.448492514601270E-019
  -84.6700000000000         1.177887571516799E-019
  -84.4800000000000         6.074191314785412E-020
  -84.2900000000000        -1.179095873085342E-020
  -84.1000000000000        -8.058579248554583E-020
  -83.9100000000000        -1.271835385217849E-019
  -83.7200000000000        -1.391828732510323E-019
  -83.5300000000000        -1.137991328811217E-019
  -83.3400000000000        -5.865169638914399E-020
  -83.1500000000000         1.045229363588858E-020
  -82.9600000000000         7.409451587273641E-020
  -82.7700000000000         1.148515547914983E-019
  -82.5800000000000         1.223020912502334E-019
  -82.3900000000000         9.598429213187816E-020
  -82.2000000000000         4.545007236723413E-020
  -82.0100000000000        -1.259487821960634E-020
  -81.8200000000000        -5.923249552825998E-020
  -81.6300000000000        -7.891872373045759E-020
  -81.4400000000000        -6.408917866020119E-020
  -81.2500000000000        -1.744015084157298E-020
  -81.0600000000000         4.878512325268784E-020
  -80.8700000000000         1.163030243878675E-019
  -80.6800000000000         1.660715107603316E-019
  -80.4900000000000         1.838112741020320E-019
  -80.3000000000000         1.641608138002462E-019
  -80.1100000000000         1.122592871082952E-019
  -79.9200000000000         4.229880651223495E-020
  -79.7300000000000        -2.653462866915903E-020
  -79.5400000000000        -7.555837915284199E-020
  -79.3500000000000        -9.194052091398814E-020
  -79.1600000000000        -7.235161305588863E-020
  -78.9700000000000        -2.386321592329097E-020
  -78.7800000000000         3.816891636789519E-020
  -78.5900000000000         9.462353369706850E-020
  -78.4000000000000         1.282202001188964E-019
  -78.2100000000000         1.285800285557737E-019
  -78.0200000000000         9.526631210497470E-020
  -77.8300000000000         3.792008089282653E-020
  -77.6400000000000        -2.654821636335775E-020
  -77.4500000000000        -7.889502362545104E-020
  -77.2600000000000        -1.031764982588548E-019
  -77.0700000000000        -9.144513174354468E-020
  -76.8800000000000        -4.614562400489429E-020
  -76.6900000000000         2.049439866544905E-020
  -76.5000000000000         8.991797903993417E-020
  -76.3100000000000         1.425516219817148E-019
  -76.1200000000000         1.634471106032306E-019
  -75.9300000000000         1.466179248680407E-019
  -75.7400000000000         9.680750122994082E-020
  -75.5500000000000         2.816911484452263E-020
  -75.3600000000000        -3.976596094941600E-020
  -75.1700000000000        -8.766824564294652E-020
  -74.9800000000000        -1.019276052525392E-019
  -74.7900000000000        -7.852050392140096E-020
  -74.6000000000000        -2.411903728951091E-020
  -74.4100000000000         4.586939770946278E-020
  -74.2200000000000         1.117591082430305E-019
  -74.0300000000000         1.552493139348957E-019
  -73.8400000000000         1.646572560544238E-019
  -73.6500000000000         1.382113077348822E-019
  -73.4600000000000         8.445798577463303E-020
  -73.2700000000000         1.967593555916307E-020
  -73.0800000000000        -3.693992715381030E-020
  -72.8900000000000        -6.891499141741175E-020
  -72.7000000000000        -6.730976118130992E-020
  -72.5100000000000        -3.331509619181097E-020
  -72.3200000000000         2.212163746450770E-020
  -72.1300000000000         8.152683780979969E-020
  -71.9400000000000         1.260474341672465E-019
  -71.7500000000000         1.410188287320393E-019
  -71.5600000000000         1.203340342511137E-019
  -71.3700000000000         6.833731218989918E-020
  -71.1800000000000        -1.319018021998494E-021
  -70.9900000000000        -6.953340912936904E-020
  -70.8000000000000        -1.172161167884992E-019
  -70.6100000000000        -1.307707480903010E-019
  -70.4200000000000        -1.060087607960600E-019
  -70.2300000000000        -4.936642491795108E-020
  -70.0400000000000         2.392262389637476E-020
  -69.8500000000000         9.416662564241226E-020
  -69.6600000000000         1.428133913424802E-019
  -69.4700000000000         1.576955959015148E-019
  -69.2800000000000         1.364175391754816E-019
  -69.0900000000000         8.691348288481211E-020
  -68.9000000000000         2.502371138208334E-020
  -68.7100000000000        -3.020235028085095E-020
  -68.5200000000000        -6.210586841171105E-020
  -68.3300000000000        -6.128731244807165E-020
  -68.1400000000000        -2.832426637120606E-020
  -67.9500000000000         2.645008126621866E-020
  -67.7600000000000         8.603360257463858E-020
  -67.5700000000000         1.317952911302964E-019
  -67.3800000000000         1.489907049923366E-019
  -67.1900000000000         1.311423517166841E-019
  -67.0000000000000         8.200983683984859E-020
  -66.8100000000000         1.457693935440656E-020
  -66.6200000000000        -5.265173393877145E-020
  -66.4300000000000        -1.009719636463669E-019
  -66.2400000000000        -1.168759874271318E-019
  -66.0500000000000        -9.595599702712820E-020
  -65.8600000000000        -4.417893519525287E-020
  -65.6700000000000         2.383974054532786E-020
  -65.4800000000000         8.906202554846351E-020
  -65.2900000000000         1.335244722353064E-019
  -65.1000000000000         1.455094616678633E-019
  -64.9100000000000         1.228904312782301E-019
  -64.7200000000000         7.368266971517004E-020
  -64.5300000000000         1.364234540281017E-020
  -64.3400000000000        -3.838797115068101E-020
  -64.1500000000000        -6.603467723822307E-020
  -63.9600000000000        -6.023219484211822E-020
  -63.7700000000000        -2.193254028451112E-020
  -63.5800000000000         3.811061221587868E-020
  -63.3900000000000         1.024267435455840E-019
  -63.2000000000000         1.518870131451072E-019
  -63.0100000000000         1.712641108374275E-019
  -62.8200000000000         1.536753107661603E-019
  -62.6300000000000         1.026179325660411E-019
  -62.4400000000000         3.100797469026281E-020
  -62.2500000000000        -4.249872499610007E-020
  -62.0600000000000        -9.883931174131004E-020
  -61.8700000000000        -1.239906904643371E-019
  -61.6800000000000        -1.129559561837688E-019
  -61.4900000000000        -7.113489864874900E-020
  -61.3000000000000        -1.267753304593038E-020
  -61.1100000000000         4.370476633629262E-020
  -60.9200000000000         8.025265131298050E-020
  -60.7300000000000         8.538751183527468E-020
  -60.5400000000000         5.712629358786200E-020
  -60.3500000000000         3.683602487594729E-021
  -60.1600000000000        -5.891402843427598E-020
  -59.9700000000000        -1.115043397891896E-019
  -59.7800000000000        -1.373933325657688E-019
  -59.5900000000000        -1.272577978575447E-019
  -59.4000000000000        -8.192284142046772E-020
  -59.2100000000000        -1.220619645947182E-020
  -59.0200000000000         6.413184054604291E-020
  -58.8300000000000         1.274572241568281E-019
  -58.6400000000000         1.618870736761588E-019
  -58.4500000000000         1.598417758339426E-019
  -58.2600000000000         1.242017065592272E-019
  -58.0700000000000         6.743881299518278E-020
  -57.8800000000000         7.971557161241695E-021
  -57.6900000000000        -3.520124051763982E-020
  -57.5000000000000        -4.803233674592056E-020
  -57.3100000000000        -2.552118037217889E-020
  -57.1200000000000         2.681327335350969E-020
  -56.9300000000000         9.450879416490965E-020
  -56.7400000000000         1.583306397566473E-019
  -56.5500000000000         1.998311461225153E-019
  -56.3600000000000         2.066878633438521E-019
  -56.1700000000000         1.762712974523789E-019
  -55.9800000000000         1.164057881593096E-019
  -55.7900000000000         4.310323099151470E-020
  -55.6000000000000        -2.406891643339958E-020
  -55.4100000000000        -6.763559207517302E-020
  -55.2200000000000        -7.723564949598172E-020
  -55.0300000000000        -5.256152968089093E-020
  -54.8400000000000        -3.369844421946107E-021
  -54.6500000000000         5.343478339091354E-020
  -54.4600000000000         9.879471876765043E-020
  -54.2700000000000         1.171248720877500E-019
  -54.0800000000000         1.009361854569601E-019
  -53.8900000000000         5.310976513938536E-020
  -53.7000000000000        -1.384960058547924E-020
  -53.5100000000000        -8.137654822778937E-020
  -53.3200000000000        -1.301989929041896E-019
  -53.1300000000000        -1.459304954230768E-019
  -52.9400000000000        -1.232758864127136E-019
  -52.7500000000000        -6.762770869838918E-020
  -52.5600000000000         6.410240283718046E-021
  -52.3700000000000         7.914531128309656E-020
  -52.1800000000000         1.313744489426100E-019
  -51.9900000000000         1.498126815069835E-019
  -51.8000000000000         1.308127059778504E-019
  -51.6100000000000         8.131009225974977E-020
  -51.4200000000000         1.672694896107079E-020
  -51.2300000000000        -4.355656369068217E-020
  -51.0400000000000        -8.184974685365026E-020
  -50.8500000000000        -8.727916691804368E-020
  -50.6600000000000        -5.890838180127548E-020
  -50.4700000000000        -5.946122184889329E-021
  -50.2800000000000         5.501124689585538E-020
  -50.0900000000000         1.048926677423615E-019
  -49.9000000000000         1.277846517259102E-019
  -49.7100000000000         1.156415265717527E-019
  -49.5200000000000         7.070386950444712E-020
  -49.3300000000000         4.921723867010257E-021
  -49.1400000000000        -6.345255578237364E-020
  -48.9500000000000        -1.151162714009237E-019
  -48.7600000000000        -1.352911064604522E-019
  -48.5700000000000        -1.180025818878700E-019
  -48.3800000000000        -6.782033030533025E-020
  -48.1900000000000         1.447675838627357E-021
  -48.0000000000000         7.072820852054710E-020
  -47.8100000000000         1.211700239439173E-019
  -47.6200000000000         1.395556436330573E-019
  -47.4300000000000         1.220744555386233E-019
  -47.2400000000000         7.537127995196496E-020
  -47.0500000000000         1.457215602973099E-020
  -46.8600000000000        -4.113980891204683E-020
  -46.6700000000000        -7.411989526680582E-020
  -46.4800000000000        -7.341080570011314E-020
  -46.2900000000000        -3.795324774850650E-020
  -46.1000000000000         2.307618566349149E-020
  -45.9100000000000         9.290124673659285E-020
  -45.7200000000000         1.519908685798025E-019
  -45.5300000000000         1.837021081121479E-019
  -45.3400000000000         1.790794828948238E-019
  -45.1500000000000         1.394190646342689E-019
  -44.9600000000000         7.586090706078148E-020
  -44.7700000000000         6.139013640169943E-021
  -44.5800000000000        -5.055965614888447E-020
  -44.3900000000000        -7.913357609116548E-020
  -44.2000000000000        -7.289919014593983E-020
  -44.0100000000000        -3.546519097926871E-020
  -43.8200000000000         2.039281417976526E-020
  -43.6300000000000         7.652929254867197E-020
  -43.4400000000000         1.147918969637439E-019
  -43.2500000000000         1.223864681304392E-019
  -43.0600000000000         9.567632451710715E-020
  -42.8700000000000         4.130388144920505E-020
  -42.6800000000000        -2.569498810908669E-020
  -42.4900000000000        -8.623487764373681E-020
  -42.3000000000000        -1.227182530409955E-019
  -42.1100000000000        -1.241565095876863E-019
  -41.9200000000000        -8.938768930582487E-020
  -41.7300000000000        -2.745650142759137E-020
  -41.5400000000000         4.495541942089859E-020
  -41.3500000000000         1.083063008940721E-019
  -41.1600000000000         1.457950067247414E-019
  -40.9700000000000         1.481625387682060E-019
  -40.7800000000000         1.163021359472733E-019
  -40.5900000000000         6.092311203911816E-020
  -40.4000000000000        -6.286018958623570E-022
  -40.2100000000000        -4.946414450327579E-020
  -40.0200000000000        -7.067775115380148E-020
  -39.8300000000000        -5.770183433693693E-020
  -39.6400000000000        -1.422944695963752E-020
  -39.4500000000000         4.685329831380406E-020
  -39.2600000000000         1.072180162100613E-019
  -39.0700000000000         1.484442454858220E-019
  -38.8800000000000         1.574180033864783E-019
  -38.6900000000000         1.302062922078312E-019
  -38.5000000000000         7.327117927175733E-020
  -38.3100000000000         1.659307434173607E-021
  -38.1200000000000        -6.531313828973341E-020
  -37.9300000000000        -1.096256823639391E-019
  -37.7400000000000        -1.197483853433524E-019
  -37.5500000000000        -9.395488621755033E-020
  -37.3600000000000        -4.079297724085130E-020
  -37.1700000000000         2.342030900969991E-020
  -36.9800000000000         7.935074298910308E-020
  -36.7900000000000         1.102706051879704E-019
  -36.6000000000000         1.069280477597175E-019
  -36.4100000000000         7.025192723452829E-020
  -36.2200000000000         1.110409952493562E-020
  -36.0300000000000        -5.285608593570132E-020
  -35.8400000000000        -1.022919049640771E-019
  -35.6500000000000        -1.218107669518529E-019
  -35.4600000000000        -1.044539982586620E-019
  -35.2700000000000        -5.374922170866227E-020
  -35.0800000000000         1.727025952663313E-020
  -34.8900000000000         8.979182075999541E-020
  -34.7000000000000         1.446126278020894E-019
  -34.5100000000000         1.676302234224459E-019
  -34.3200000000000         1.538479127696434E-019
  -34.1300000000000         1.087407849643233E-019
  -33.9400000000000         4.659283731232556E-020
  -33.7500000000000        -1.370827623462174E-020
  -33.5600000000000        -5.419687234321363E-020
  -33.3700000000000        -6.307034042635060E-020
  -33.1800000000000        -3.812297190481708E-020
  -32.9900000000000         1.262454140361124E-020
  -32.8000000000000         7.328080439212040E-020
  -32.6100000000000         1.247383837034893E-019
  -32.4200000000000         1.502757234185825E-019
  -32.2300000000000         1.404816267933586E-019
  -32.0400000000000         9.607381218933363E-020
  -31.8500000000000         2.779066672382798E-020
  -31.6600000000000        -4.662052792335254E-020
  -31.4700000000000        -1.074563271204134E-019
  -31.2800000000000        -1.386939862861556E-019
  -31.0900000000000        -1.325797868282221E-019
  -30.9000000000000        -9.183506446203871E-020
  -30.7100000000000        -2.883727080027779E-020
  -30.5200000000000         3.798498240268427E-020
  -30.3300000000000         8.949213498137692E-020
  -30.1400000000000         1.113557454283473E-019
  -29.9500000000000         9.816211380389871E-020
  -29.7600000000000         5.491630338290018E-020
  -29.5700000000000        -4.476815900670522E-021
  -29.3800000000000        -6.130439852026738E-020
  -29.1900000000000        -9.752118822539094E-020
  -29.0000000000000        -1.010233699631020E-019
  -28.8100000000000        -6.919405496800016E-020
  -28.6200000000000        -9.692756262889400E-021
  -28.4300000000000         6.174072495928222E-020
  -28.2400000000000         1.258297862427202E-019
  -28.0500000000000         1.653285700698433E-019
  -27.8600000000000         1.699905355374883E-019
  -27.6700000000000         1.394916268213631E-019
  -27.4800000000000         8.346246656805127E-020
  -27.2900000000000         1.862945796501281E-020
  -27.1000000000000        -3.609453002488706E-020
  -26.9100000000000        -6.513639115166429E-020
  -26.7200000000000        -6.079674047077968E-020
  -26.5300000000000        -2.547275729640676E-020
  -26.3400000000000         2.907751573953964E-020
  -26.1500000000000         8.521787615345521E-020
  -25.9600000000000         1.246521355960401E-019
  -25.7700000000000         1.338567332018666E-019
  -25.5800000000000         1.081389733366909E-019
  -25.3900000000000         5.312930834031973E-020
  -25.2000000000000        -1.673719551825713E-020
  -25.0100000000000        -8.231827866487776E-020
  -24.8200000000000        -1.252579610186346E-019
  -24.6300000000000        -1.332859364596929E-019
  -24.4400000000000        -1.037864596043073E-019
  -24.2500000000000        -4.459843648103373E-020
  -24.0600000000000         2.819318815541097E-020
  -23.8700000000000         9.484461166651963E-020
  -23.6800000000000         1.375965044745027E-019
  -23.4900000000000         1.457389104351824E-019
  -23.3000000000000         1.186267485587127E-019
  -23.1100000000000         6.577013626668058E-020
  -22.9200000000000         3.976835054805706E-021
  -22.7300000000000        -4.761579910219647E-020
  -22.5400000000000        -7.316797657125492E-020
  -22.3500000000000        -6.478421636155810E-020
  -22.1600000000000        -2.482998055979654E-020
  -21.9700000000000         3.475268033943653E-020
  -21.7800000000000         9.593218358096215E-020
  -21.5900000000000         1.398677408951931E-019
  -21.4000000000000         1.524513887352004E-019
  -21.2100000000000         1.284984255413404E-019
  -21.0200000000000         7.335877410367887E-020
  -20.8300000000000         1.467158349927653E-021
  -20.6400000000000        -6.775894138343240E-020
  -20.4500000000000        -1.154876751648766E-019
  -20.2600000000000        -1.288896605541162E-019
  -20.0700000000000        -1.048281226595808E-019
  -19.8800000000000        -5.075098038903055E-020
  -19.6900000000000         1.747285578887448E-020
  -19.5000000000000         8.014601440452748E-020
  -19.3100000000000         1.194364196454277E-019
  -19.1200000000000         1.245280142914869E-019
  -18.9300000000000         9.474052356167137E-020
  -18.7400000000000         3.971383053299731E-020
  -18.5500000000000        -2.340257867455144E-020
  -18.3600000000000        -7.494838888591343E-020
  -18.1700000000000        -9.849519068455256E-020
  -17.9800000000000        -8.566854809787998E-020
  -17.7900000000000        -3.864884526533431E-020
  -17.6000000000000         3.037767130411532E-020
  -17.4100000000000         1.026626577269754E-019
  -17.2200000000000         1.582412157946861E-019
  -17.0300000000000         1.816369824009178E-019
  -16.8400000000000         1.662821426954807E-019
  -16.6500000000000         1.163791658967779E-019
  -16.4600000000000         4.566801522678465E-020
  -16.2700000000000        -2.654514195864598E-020
  -16.0800000000000        -8.094931432872471E-020
  -15.8900000000000        -1.037697181095380E-019
  -15.7000000000000        -9.068341088567662E-020
  -15.5100000000000        -4.797727059389786E-020
  -15.3200000000000         9.381417411637823E-021
  -15.1300000000000         6.219381918515406E-020
  -14.9400000000000         9.270004410978234E-020
  -14.7500000000000         8.982394067352114E-020
  -14.5600000000000         5.247339826039945E-020
  -14.3700000000000        -1.005845857737411E-020
  -14.1800000000000        -8.070989251517765E-020
  -13.9900000000000        -1.395336937480033E-019
  -13.8000000000000        -1.694394478688790E-019
  -13.6100000000000        -1.611351571934586E-019
  -13.4200000000000        -1.158352408128628E-019
  -13.2300000000000        -4.494576029985473E-020
  -13.0400000000000         3.318525375976734E-020
  -12.8500000000000         9.850992699419239E-020
  -12.6600000000000         1.349936682092688E-019
  -12.4700000000000         1.351454943438151E-019
  -12.2800000000000         1.020615425577928E-019
  -12.0900000000000         4.840295299087444E-020
  -11.9000000000000        -7.382962071735674E-021
  -11.7100000000000        -4.649554066324839E-020
  -11.5200000000000        -5.529194306965153E-020
  -11.3300000000000        -2.928210414506603E-020
  -11.1400000000000         2.554801408026608E-020
  -10.9500000000000         9.446728545510637E-020
  -10.7600000000000         1.582798505797953E-019
  -10.5700000000000         1.989075045224268E-019
  -10.3800000000000         2.046468668258077E-019
  -10.1900000000000         1.735704652621146E-019
  -10.0000000000000         1.140841011308334E-019
  -9.81000000000000         4.248314677893998E-020
  -9.62000000000000        -2.177577810126892E-020
  -9.42999999999999        -6.170933295099599E-020
  -9.23999999999999        -6.771014569484566E-020
  -9.05000000000000        -4.029385069962172E-020
  -8.86000000000000         1.010840366796174E-020
  -8.67000000000000         6.625341394464902E-020
  -8.48000000000000         1.091833037687056E-019
  -8.28999999999999         1.238315350508804E-019
  -8.09999999999999         1.035013473002626E-019
  -7.91000000000000         5.190736681791952E-020
  -7.72000000000000        -1.781863237352130E-020
  -7.53000000000000        -8.687130489484922E-020
  -7.34000000000000        -1.361782003455087E-019
  -7.15000000000001        -1.519021347703323E-019
  -6.95999999999999        -1.294473609299172E-019
  -6.77000000000000        -7.481068281966763E-020
  -6.58000000000000        -2.884769609422760E-021
  -6.39000000000000         6.679875401643188E-020
  -6.20000000000000         1.156570351154079E-019
  -6.01000000000001         1.313567416860363E-019
  -5.81999999999999         1.112897818091529E-019
  -5.63000000000000         6.321471420758251E-020
  -5.44000000000000         2.881675157125171E-021
  -5.25000000000000        -5.065876182312060E-020
  -5.06000000000000        -8.068671655050414E-020
  -4.87000000000000        -7.773821361669258E-020
  -4.67999999999999        -4.239005545967738E-020
  -4.48999999999999         1.490291916021540E-020
  -4.30000000000000         7.686715785854555E-020
  -4.11000000000000         1.244750727576616E-019
  -3.92000000000000         1.425430504478333E-019
  -3.73000000000000         1.242341423562923E-019
  -3.53999999999999         7.314960494445464E-020
  -3.34999999999999         2.389718803869587E-021
  -3.16000000000000        -6.915409793908247E-020
  -2.97000000000000        -1.222043527513437E-019
  -2.78000000000000        -1.426299698154896E-019
  -2.59000000000000        -1.254967561284510E-019
  -2.40000000000001        -7.645723293969374E-020
  -2.20999999999999        -1.007633479194146E-020
  -2.02000000000000         5.441924106798834E-020
  -1.83000000000000         9.873361789716020E-020
  -1.64000000000000         1.108143170563463E-019
  -1.45000000000000         8.834321586583348E-020
  -1.26000000000001         3.938954304518818E-020
  -1.06999999999999        -1.996974086225884E-020
 -0.879999999999995        -7.037504001162468E-020
 -0.689999999999998        -9.488264273468614E-020
 -0.500000000000000        -8.397746692920182E-020
 -0.310000000000002        -3.843718155767798E-020
 -0.120000000000005         3.079059154503536E-020
  7.000000000000739E-002    1.056664454091000E-019
  0.260000000000005         1.662025888168840E-019
  0.450000000000003         1.961841984932296E-019
  0.640000000000001         1.878152952116123E-019
  0.829999999999998         1.439455843741039E-019
   1.02000000000000         7.723172607811338E-020
   1.21000000000001         6.471554072520124E-021
   1.40000000000001        -4.883137788465115E-020
   1.59000000000000        -7.409915881204996E-020
   1.78000000000000        -6.387072068914317E-020
   1.97000000000000        -2.333184382777916E-020
   2.16000000000000         3.326177231419923E-020
   2.34999999999999         8.680667205724403E-020
   2.54000000000001         1.189868503896009E-019
   2.73000000000000         1.176815689839816E-019
   2.92000000000000         8.057517377645388E-020
   3.11000000000000         1.592271874530230E-020
   3.30000000000000        -5.975019968649150E-020
   3.48999999999999        -1.263496909474635E-019
   3.68000000000001        -1.659615951526626E-019
   3.87000000000000        -1.679854512035906E-019
   4.06000000000000        -1.321683185101360E-019
   4.25000000000000        -6.865784161833830E-020
   4.44000000000000         4.941347727473790E-021
   4.63000000000000         6.865228892910396E-020
   4.82000000000001         1.058732997177935E-019
   5.01000000000001         1.081192476507387E-019
   5.20000000000000         7.738324558615775E-020
   5.39000000000000         2.544090458364580E-020
   5.58000000000000        -2.969187093340641E-020
   5.77000000000000        -6.911355964759086E-020
   5.96000000000001        -7.864792885850264E-020
   6.15000000000001        -5.308064577475314E-020
   6.34000000000000         2.213169191781899E-021
   6.53000000000000         7.273085163556887E-020