  -105.000000000000         1.714200021900546E-019
  -104.810000000000         1.298390625332068E-019
  -104.620000000000         6.065407443080375E-020
  -104.430000000000        -1.674842887769684E-020
  -104.240000000000        -8.082029343846685E-020
  -104.050000000000        -1.140578854371736E-019
  -103.860000000000        -1.080316768714509E-019
  -103.670000000000        -6.577710455184639E-020
  -103.480000000000        -8.516356971749990E-022
  -103.290000000000         6.666347229818474E-020
  -103.100000000000         1.160457656785938E-019
  -102.910000000000         1.319816025589020E-019
  -102.720000000000         1.090264974770076E-019
  -102.530000000000         5.318930747152094E-020
  -102.340000000000        -1.980982123426053E-020
  -102.150000000000        -8.909939842269487E-020
  -101.960000000000        -1.347166046253538E-019
  -101.770000000000        -1.434160151414921E-019
  -101.580000000000        -1.125423155843340E-019
  -101.390000000000        -5.083535060079765E-020
  -101.200000000000         2.407708563288841E-020
  -101.010000000000         9.077602530628753E-020
  -100.820000000000         1.302532969160445E-019
  -100.630000000000         1.314090925224768E-019
  -100.440000000000         9.424564483460279E-020
  -100.250000000000         2.983639914704153E-020
  -100.060000000000        -4.290894051083747E-020
  -99.8700000000000        -1.027374905215027E-019
  -99.6800000000000        -1.322129154881219E-019
  -99.4900000000000        -1.227640567833424E-019
  -99.3000000000000        -7.716570338722995E-020
  -99.1100000000000        -8.731466480723259E-021
  -98.9200000000000         6.255423172422427E-020
  -98.7300000000000         1.158484791666870E-019
  -98.5400000000000         1.355176641862609E-019
  -98.3500000000000         1.156911423940282E-019
  -98.1600000000000         6.197142732613718E-020
  -97.9700000000000        -1.019601954348826E-020
  -97.7800000000000        -8.001349128411776E-020
  -97.5900000000000        -1.273707372934246E-019
  -97.4000000000000        -1.386782072768096E-019
  -97.2100000000000        -1.108052054483457E-019
  -97.0200000000000        -5.198533646557112E-020
  -96.8300000000000         2.057379332135573E-020
  -96.6400000000000         8.568852066999964E-020
  -96.4500000000000         1.243585646073409E-019
  -96.2600000000000         1.252977812425318E-019
  -96.0700000000000         8.822257221514066E-020
  -95.8800000000000         2.393580812377057E-020
  -95.6900000000000        -4.881865289474969E-020
  -95.5000000000000        -1.088110080532855E-019
  -95.3100000000000        -1.384990256375463E-019
  -95.1200000000000        -1.291266630032604E-019
  -94.9300000000000        -8.327298743964400E-020
  -94.7400000000000        -1.411648089254735E-020
  -94.5500000000000         5.837360044850313E-020
  -94.3600000000000         1.132219175813229E-019
  -94.1700000000000         1.345374821016838E-019
  -93.9800000000000         1.161433146391731E-019
  -93.7900000000000         6.339301363373438E-020
  -93.6000000000000        -8.365577481240936E-021
  -93.4100000000000        -7.824040300140135E-020
  -93.2200000000000        -1.258632951363936E-019
  -93.0300000000000        -1.373052517290110E-019
  -92.8400000000000        -1.091169429501681E-019
  -92.6500000000000        -4.932656272943490E-020
  -92.4600000000000         2.488421923005862E-020
  -92.2700000000000         9.214568108567719E-020
  -92.0800000000000         1.330705433623859E-019
  -91.8900000000000         1.358512224356631E-019
  -91.7000000000000         9.966949577496730E-020
  -91.5100000000000         3.492922807103883E-020
  -91.3200000000000        -3.976263806818446E-020
  -91.1300000000000        -1.029962596186455E-019
  -90.9400000000000        -1.367709296803701E-019
  -90.7500000000000        -1.317086430556249E-019
  -90.5600000000000        -8.975045179032232E-020
  -90.3700000000000        -2.355469037891138E-020
  -90.1800000000000         4.721978030256951E-020
  -89.9900000000000         1.016569497770512E-019
  -89.8000000000000         1.236823123329545E-019
  -89.6100000000000         1.067490352288673E-019
  -89.4200000000000         5.575603266009450E-020
  -89.2300000000000        -1.435778129867294E-020
  -89.0400000000000        -8.293903290697467E-020
  -88.8500000000000        -1.296149342655865E-019
  -88.6600000000000        -1.402191527279584E-019
  -88.4700000000000        -1.109249388422748E-019
  -88.2800000000000        -4.938196946497821E-020
  -88.0900000000000         2.747116527271929E-020
  -87.9000000000000         9.827622983379398E-020
  -87.7100000000000         1.433878882336779E-019
  -87.5200000000000         1.504956098309658E-019
  -87.3300000000000         1.181198878569922E-019
  -87.1400000000000         5.598525682915500E-020
  -86.9500000000000        -1.783049626757193E-020
  -86.7600000000000        -8.214687805010158E-020
  -86.5700000000000        -1.188143041926461E-019
  -86.3800000000000        -1.179534666147709E-019
  -86.1900000000000        -8.077684007159924E-020
  -86.0000000000000        -1.917077317477457E-020
  -85.8100000000000         4.783573669845568E-020
  -85.6200000000000         9.967781790991675E-020
  -85.4300000000000         1.202955326525542E-019
  -85.2400000000000         1.028479552677703E-019
  -85.0500000000000         5.173464392741147E-020
  -84.8600000000000        -1.865397904137375E-020
  -84.6700000000000        -8.808887144350765E-020
  -84.4800000000000        -1.363554144334800E-019
  -84.2900000000000        -1.491195766553003E-019
  -84.1000000000000        -1.221140361014868E-019
  -83.9100000000000        -6.242761322039867E-020
  -83.7200000000000         1.348916501549989E-020
  -83.5300000000000         8.453832051413783E-020
  -83.3400000000000         1.310470576309525E-019
  -83.1500000000000         1.404337477053525E-019
  -82.9600000000000         1.108182763663959E-019
  -82.7700000000000         5.153005061177184E-020
  -82.5800000000000        -1.962721438291302E-020
  -82.3900000000000        -8.155560056365750E-020
  -82.2000000000000        -1.159880777424768E-019
  -82.0100000000000        -1.127898571403478E-019
  -81.8200000000000        -7.290355577912380E-020
  -81.6300000000000        -8.081404799820492E-021
  -81.4400000000000         6.252577876574841E-020
  -81.2500000000000         1.179402035930927E-019
  -81.0600000000000         1.414735811340767E-019
  -80.8700000000000         1.256081945363495E-019
  -80.6800000000000         7.421846614269945E-020
  -80.4900000000000         1.483414461394805E-021
  -80.3000000000000        -7.219475554326930E-020
  -80.1100000000000        -1.260799418422767E-019
  -79.9200000000000        -1.450909947755467E-019
  -79.7300000000000        -1.241565509848902E-019
  -79.5400000000000        -6.967656047926751E-020
  -79.3500000000000         2.334499498708715E-021
  -79.1600000000000         7.089148073639264E-020
  -78.9700000000000         1.161303375779157E-019
  -78.7800000000000         1.250808269952356E-019
  -78.5900000000000         9.543572022759763E-020
  -78.4000000000000         3.621091318823553E-020
  -78.2100000000000        -3.489908192183695E-020
  -78.0200000000000        -9.669574554773830E-020
  -77.8300000000000        -1.306683324699670E-019
  -77.6400000000000        -1.264002254310246E-019
  -77.4500000000000        -8.462372911432415E-020
  -77.2600000000000        -1.704203887269343E-020
  -77.0700000000000         5.703104240885330E-020
  -76.8800000000000         1.162484749981986E-019
  -76.6900000000000         1.434183141706706E-019
  -76.5000000000000         1.305121791194125E-019
  -76.3100000000000         8.103344692079183E-020
  -76.1200000000000         9.043583333761752E-021
  -75.9300000000000        -6.488240557549970E-020
  -75.7400000000000        -1.195989178991370E-019
  -75.5500000000000        -1.394987862607372E-019
  -75.3600000000000        -1.190085736690954E-019
  -75.1700000000000        -6.416881917757631E-020
  -74.9800000000000         9.145388869964129E-021
  -74.7900000000000         7.983180815096105E-020
  -74.6000000000000         1.276539400520581E-019
  -74.4100000000000         1.390594936401985E-019
  -74.2200000000000         1.110516304542147E-019
  -74.0300000000000         5.200296389505722E-020
  -73.8400000000000        -2.081812709290575E-020
  -73.6500000000000        -8.629059377995657E-020
  -73.4600000000000        -1.255889866367096E-019
  -73.2700000000000        -1.276489076351881E-019
  -73.0800000000000        -9.235933664112624E-020
  -72.8900000000000        -3.055537932202609E-020
  -72.7000000000000         3.918022003088828E-020
  -72.5100000000000         9.596852513303509E-020
  -72.3200000000000         1.227478472641420E-019
  -72.1300000000000         1.112705254388562E-019
  -71.9400000000000         6.453191476360739E-020
  -71.7500000000000        -4.074284255675639E-021
  -71.5600000000000        -7.463126001824021E-020
  -71.3700000000000        -1.264805211184548E-019
  -71.1800000000000        -1.442271952214281E-019
  -70.9900000000000        -1.222191231439258E-019
  -70.8000000000000        -6.619658516609126E-020
  -70.6100000000000         8.360267835765651E-021
  -70.4200000000000         8.069464052239684E-020
  -70.2300000000000         1.307436799307160E-019
  -70.0400000000000         1.448885367279626E-019
  -69.8500000000000         1.198314977809168E-019
  -69.6600000000000         6.349166596835606E-020
  -69.4700000000000        -7.334728691036062E-021
  -69.2800000000000        -7.187633671202455E-020
  -69.0900000000000        -1.114377748903249E-019
  -68.9000000000000        -1.148457586800445E-019
  -68.7100000000000        -8.169992876265765E-020
  -68.5200000000000        -2.246849934890901E-020
  -68.3300000000000         4.460994305424459E-020
  -68.1400000000000         9.891429913040084E-020
  -67.9500000000000         1.235338827465514E-019
  -67.7600000000000         1.102729504605441E-019
  -67.5700000000000         6.209952563569612E-020
  -67.3800000000000        -7.670887189820585E-021
  -67.1900000000000        -7.920929932181366E-020
  -67.0000000000000        -1.319055590388490E-019
  -66.8100000000000        -1.503393604454649E-019
  -66.6200000000000        -1.287664327218841E-019
  -66.4300000000000        -7.282176637671692E-020
  -66.2400000000000         2.060898019697746E-021
  -66.0500000000000         7.506606173002452E-020
  -65.8600000000000         1.259764960554236E-019
  -65.6700000000000         1.409838914764181E-019
  -65.4800000000000         1.166445706905006E-019
  -65.2900000000000         6.083364449081228E-020
  -65.1000000000000        -9.577539016077858E-021
  -64.9100000000000        -7.364623065681928E-020
  -64.7200000000000        -1.124576336718514E-019
  -64.5300000000000        -1.146303599001819E-019
  -64.3400000000000        -7.962992511273929E-020
  -64.1500000000000        -1.792599102937429E-020
  -63.9600000000000         5.205529649888760E-020
  -63.7700000000000         1.093002271898316E-019
  -63.5800000000000         1.363369816955242E-019
  -63.3900000000000         1.243415775592342E-019
  -63.2000000000000         7.573416006887866E-020
  -63.0100000000000         3.513698684441916E-021
  -62.8200000000000        -7.246721793746201E-020
  -62.6300000000000        -1.311981201196951E-019
  -62.4400000000000        -1.565275794127640E-019
  -62.2500000000000        -1.417741689485311E-019
  -62.0600000000000        -9.161717989164607E-020
  -61.8700000000000        -2.073059639171571E-020
  -61.6800000000000         5.045084449834333E-020
  -61.4900000000000         1.016256041126082E-019
  -61.3000000000000         1.184878105370993E-019
  -61.1100000000000         9.686297050478039E-020
  -60.9200000000000         4.391040396337455E-020
  -60.7300000000000        -2.396648530722437E-020
  -60.5400000000000        -8.590205623478658E-020
  -60.3500000000000        -1.226571385912831E-019
  -60.1600000000000        -1.222491599680033E-019
  -59.9700000000000        -8.349178040157825E-020
  -59.7800000000000        -1.641774135483466E-020
  -59.5900000000000         6.054146430232258E-020
  -59.4000000000000         1.258129471980375E-019
  -59.2100000000000         1.608722933174261E-019
  -59.0200000000000         1.555920697796895E-019
  -58.8300000000000         1.112082832720698E-019
  -58.6400000000000         4.003741289630664E-020
  -58.4500000000000        -3.799447533905507E-020
  -58.2600000000000        -1.010275451067057E-019
  -58.0700000000000        -1.315212184399169E-019
  -57.8800000000000        -1.212820521375592E-019
  -57.6900000000000        -7.381409282472905E-020
  -57.5000000000000        -3.310782824995950E-021
  -57.3100000000000         6.942700643189667E-020
  -57.1200000000000         1.229808104347180E-019
  -56.9300000000000         1.414959645381009E-019
  -56.7400000000000         1.192728579420918E-019
  -56.5500000000000         6.243040854968637E-020
  -56.3600000000000        -1.285897472199717E-020
  -56.1700000000000        -8.506920651508060E-020
  -55.9800000000000        -1.335990374764013E-019
  -55.7900000000000        -1.447992710119008E-019
  -55.6000000000000        -1.159786098386763E-019
  -55.4100000000000        -5.620162218500092E-020
  -55.2200000000000         1.636820926364173E-020
  -55.0300000000000         7.981061524954870E-020
  -54.8400000000000         1.149149334528148E-019
  -54.6500000000000         1.108767089863095E-019
  -54.4600000000000         6.854973611240655E-020
  -54.2700000000000         2.846471883967058E-022
  -54.0800000000000        -7.362503040432872E-020
  -53.8900000000000        -1.308754234080869E-019
  -53.7000000000000        -1.537375660883647E-019
  -53.5100000000000        -1.343526724130927E-019
  -53.3200000000000        -7.715344903141161E-020
  -53.1300000000000         2.330704176001472E-021
  -52.9400000000000         8.195195857183778E-020
  -52.7500000000000         1.393937663098341E-019
  -52.5600000000000         1.586920438374667E-019
  -52.3700000000000         1.349040264679809E-019
  -52.1800000000000         7.554573360878852E-020
  -51.9900000000000        -1.629234850421077E-021
  -51.8000000000000        -7.385867349610846E-020
  -51.6100000000000        -1.200703178381267E-019
  -51.4200000000000        -1.270761701690610E-019
  -51.2300000000000        -9.343434245785503E-020
  -51.0400000000000        -2.983651825292924E-020
  -50.8500000000000         4.409422038644978E-020
  -50.6600000000000         1.056462422173653E-019
  -50.4700000000000         1.357682629493133E-019
  -50.2800000000000         1.247202756609570E-019
  -50.0900000000000         7.495513548031782E-020
  -49.9000000000000         3.929614176824153E-022
  -49.7100000000000        -7.767463118368476E-020
  -49.5200000000000        -1.368247918981238E-019
  -49.3300000000000        -1.600466514890422E-019
  -49.1400000000000        -1.406711663111584E-019
  -48.9500000000000        -8.425334212360304E-020
  -48.7600000000000        -6.873006518550487E-021
  -48.5700000000000         6.962249796957297E-020
  -48.3800000000000         1.240105315415126E-019
  -48.1900000000000         1.418263476447566E-019
  -48.0000000000000         1.194427529019983E-019
  -47.8100000000000         6.493395848804592E-020
  -47.6200000000000        -4.476090001720065E-021
  -47.4300000000000        -6.758257583506290E-020
  -47.2400000000000        -1.054443732557815E-019
  -47.0500000000000        -1.068797090109122E-019
  -46.8600000000000        -7.163579843466009E-020
  -46.6700000000000        -1.035143865894369E-020
  -46.4800000000000         5.863422777961981E-020
  -46.2900000000000         1.146725673332283E-019
  -46.1000000000000         1.408239669811930E-019
  -45.9100000000000         1.287643135668387E-019
  -45.7200000000000         8.116934828818775E-020
  -45.5300000000000         1.090437878925165E-020
  -45.3400000000000        -6.272008451071596E-020
  -45.1500000000000        -1.195151514110642E-019
  -44.9600000000000        -1.441765971841475E-019
  -44.7700000000000        -1.305877107219370E-019
  -44.5800000000000        -8.345514606729674E-020
  -44.3900000000000        -1.685218257907708E-020
  -44.2000000000000         4.987650576494736E-020
  -44.0100000000000         9.765974076134306E-020
  -43.8200000000000         1.131114964589391E-019
  -43.6300000000000         9.227975727958471E-020
  -43.4400000000000         4.168879304559098E-020
  -43.2500000000000        -2.359313268382906E-020
  -43.0600000000000        -8.428957874562658E-020
  -42.8700000000000        -1.224181048379205E-019
  -42.6800000000000        -1.264069427962729E-019
  -42.4900000000000        -9.439104153702248E-020
  -42.3000000000000        -3.476486678177871E-020
  -42.1100000000000         3.616454605793859E-020
  -41.9200000000000         9.877069171786238E-020
  -41.7300000000000         1.356604114153802E-019
  -41.5400000000000         1.366205319700126E-019
  -41.3500000000000         1.015492946937719E-019
  -41.1600000000000         4.052006680923523E-020
  -40.9700000000000        -2.906685639858318E-020
  -40.7800000000000        -8.745005009784629E-020
  -40.5900000000000        -1.181700569291634E-019
  -40.4000000000000        -1.127927398818987E-019
  -40.2100000000000        -7.332546700385360E-020
  -40.0200000000000        -1.163236587484316E-020
  -39.8300000000000         5.397819724013500E-020
  -39.6400000000000         1.040171140827943E-019
  -39.4500000000000         1.234328881919501E-019
  -39.2600000000000         1.059879571914344E-019
  -39.0700000000000         5.613668121304524E-020
  -38.8800000000000        -1.215937557189531E-020
  -38.6900000000000        -7.938104202980522E-020
  -38.5000000000000        -1.260685815536774E-019
  -38.3100000000000        -1.385020446134833E-019
  -38.1200000000000        -1.127871594017534E-019
  -37.9300000000000        -5.612030322118367E-020
  -37.7400000000000         1.518987500127714E-020
  -37.5500000000000         8.041506611883610E-020
  -37.3600000000000         1.204652008265314E-019
  -37.1700000000000         1.235305427170721E-019
  -36.9800000000000         8.862787096518505E-020
  -36.7900000000000         2.598047122799401E-020
  -36.6000000000000        -4.590515531813993E-020
  -36.4100000000000        -1.056253752392083E-019
  -36.2200000000000        -1.351536444969899E-019
  -36.0300000000000        -1.251561515103182E-019
  -35.8400000000000        -7.777766579228916E-020
  -35.6500000000000        -6.070674694603551E-021
  -35.4600000000000         6.976784369299619E-020
  -35.2700000000000         1.282472642030325E-019
  -35.0800000000000         1.528098288271127E-019
  -34.8900000000000         1.366227387298329E-019
  -34.7000000000000         8.455167106076436E-020
  -34.5100000000000         1.174572754482280E-020
  -34.3200000000000        -6.076440239013878E-020
  -34.1300000000000        -1.121890536022849E-019
  -33.9400000000000        -1.280449963259308E-019
  -33.7500000000000        -1.043850112388266E-019
  -33.5600000000000        -4.893735300980112E-020
  -33.3700000000000         2.119518412943732E-020
  -33.1800000000000         8.460604322661382E-020
  -32.9900000000000         1.219231505046751E-019
  -32.8000000000000         1.215288121129900E-019
  -32.6100000000000         8.296498680840848E-020
  -32.4200000000000         1.703114973001952E-020
  -32.2300000000000        -5.742308501698124E-020
  -32.0400000000000        -1.190308734488036E-019
  -31.8500000000000        -1.501218244674038E-019
  -31.6600000000000        -1.418064833612522E-019
  -31.4700000000000        -9.648165254312382E-020
  -31.2800000000000        -2.706622272234324E-020
  -31.0900000000000         4.678366473882242E-020
  -30.9000000000000         1.043695015953628E-019
  -30.7100000000000         1.299019247821731E-019
  -30.5200000000000         1.169923457288382E-019
  -30.3300000000000         7.040310680247655E-020
  -30.1400000000000         4.573959172799252E-021
  -29.9500000000000        -6.062894368078404E-020
  -29.7600000000000        -1.057023614725463E-019
  -29.5700000000000        -1.171598931048303E-019
  -29.3800000000000        -9.142175984535987E-020
  -29.1900000000000        -3.582149253578500E-020
  -29.0000000000000         3.355766843424128E-020
  -28.8100000000000         9.658378492980220E-020
  -28.6200000000000         1.349407741122113E-019
  -28.4300000000000         1.374438458700531E-019
  -28.2400000000000         1.032585122206575E-019
  -28.0500000000000         4.209403951733239E-020
  -27.8600000000000        -2.866812242396803E-020
  -27.6700000000000        -8.905015874370259E-020
  -27.4800000000000        -1.222588647629100E-019
  -27.2900000000000        -1.194905128514457E-019
  -27.1000000000000        -8.239303433292323E-020
  -26.9100000000000        -2.251302302925889E-020
  -26.7200000000000         4.208519082649779E-020
  -26.5300000000000         9.205273379734430E-020
  -26.3400000000000         1.123546379863024E-019
  -26.1500000000000         9.664391300073331E-020
  -25.9600000000000         4.915601577710161E-020
  -25.7700000000000        -1.644165464410069E-020
  -25.5800000000000        -8.094493293395880E-020
  -25.3900000000000        -1.251549553884008E-019
  -25.2000000000000        -1.354785324096058E-019
  -25.0100000000000        -1.079623156074633E-019
  -24.8200000000000        -4.956788502971456E-020
  -24.6300000000000         2.372087917619112E-020
  -24.4400000000000         9.144401128960013E-020
  -24.2500000000000         1.345600165463451E-019
  -24.0600000000000         1.409706732768355E-019
  -23.8700000000000         1.090540751625372E-019
  -23.6800000000000         4.816012989120502E-020
  -23.4900000000000        -2.408944296101628E-020
  -23.3000000000000        -8.691369001286780E-020
  -23.1100000000000        -1.224022347519273E-019
  -22.9200000000000        -1.207002081538524E-019
  -22.7300000000000        -8.284255992525770E-020
  -22.5400000000000        -2.042746804967430E-020
  -22.3500000000000         4.776045351004527E-020
  -22.1600000000000         1.011956025267604E-019
  -21.9700000000000         1.235703803481583E-019
  -21.7800000000000         1.075771279034197E-019
  -21.5900000000000         5.714137951091562E-020
  -21.4000000000000        -1.357212575395470E-020
  -21.2100000000000        -8.415371599153384E-020
  -21.0200000000000        -1.338367266378684E-019
  -20.8300000000000        -1.475836564565010E-019
  -20.6400000000000        -1.205730796126443E-019
  -20.4500000000000        -5.972697248235000E-020
  -20.2600000000000         1.821674603704407E-020
  -20.0700000000000         9.154105586026057E-020
  -19.8800000000000         1.398622960843489E-019
  -19.6900000000000         1.500373533936619E-019
  -19.5000000000000         1.199190279603617E-019
  -19.3100000000000         5.887657979234809E-020
  -19.1200000000000        -1.502642695196538E-020
  -18.9300000000000        -8.032684898601221E-020
  -18.7400000000000        -1.183704673114260E-019
  -18.5500000000000        -1.186528787714971E-019
  -18.3600000000000        -8.178445855687733E-020
  -18.1700000000000        -1.925127681716725E-020
  -17.9800000000000         4.994815354353034E-020
  -17.7900000000000         1.048236283302286E-019
  -17.6000000000000         1.284941808348743E-019
  -17.4100000000000         1.131267329431380E-019
  -17.2200000000000         6.228803594827531E-020
  -17.0300000000000        -9.996124390825217E-021
  -16.8400000000000        -8.324386677713693E-020
  -16.6500000000000        -1.364525887091712E-019
  -16.4600000000000        -1.542424597090945E-019
  -16.2700000000000        -1.313872167817189E-019
  -16.0800000000000        -7.436748252543704E-020
  -15.8900000000000         5.278435280395245E-022
  -15.7000000000000         7.197844192937408E-020
  -15.5100000000000         1.198504150069430E-019
  -15.3200000000000         1.310088930204817E-019
  -15.1300000000000         1.030321006802136E-019
  -14.9400000000000         4.478381732625312E-020
  -14.7500000000000        -2.625891617178270E-020
  -14.5600000000000        -8.909201538621316E-020
  -14.3700000000000        -1.252041340358034E-019
  -14.1800000000000        -1.238393843840099E-019
  -13.9900000000000        -8.505143416154840E-020
  -13.8000000000000        -1.970186441178149E-020
  -13.6100000000000         5.361681097537723E-020
  -13.4200000000000         1.138985648709886E-019
  -13.2300000000000         1.437904549060963E-019
  -13.0400000000000         1.346572743582311E-019
  -12.8500000000000         8.913980387408780E-020
  -12.6600000000000         2.041935045120407E-020
  -12.4700000000000        -5.161731151536463E-020
  -12.2800000000000        -1.061858619681697E-019
  -12.0900000000000        -1.276666419690021E-019
  -11.9000000000000        -1.101261636514661E-019
  -11.7100000000000        -5.896789922078695E-020
  -11.5200000000000         1.074582044184321E-020
  -11.3300000000000         7.875829555172956E-020
  -11.1400000000000         1.255208041422933E-019
  -10.9500000000000         1.378054341856214E-019
  -10.7600000000000         1.124260606175063E-019
  -10.5700000000000         5.703335734039111E-020
  -10.3800000000000        -1.220523720361834E-020
  -10.1900000000000        -7.534682632927715E-020
  -10.0000000000000        -1.144665303938427E-019
  -9.81000000000000        -1.188451424962745E-019
  -9.62000000000000        -8.806589083439203E-020
  -9.42999999999999        -3.212631800946686E-020
  -9.23999999999999         3.148326893386856E-020
  -9.05000000000000         8.292003723222043E-020
  -8.86000000000000         1.058811865672482E-019
  -8.67000000000000         9.252072719984563E-020
  -8.48000000000000         4.589871992693769E-020
  -8.28999999999999        -2.081445997608827E-020
  -8.09999999999999        -8.816780400625675E-020
  -7.91000000000000        -1.361498339109860E-019
  -7.72000000000000        -1.500855257690427E-019
  -7.53000000000000        -1.249567491597980E-019
  -7.34000000000000        -6.688406357899658E-020
  -7.15000000000001         8.631948343554638E-021
  -6.95999999999999         8.115798611568664E-020
  -6.77000000000000         1.311530950748941E-019
  -6.58000000000000         1.454975584659393E-019
  -6.39000000000000         1.211638271268726E-019
  -6.20000000000000         6.601006178467287E-020
  -6.01000000000001        -3.511976542391668E-021
  -5.81999999999999        -6.708998240975786E-020
  -5.63000000000000        -1.064001890068491E-019
  -5.44000000000000        -1.104086577498469E-019
  -5.25000000000000        -7.857993456089975E-020
  -5.06000000000000        -2.103436993255209E-020
  -4.87000000000000         4.441146358630781E-020
  -4.67999999999999         9.747004848338548E-020
  -4.48999999999999         1.213587861107061E-019
  -4.30000000000000         1.077835293334866E-019
  -4.11000000000000         5.946309592205677E-020
  -3.92000000000000        -1.055953721938655E-020
  -3.73000000000000        -8.263188104447536E-020
  -3.53999999999999        -1.361548810311178E-019
  -3.34999999999999        -1.555405048414277E-019
  -3.16000000000000        -1.347240405845148E-019
  -2.97000000000000        -7.892775330481188E-020
  -2.78000000000000        -3.188477742391812E-021
  -2.59000000000000         7.190717727596399E-020
  -2.40000000000001         1.260553484159002E-019
  -2.20999999999999         1.449760079045430E-019
  -2.02000000000000         1.244322932771088E-019
  -1.83000000000000         7.139234303664217E-020
  -1.64000000000000         2.010169677942495E-021
  -1.45000000000000        -6.301119302396421E-020
  -1.26000000000001        -1.043818223119003E-019
  -1.06999999999999        -1.098255528503343E-019
 -0.879999999999995        -7.769461615716256E-020
 -0.689999999999998        -1.751266991272438E-020
 -0.500000000000000         5.275675522238687E-020
 -0.310000000000002         1.119494647443809E-019
 -0.120000000000005         1.419175933314641E-019
  7.000000000000739E-002    1.328859928251568E-019
  0.260000000000005         8.636655698763523E-020
  0.450000000000003         1.478176110492430E-020
  0.640000000000001        -6.208840334193266E-020
  0.829999999999998        -1.228082662663965E-019
   1.02000000000000        -1.504852896828253E-019
   1.21000000000001        -1.376618020497524E-019
   1.40000000000001        -8.847885521786174E-020
   1.59000000000000        -1.749162835062537E-020
   1.78000000000000         5.452082023188188E-020
   1.97000000000000         1.065529029435940E-019
   2.16000000000000         1.234543502870894E-019
   2.34999999999999         1.003362460179127E-019
   2.54000000000001         4.401757317293357E-020
   2.73000000000000        -2.891870091176675E-020
   2.92000000000000        -9.691353766195525E-020
   3.11000000000000        -1.396903314923205E-019
   3.30000000000000        -1.441730394797020E-019
   3.48999999999999        -1.083422314097562E-019
   3.68000000000001        -4.189502646762389E-020
   3.87000000000000         3.651478170199877E-020
   4.06000000000000         1.046885631372367E-019
   4.25000000000000         1.433726422156687E-019
   4.44000000000000         1.418962586764110E-019
   4.63000000000000         1.012752789671385E-019
   4.82000000000001         3.387367837634467E-020
   5.01000000000001        -4.025315082564556E-020
   5.20000000000000        -9.923844815494096E-020
   5.39000000000000        -1.257750242976604E-019
   5.58000000000000        -1.121211178253749E-019
   5.77000000000000        -6.230629852228213E-020
   5.96000000000001         9.074911980567582E-021
   6.15000000000001         8.111614124063581E-020
   6.34000000000000         1.326643022074642E-019
   6.53000000000000         1.484425420675100E-019