  -105.000000000000         0.000000000000000E+000
  -104.810000000000         1.663204713136464E-020
  -104.620000000000         4.586174563338921E-020
  -104.430000000000         8.097641356421044E-020
  -104.240000000000         1.144660635149476E-019
  -104.050000000000         1.401141148088624E-019
  -103.860000000000         1.546956856958245E-019
  -103.670000000000         1.587954694659847E-019
  -103.480000000000         1.565132210485800E-019
  -103.290000000000         1.541483422208400E-019
  -103.100000000000         1.582514950569518E-019
  -102.910000000000         1.736140030728817E-019
  -102.720000000000         2.017820428904173E-019
  -102.530000000000         2.405283920742902E-019
  -102.340000000000         2.844354397202089E-019
  -102.150000000000         3.264204370127323E-019
  -101.960000000000         3.597605564085980E-019
  -101.770000000000         3.800297835291976E-019
  -101.580000000000         3.863840522414443E-019
  -101.390000000000         3.818188790790572E-019
  -101.200000000000         3.723213889390021E-019
  -101.010000000000         3.651599846538709E-019
  -100.820000000000         3.668061617345178E-019
  -100.630000000000         3.810902138756953E-019
  -100.440000000000         4.081242519355952E-019
  -100.250000000000         4.443024314350282E-019
  -100.060000000000         4.833754013050746E-019
  -99.8700000000000         5.182850665497694E-019
  -99.6800000000000         5.432266528086149E-019
  -99.4900000000000         5.553404158374457E-019
  -99.3000000000000         5.555431857148209E-019
  -99.1100000000000         5.482590879939322E-019
  -98.9200000000000         5.401277783963733E-019
  -98.7300000000000         5.380655078724469E-019
  -98.5400000000000         5.472429677858864E-019
  -98.3500000000000         5.695685946233687E-019
  -98.1600000000000         6.031190498518324E-019
  -97.9700000000000         6.426827235358738E-019
  -97.7800000000000         6.812580986341898E-019
  -97.5900000000000         7.120713551630256E-019
  -97.4000000000000         7.305273346065148E-019
  -97.2100000000000         7.355280148120689E-019
  -97.0200000000000         7.297764768408174E-019
  -96.8300000000000         7.189784970899586E-019
  -96.6400000000000         7.101735442534216E-019
  -96.4500000000000         7.096798875099295E-019
  -96.2600000000000         7.212512259992466E-019
  -96.0700000000000         7.449813546251824E-019
  -95.8800000000000         7.772759783384334E-019
  -95.6900000000000         8.119000073643590E-019
  -95.5000000000000         8.417953651659365E-019
  -95.3100000000000         8.611402076989549E-019
  -95.1200000000000         8.670507136397957E-019
  -94.9300000000000         8.604309158864343E-019
  -94.7400000000000         8.457234038891151E-019
  -94.5500000000000         8.296322586124127E-019
  -94.3600000000000         8.191874645281302E-019
  -94.1700000000000         8.197114921487507E-019
  -93.9800000000000         8.332782570457088E-019
  -93.7900000000000         8.581130324763760E-019
  -93.6000000000000         8.891093800833503E-019
  -93.4100000000000         9.193145288311967E-019
  -93.2200000000000         9.419526288184884E-019
  -93.0300000000000         9.523986828537023E-019
  -92.8400000000000         9.495305173331761E-019
  -92.6500000000000         9.360670997319814E-019
  -92.4600000000000         9.177954317263488E-019
  -92.2700000000000         9.019095021572143E-019
  -92.0800000000000         8.949407215807382E-019
  -91.8900000000000         9.008767211172469E-019
  -91.7000000000000         9.200110812728966E-019
  -91.5100000000000         9.488559846835588E-019
  -91.3200000000000         9.811429794840522E-019
  -91.1300000000000         1.009622090541270E-018
  -90.9400000000000         1.028137828873576E-018
  -90.7500000000000         1.033380217496621E-018
  -90.5600000000000         1.025803788743250E-018
  -90.3700000000000         1.009450101405365E-018
  -90.1800000000000         9.907286748568793E-019
  -89.9900000000000         9.765139771020477E-019
  -89.8000000000000         9.721142082119665E-019
  -89.6100000000000         9.797041061218694E-019
  -89.4200000000000         9.976789109260251E-019
  -89.2300000000000         1.021119215089655E-018
  -89.0400000000000         1.043233767450744E-018
  -88.8500000000000         1.057362543571876E-018
  -88.6600000000000         1.058958272140444E-018
  -88.4700000000000         1.046969335148731E-018
  -88.2800000000000         1.024219756334161E-018
  -88.0900000000000         9.966727694295550E-019
  -87.9000000000000         9.717882357738510E-019
  -87.7100000000000         9.564463252435660E-019
  -87.5200000000000         9.550343645605993E-019
  -87.3300000000000         9.682453346689500E-019
  -87.1400000000000         9.929301049574110E-019
  -86.9500000000000         1.023041165699526E-018
  -86.7600000000000         1.051391071946398E-018
  -86.5700000000000         1.071714525159080E-018
  -86.3800000000000         1.080436578004167E-018
  -86.1900000000000         1.077636191791725E-018
  -86.0000000000000         1.066929701759690E-018
  -85.8100000000000         1.054314443640149E-018
  -85.6200000000000         1.046316454126191E-018
  -85.4300000000000         1.047988614183593E-018
  -85.2400000000000         1.061347811088785E-018
  -85.0500000000000         1.084710110687118E-018
  -84.8600000000000         1.113120245016535E-018
  -84.6700000000000         1.139752826241967E-018
  -84.4800000000000         1.157879972734173E-018
  -84.2900000000000         1.162834753238151E-018
  -84.1000000000000         1.153399408416449E-018
  -83.9100000000000         1.132212152093644E-018
  -83.7200000000000         1.105069663778171E-018
  -83.5300000000000         1.079322660258251E-018
  -83.3400000000000         1.061825993283344E-018
  -83.1500000000000         1.057035015630376E-018
  -82.9600000000000         1.065797864864982E-018
  -82.7700000000000         1.085190931662016E-018
  -82.5800000000000         1.109441455685751E-018
  -82.3900000000000         1.131665726337105E-018
  -82.2000000000000         1.145915486695865E-018
  -82.0100000000000         1.148936753836654E-018
  -81.8200000000000         1.141129432972414E-018
  -81.6300000000000         1.126428405535915E-018
  -81.4400000000000         1.111140317954840E-018
  -81.2500000000000         1.102074517645038E-018
  -81.0600000000000         1.104513060635043E-018
  -80.8700000000000         1.120612864481060E-018
  -80.6800000000000         1.148708209902432E-018
  -80.4900000000000         1.183720038569986E-018
  -80.3000000000000         1.218556494061204E-018
  -80.1100000000000         1.246101147814080E-018
  -79.9200000000000         1.261215023162357E-018
  -79.7300000000000         1.262174694288729E-018
  -79.5400000000000         1.251131864268076E-018
  -79.3500000000000         1.233462510210649E-018
  -79.1600000000000         1.216194466320761E-018
  -78.9700000000000         1.205968897249411E-018
  -78.7800000000000         1.207126444269910E-018
  -78.5900000000000         1.220473085469211E-018
  -78.4000000000000         1.243083387074796E-018
  -78.2100000000000         1.269196761514392E-018
  -78.0200000000000         1.291943797925990E-018
  -77.8300000000000         1.305397960114282E-018
  -77.6400000000000         1.306353428665264E-018
  -77.4500000000000         1.295309637896206E-018
  -77.2600000000000         1.276373319687593E-018
  -77.0700000000000         1.256102568557841E-018
  -76.8800000000000         1.241624169625046E-018
  -76.6900000000000         1.238567231435981E-018
  -76.5000000000000         1.249412041117917E-018
  -76.3100000000000         1.272736063471156E-018
  -76.1200000000000         1.303581657470968E-018
  -75.9300000000000         1.334845965500384E-018
  -75.7400000000000         1.359296468920824E-018
  -75.5500000000000         1.371632815967762E-018
  -75.3600000000000         1.370000732561742E-018
  -75.1700000000000         1.356521750806984E-018
  -74.9800000000000         1.336686799217423E-018
  -74.7900000000000         1.317789260811018E-018
  -74.6000000000000         1.306849007727290E-018
  -74.4100000000000         1.308624026641004E-018
  -74.2200000000000         1.324279378856886E-018
  -74.0300000000000         1.351092487773356E-018
  -73.8400000000000         1.383274118152145E-018
  -73.6500000000000         1.413662245074036E-018
  -73.4600000000000         1.435794415091401E-018
  -73.2700000000000         1.445756279668397E-018
  -73.0800000000000         1.443271270603883E-018
  -72.8900000000000         1.431719107349949E-018
  -72.7000000000000         1.417083573865266E-018
  -72.5100000000000         1.406141398101051E-018
  -72.3200000000000         1.404423837312378E-018
  -72.1300000000000         1.414547620337564E-018
  -71.9400000000000         1.435404035680102E-018
  -71.7500000000000         1.462445645321117E-018
  -71.5600000000000         1.488991190598277E-018
  -71.3700000000000         1.508172578336541E-018
  -71.1800000000000         1.514959369230438E-018
  -70.9900000000000         1.507671351488182E-018
  -70.8000000000000         1.488536673761279E-018
  -70.6100000000000         1.463129227108552E-018
  -70.4200000000000         1.438843789486964E-018
  -70.2300000000000         1.422845898006050E-018
  -70.0400000000000         1.420084548018143E-018
  -69.8500000000000         1.431936495086672E-018
  -69.6600000000000         1.455867865762259E-018
  -69.4700000000000         1.486205583796814E-018
  -69.2800000000000         1.515792192204835E-018
  -69.0900000000000         1.538044248683497E-018
  -68.9000000000000         1.548819315701063E-018
  -68.7100000000000         1.547553259008689E-018
  -68.5200000000000         1.537342422594340E-018
  -68.3300000000000         1.523953029012239E-018
  -68.1400000000000         1.514053243864073E-018
  -67.9500000000000         1.513189807791180E-018
  -67.7600000000000         1.524104274745236E-018
  -67.5700000000000         1.545882576769543E-018
  -67.3800000000000         1.574186485374749E-018
  -67.1900000000000         1.602499044666631E-018
  -67.0000000000000         1.624020579027089E-018
  -66.8100000000000         1.633662782665773E-018
  -66.6200000000000         1.629559815981763E-018
  -66.4300000000000         1.613655123769040E-018
  -66.2400000000000         1.591190469796144E-018
  -66.0500000000000         1.569242248546730E-018
  -65.8600000000000         1.554727190925835E-018
  -65.6700000000000         1.552454253172534E-018
  -65.4800000000000         1.563786292333060E-018
  -65.2900000000000         1.586297822880950E-018
  -65.1000000000000         1.614525591782476E-018
  -64.9100000000000         1.641591418314739E-018
  -64.7200000000000         1.661223955668204E-018
  -64.5300000000000         1.669590832806504E-018
  -64.3400000000000         1.666408046921271E-018
  -64.1500000000000         1.655003403769244E-018
  -63.9600000000000         1.641314869570747E-018
  -63.7700000000000         1.632115169729239E-018
  -63.5800000000000         1.632980504262632E-018
  -63.3900000000000         1.646597202371273E-018
  -63.2000000000000         1.671902666809954E-018
  -63.0100000000000         1.704314267366414E-018
  -62.8200000000000         1.736983028928177E-018
  -62.6300000000000         1.762710885457555E-018
  -62.4400000000000         1.775977843303272E-018
  -62.2500000000000         1.774493915839856E-018
  -62.0600000000000         1.759828327804755E-018
  -61.8700000000000         1.736934977378157E-018
  -61.6800000000000         1.712711865428307E-018
  -61.4900000000000         1.694011714028325E-018
  -61.3000000000000         1.685680603941782E-018
  -61.1100000000000         1.689194251470872E-018
  -60.9200000000000         1.702288415149574E-018
  -60.7300000000000         1.719690258969804E-018
  -60.5400000000000         1.734735669646978E-018
  -60.3500000000000         1.741398250533192E-018
  -60.1600000000000         1.736135438592263E-018
  -59.9700000000000         1.719010919728167E-018
  -59.7800000000000         1.693763789472372E-018
  -59.5900000000000         1.666801453353175E-018
  -59.4000000000000         1.645405826286505E-018
  -59.2100000000000         1.635670773613397E-018
  -59.0200000000000         1.640767471631905E-018
  -58.8300000000000         1.660040873020893E-018
  -58.6400000000000         1.689201216811500E-018
  -58.4500000000000         1.721557961017834E-018
  -58.2600000000000         1.749941091628398E-018
  -58.0700000000000         1.768754609510340E-018
  -57.8800000000000         1.775567840566567E-018
  -57.6900000000000         1.771783801231611E-018
  -57.5000000000000         1.762191369169864E-018
  -57.3100000000000         1.753531513268162E-018
  -57.1200000000000         1.752493320628437E-018
  -56.9300000000000         1.763720557142495E-018
  -56.7400000000000         1.788406662411102E-018
  -56.5500000000000         1.823886200250021E-018
  -56.3600000000000         1.864342497937657E-018
  -56.1700000000000         1.902427588320685E-018
  -55.9800000000000         1.931325590969562E-018
  -55.7900000000000         1.946661787821222E-018
  -55.6000000000000         1.947704818746338E-018
  -55.4100000000000         1.937515599576532E-018
  -55.2200000000000         1.922003293757772E-018
  -55.0300000000000         1.908166052768058E-018
  -54.8400000000000         1.902029912479033E-018
  -54.6500000000000         1.906885511887719E-018
  -54.4600000000000         1.922335130167580E-018
  -54.2700000000000         1.944427505019426E-018
  -54.0800000000000         1.966842581560925E-018
  -53.8900000000000         1.982783255493070E-018
  -53.7000000000000         1.987024292313892E-018
  -53.5100000000000         1.977520407270588E-018
  -53.3200000000000         1.956101203987332E-018
  -53.1300000000000         1.928044789966996E-018
  -52.9400000000000         1.900647615726562E-018
  -52.7500000000000         1.881199953130164E-018
  -52.5600000000000         1.874949086421174E-018
  -52.3700000000000         1.883635844437978E-018
  -52.1800000000000         1.905024304708751E-018
  -51.9900000000000         1.933558135036170E-018
  -51.8000000000000         1.961953123681405E-018
  -51.6100000000000         1.983266963307753E-018
  -51.4200000000000         1.992850958740110E-018
  -51.2300000000000         1.989623203912959E-018
  -51.0400000000000         1.976299464537651E-018
  -50.8500000000000         1.958520300108573E-018
  -50.6600000000000         1.943133381108795E-018
  -50.4700000000000         1.936135115024088E-018
  -50.2800000000000         1.940873854678536E-018
  -50.0900000000000         1.957039388844513E-018
  -49.9000000000000         1.980733068420633E-018
  -49.7100000000000         2.005597556500359E-018
  -49.5200000000000         2.024676848517899E-018
  -49.3300000000000         2.032465026912048E-018
  -49.1400000000000         2.026547103587363E-018
  -48.9500000000000         2.008353055714746E-018
  -48.7600000000000         1.982802920455012E-018
  -48.5700000000000         1.956942435259774E-018
  -48.3800000000000         1.937961939337621E-018
  -48.1900000000000         1.931170709743749E-018
  -48.0000000000000         1.938512056156300E-018
  -47.8100000000000         1.958047428981557E-018
  -47.6200000000000         1.984556665254987E-018
  -47.4300000000000         2.011078573562118E-018
  -47.2400000000000         2.030944958359665E-018
  -47.0500000000000         2.039719659943864E-018
  -46.8600000000000         2.036482377650962E-018
  -46.6700000000000         2.024086532557288E-018
  -46.4800000000000         2.008316817449576E-018
  -46.2900000000000         1.996190426391244E-018
  -46.1000000000000         1.993894583305144E-018
  -45.9100000000000         2.004959376943371E-018
  -45.7200000000000         2.029197057065050E-018
  -45.5300000000000         2.062715907003696E-018
  -45.3400000000000         2.099003858147665E-018
  -45.1500000000000         2.130766110503729E-018
  -44.9600000000000         2.151983102708687E-018
  -44.7700000000000         2.159593255186826E-018
  -44.5800000000000         2.154315927891952E-018
  -44.3900000000000         2.140380585850249E-018
  -44.2000000000000         2.124245168977309E-018
  -44.0100000000000         2.112678893594792E-018
  -43.8200000000000         2.110768396405187E-018
  -43.6300000000000         2.120428162983103E-018
  -43.4400000000000         2.139849527573682E-018
  -43.2500000000000         2.164049083829326E-018
  -43.0600000000000         2.186356385463249E-018
  -42.8700000000000         2.200406087145827E-018
  -42.6800000000000         2.202051860413946E-018
  -42.4900000000000         2.190641991664373E-018
  -42.3000000000000         2.169282606909327E-018
  -42.1100000000000         2.144009055508796E-018
  -41.9200000000000         2.122103133266006E-018
  -41.7300000000000         2.110041733572582E-018
  -41.5400000000000         2.111669662723522E-018
  -41.3500000000000         2.127124792952523E-018
  -41.1600000000000         2.152826057063269E-018
  -40.9700000000000         2.182526895507925E-018
  -40.7800000000000         2.209127821795187E-018
  -40.5900000000000         2.226721707167889E-018
  -40.4000000000000         2.232278604370052E-018
  -40.2100000000000         2.226482838447462E-018
  -40.0200000000000         2.213482229458807E-018
  -39.8300000000000         2.199625293009016E-018
  -39.6400000000000         2.191555532410771E-018
  -39.4500000000000         2.194218103164354E-018
  -39.2600000000000         2.209359785770017E-018
  -39.0700000000000         2.234960949324178E-018
  -38.8800000000000         2.265768599054629E-018
  -38.6900000000000         2.294779790611039E-018
  -38.5000000000000         2.315246990093605E-018
  -38.3100000000000         2.322622838734307E-018
  -38.1200000000000         2.315877526918591E-018
  -37.9300000000000         2.297803846184208E-018
  -37.7400000000000         2.274219767620294E-018
  -37.5500000000000         2.252299459753735E-018
  -37.3600000000000         2.238516910857625E-018
  -37.1700000000000         2.236798128402211E-018
  -36.9800000000000         2.247416628281311E-018
  -36.7900000000000         2.266951410738070E-018
  -36.6000000000000         2.289319458252739E-018
  -36.4100000000000         2.307584068886762E-018
  -36.2200000000000         2.316015190601860E-018
  -36.0300000000000         2.311803626706238E-018
  -35.8400000000000         2.295929877946294E-018
  -35.6500000000000         2.272932702819889E-018
  -35.4600000000000         2.249641786504589E-018
  -35.2700000000000         2.233240183481597E-018
  -35.0800000000000         2.229217082255298E-018
  -34.8900000000000         2.239802882101719E-018
  -34.7000000000000         2.263337974144097E-018
  -34.5100000000000         2.294755680666512E-018
  -34.3200000000000         2.327037459044626E-018
  -34.1300000000000         2.353217887518977E-018
  -33.9400000000000         2.368358957331069E-018
  -33.7500000000000         2.370923165697661E-018
  -33.5600000000000         2.363149812361913E-018
  -33.3700000000000         2.350328354207240E-018
  -33.1800000000000         2.339183082999900E-018
  -32.9900000000000         2.335841624883409E-018
  -32.8000000000000         2.343980408733272E-018
  -32.6100000000000         2.363688330552415E-018
  -32.4200000000000         2.391380994540598E-018
  -32.2300000000000         2.420793105451477E-018
  -32.0400000000000         2.444764012722075E-018
  -31.8500000000000         2.457301154083423E-018
  -31.6600000000000         2.455324466077129E-018
  -31.4700000000000         2.439585353472550E-018
  -31.2800000000000         2.414491061771373E-018
  -31.0900000000000         2.386881638683811E-018
  -30.9000000000000         2.364110742776648E-018
  -30.7100000000000         2.351984314188236E-018
  -30.5200000000000         2.353152579872543E-018
  -30.3300000000000         2.366418607501256E-018
  -30.1400000000000         2.387159591165466E-018
  -29.9500000000000         2.408733790764029E-018
  -29.7600000000000         2.424461194410947E-018
  -29.5700000000000         2.429601986049530E-018
  -29.3800000000000         2.422760004368693E-018
  -29.1900000000000         2.406306314611829E-018
  -29.0000000000000         2.385701952843045E-018
  -28.8100000000000         2.367917434025851E-018
  -28.6200000000000         2.359408211955205E-018
  -28.4300000000000         2.364234186645952E-018
  -28.2400000000000         2.382869687439732E-018
  -28.0500000000000         2.412049505418186E-018
  -27.8600000000000         2.445694544066273E-018
  -27.6700000000000         2.476645908922432E-018
  -27.4800000000000         2.498701362258390E-018
  -27.2900000000000         2.508361646218291E-018
  -27.1000000000000         2.505780556285095E-018
  -26.9100000000000         2.494645724808834E-018
  -26.7200000000000         2.481028727647462E-018
  -26.5300000000000         2.471542963429937E-018
  -26.3400000000000         2.471349079874828E-018
  -26.1500000000000         2.482592419410963E-018
  -25.9600000000000         2.503731872813141E-018
  -25.7700000000000         2.529960230937458E-018
  -25.5800000000000         2.554597431429850E-018
  -25.3900000000000         2.571053040805401E-018
  -25.2000000000000         2.574786568599171E-018
  -25.0100000000000         2.564692906508463E-018
  -24.8200000000000         2.543505622706518E-018
  -24.6300000000000         2.517094881321382E-018
  -24.4400000000000         2.492856966851835E-018
  -24.2500000000000         2.477656026671745E-018
  -24.0600000000000         2.475909560989041E-018
  -23.8700000000000         2.488369438170801E-018
  -23.6800000000000         2.511950513422319E-018
  -23.4900000000000         2.540656109871111E-018
  -23.3000000000000         2.567331299387688E-018
  -23.1100000000000         2.585734274323422E-018
  -22.9200000000000         2.592323951169026E-018
  -22.7300000000000         2.587245471644248E-018
  -22.5400000000000         2.574229947510192E-018
  -22.3500000000000         2.559441640547172E-018
  -22.1600000000000         2.549611945292801E-018
  -21.9700000000000         2.550006247934449E-018
  -21.7800000000000         2.562817963821785E-018
  -21.5900000000000         2.586460477695214E-018
  -21.4000000000000         2.615967705361958E-018
  -21.2100000000000         2.644392005414590E-018
  -21.0200000000000         2.664797107067667E-018
  -20.8300000000000         2.672268339573987E-018
  -20.6400000000000         2.665354627240640E-018
  -20.4500000000000         2.646519941848284E-018
  -20.2600000000000         2.621469310677987E-018
  -20.0700000000000         2.597541870837719E-018
  -19.8800000000000         2.581634624067347E-018
  -19.6900000000000         2.578256498289888E-018
  -19.5000000000000         2.588274309267118E-018
  -19.3100000000000         2.608711983763609E-018
  -19.1200000000000         2.633660148732382E-018
  -18.9300000000000         2.656032629194373E-018
  -18.7400000000000         2.669661547685817E-018
  -18.5500000000000         2.671123884796913E-018
  -18.3600000000000         2.660768567789487E-018
  -18.1700000000000         2.642643497020266E-018
  -17.9800000000000         2.623340395329358E-018
  -17.7900000000000         2.610089448743071E-018
  -17.6000000000000         2.608653834128531E-018
  -17.4100000000000         2.621632963838635E-018
  -17.2200000000000         2.647665644064782E-018
  -17.0300000000000         2.681764625840617E-018
  -16.8400000000000         2.716687697377131E-018
  -16.6500000000000         2.744951840064899E-018
  -16.4600000000000         2.760911780417907E-018
  -16.2700000000000         2.762305685851077E-018
  -16.0800000000000         2.750824626473621E-018
  -15.8900000000000         2.731544946406163E-018
  -15.7000000000000         2.711392133591996E-018
  -15.5100000000000         2.697085250269605E-018
  -15.3200000000000         2.693160770766315E-018
  -15.1300000000000         2.700650188886028E-018
  -14.9400000000000         2.716794422056674E-018
  -14.7500000000000         2.735876205647745E-018
  -14.5600000000000         2.750927519512612E-018
  -14.3700000000000         2.755816096986696E-018
  -14.1800000000000         2.747105305253209E-018
  -13.9900000000000         2.725146337830929E-018
  -13.8000000000000         2.694082501628969E-018
  -13.6100000000000         2.660759347640755E-018
  -13.4200000000000         2.632851141895454E-018
  -13.2300000000000         2.616741956131868E-018
  -13.0400000000000         2.615771752981510E-018
  -12.8500000000000         2.629352352560579E-018
  -12.6600000000000         2.653205525239303E-018
  -12.4700000000000         2.680649946480102E-018
  -12.2800000000000         2.704560813089953E-018
  -12.0900000000000         2.719433332652063E-018
  -11.9000000000000         2.722953935226486E-018
  -11.7100000000000         2.716627807064804E-018
  -11.5200000000000         2.705285629774451E-018
  -11.3300000000000         2.695616868698335E-018
  -11.1400000000000         2.694158430199326E-018
  -10.9500000000000         2.705325114048837E-018
  -10.7600000000000         2.730055998672267E-018
  -10.5700000000000         2.765471457269159E-018
  -10.3800000000000         2.805640850390788E-018
  -10.1900000000000         2.843237266662967E-018
  -10.0000000000000         2.871597627190392E-018
  -9.81000000000000         2.886589225092683E-018
  -9.62000000000000         2.887741222966390E-018
  -9.42999999999999         2.878314429414201E-018
  -9.23999999999999         2.864291676445011E-018
  -9.05000000000000         2.852584574050159E-018
  -8.86000000000000         2.848980013179155E-018
  -8.67000000000000         2.856425767443985E-018
  -8.48000000000000         2.874156310478121E-018
  -8.28999999999999         2.897915422876093E-018
  -8.09999999999999         2.921212293797455E-018
  -7.91000000000000         2.937245934850192E-018
  -7.72000000000000         2.940937093188265E-018
  -7.53000000000000         2.930474854548254E-018
  -7.34000000000000         2.907925997328222E-018
  -7.15000000000001         2.878727138416961E-018
  -6.95999999999999         2.850203186115496E-018
  -6.77000000000000         2.829537141263592E-018
  -6.58000000000000         2.821775126644023E-018
  -6.39000000000000         2.828440928812012E-018
  -6.20000000000000         2.847158653170266E-018
  -6.01000000000001         2.872390602155866E-018
  -5.81999999999999         2.897074215010960E-018
  -5.63000000000000         2.914680719243345E-018
  -5.44000000000000         2.921095806409842E-018
  -5.25000000000000         2.915775755803052E-018
  -5.06000000000000         2.901845476917056E-018
  -4.87000000000000         2.885114803513861E-018
  -4.67999999999999         2.872304955742713E-018
  -4.48999999999999         2.869006582439183E-018
  -4.30000000000000         2.877968065023594E-018
  -4.11000000000000         2.898216102425431E-018
  -3.92000000000000         2.925268592671507E-018
  -3.73000000000000         2.952382461595609E-018
  -3.53999999999999         2.972477566766897E-018
  -3.34999999999999         2.980179311474502E-018
  -3.16000000000000         2.973385659912368E-018
  -2.97000000000000         2.953900754257650E-018
  -2.78000000000000         2.926948005866858E-018
  -2.59000000000000         2.899701365727764E-018
  -2.40000000000001         2.879259238538046E-018
  -2.20999999999999         2.870647617210681E-018
  -2.02000000000000         2.875430231317108E-018
  -1.83000000000000         2.891326928816516E-018
  -1.64000000000000         2.912949006118029E-018
  -1.45000000000000         2.933436369297926E-018
  -1.26000000000001         2.946519428147045E-018
  -1.06999999999999         2.948404395655099E-018
 -0.879999999999995         2.938930926619388E-018
 -0.689999999999998         2.921661880450682E-018
 -0.500000000000000         2.902875522380208E-018
 -0.310000000000002         2.889750443017586E-018
 -0.120000000000005         2.888269393388290E-018
  7.000000000000739E-002    2.901450867804699E-018
  0.260000000000005         2.928422642643749E-018
  0.450000000000003         2.964607851555116E-018
  0.640000000000001         3.002972638071176E-018
  0.829999999999998         3.035977663735528E-018
   1.02000000000000         3.057671960133335E-018
   1.21000000000001         3.065325719645212E-018
   1.40000000000001         3.060131150680894E-018
   1.59000000000000         3.046769796049045E-018
   1.78000000000000         3.031973470332315E-018
   1.97000000000000         3.022498922187171E-018
   2.16000000000000         3.023107369677759E-018
   2.34999999999999         3.035138395666567E-018
   2.54000000000001         3.056093905059512E-018
   2.73000000000000         3.080353398814614E-018
   2.92000000000000         3.100812901273425E-018
   3.11000000000000         3.110971964849668E-018
   3.30000000000000         3.106863534396639E-018
   3.48999999999999         3.088266888968800E-018
   3.68000000000001         3.058850651836603E-018
   3.87000000000000         3.025201482810788E-018
   4.06000000000000         2.995016180379239E-018
   4.25000000000000         2.974977521776936E-018
   4.44000000000000         2.968926200564269E-018
   4.63000000000000         2.976855233913376E-018
   4.82000000000001         2.995014070357330E-018
   5.01000000000001         3.017087087806138E-018
   5.20000000000000         3.036099384464610E-018
   5.39000000000000         3.046492721128878E-018
   5.58000000000000         3.045766928206395E-018
   5.77000000000000         3.035209810174184E-018
   5.96000000000001         3.019503775540311E-018
   6.15000000000001         3.005323597207953E-018
   6.34000000000000         2.999333130145905E-018
   6.53000000000000         3.006164601500828E-018