  -105.000000000000         0.000000000000000E+000
  -104.810000000000        -1.163603280818931E-020
  -104.620000000000        -3.208557441104007E-020
  -104.430000000000        -5.665233139156211E-020
  -104.240000000000        -8.008220318622258E-020
  -104.050000000000        -9.802597562696322E-020
  -103.860000000000        -1.082274716220937E-019
  -103.670000000000        -1.110957497076202E-019
  -103.480000000000        -1.094990584551219E-019
  -103.290000000000        -1.078445531628599E-019
  -103.100000000000        -1.107151760009058E-019
  -102.910000000000        -1.214630111264211E-019
  -102.720000000000        -1.411697904355455E-019
  -102.530000000000        -1.682773192979312E-019
  -102.340000000000        -1.989953581276542E-019
  -102.150000000000        -2.283687095496337E-019
  -101.960000000000        -2.516939800158702E-019
  -101.770000000000        -2.658746591463625E-019
  -101.580000000000        -2.703202207664721E-019
  -101.390000000000        -2.671263691163774E-019
  -101.200000000000        -2.604817843415323E-019
  -101.010000000000        -2.554715503866665E-019
  -100.820000000000        -2.566232257549735E-019
  -100.630000000000        -2.666165470433055E-019
  -100.440000000000        -2.855299554602887E-019
  -100.250000000000        -3.108407537481662E-019
  -100.060000000000        -3.381768043403411E-019
  -99.8700000000000        -3.626001554572980E-019
  -99.6800000000000        -3.800496927953272E-019
  -99.4900000000000        -3.885246872902921E-019
  -99.3000000000000        -3.886665595073365E-019
  -99.1100000000000        -3.835704911061996E-019
  -98.9200000000000        -3.778816876420499E-019
  -98.7300000000000        -3.764388701140357E-019
  -98.5400000000000        -3.828595434347440E-019
  -98.3500000000000        -3.984788906482840E-019
  -98.1600000000000        -4.219513239619669E-019
  -97.9700000000000        -4.496307242209070E-019
  -97.7800000000000        -4.766187174114706E-019
  -97.5900000000000        -4.981762223754698E-019
  -97.4000000000000        -5.110883799438856E-019
  -97.2100000000000        -5.145869861666743E-019
  -97.0200000000000        -5.105631611995921E-019
  -96.8300000000000        -5.030087760573031E-019
  -96.6400000000000        -4.968487894051899E-019
  -96.4500000000000        -4.965036017899901E-019
  -96.2600000000000        -5.045993876638653E-019
  -96.0700000000000        -5.212017645150243E-019
  -95.8800000000000        -5.437960612468040E-019
  -95.6900000000000        -5.680200218685899E-019
  -95.5000000000000        -5.889355880626445E-019
  -95.3100000000000        -6.024695922277013E-019
  -95.1200000000000        -6.066043971817261E-019
  -94.9300000000000        -6.019724920093496E-019
  -94.7400000000000        -5.916821070640701E-019
  -94.5500000000000        -5.804237610978196E-019
  -94.3600000000000        -5.731160612332491E-019
  -94.1700000000000        -5.734830258997640E-019
  -93.9800000000000        -5.829758587649289E-019
  -93.7900000000000        -6.003530260532097E-019
  -93.6000000000000        -6.220418421304837E-019
  -93.4100000000000        -6.431776479504953E-019
  -93.2200000000000        -6.590193614010515E-019
  -93.0300000000000        -6.663305819282352E-019
  -92.8400000000000        -6.643255948377826E-019
  -92.6500000000000        -6.549061978785973E-019
  -92.4600000000000        -6.421209052022411E-019
  -92.2700000000000        -6.310028575952940E-019
  -92.0800000000000        -6.261218572191409E-019
  -91.8900000000000        -6.302681539496691E-019
  -91.7000000000000        -6.436476252883922E-019
  -91.5100000000000        -6.638206629657275E-019
  -91.3200000000000        -6.864023993325508E-019
  -91.1300000000000        -7.063215215483424E-019
  -90.9400000000000        -7.192727978894582E-019
  -90.7500000000000        -7.229421589421661E-019
  -90.5600000000000        -7.176495411852385E-019
  -90.3700000000000        -7.062244595436593E-019
  -90.1800000000000        -6.931527448739402E-019
  -89.9900000000000        -6.832447281186497E-019
  -89.8000000000000        -6.802137779741592E-019
  -89.6100000000000        -6.855796294146569E-019
  -89.4200000000000        -6.982164069126455E-019
  -89.2300000000000        -7.146781161869967E-019
  -89.0400000000000        -7.302085784515801E-019
  -88.8500000000000        -7.401434998694720E-019
  -88.6600000000000        -7.412975006211812E-019
  -88.4700000000000        -7.329322198378445E-019
  -88.2800000000000        -7.170225231333374E-019
  -88.0900000000000        -6.977413211141948E-019
  -87.9000000000000        -6.803100941546293E-019
  -87.7100000000000        -6.695456904302877E-019
  -87.5200000000000        -6.685211255596474E-019
  -87.3300000000000        -6.777242831768428E-019
  -87.1400000000000        -6.949540332382232E-019
  -86.9500000000000        -7.159803430443576E-019
  -86.7600000000000        -7.357748186670933E-019
  -86.5700000000000        -7.499540922381630E-019
  -86.3800000000000        -7.560178651441164E-019
  -86.1900000000000        -7.540239919578351E-019
  -86.0000000000000        -7.465075754603411E-019
  -85.8100000000000        -7.376719469473163E-019
  -85.6200000000000        -7.320919767434910E-019
  -85.4300000000000        -7.333119953966641E-019
  -85.2400000000000        -7.427503536925431E-019
  -85.0500000000000        -7.592321728389518E-019
  -84.8600000000000        -7.792881414109160E-019
  -84.6700000000000        -7.981340656348803E-019
  -84.4800000000000        -8.110479067994259E-019
  -84.2900000000000        -8.147451412939763E-019
  -84.1000000000000        -8.083526679907443E-019
  -83.9100000000000        -7.936965596244757E-019
  -83.7200000000000        -7.748170231453841E-019
  -83.5300000000000        -7.568480250580327E-019
  -83.3400000000000        -7.445839631182827E-019
  -83.1500000000000        -7.411472356534237E-019
  -82.9600000000000        -7.471414771168371E-019
  -82.7700000000000        -7.605339575878883E-019
  -82.5800000000000        -7.772986075119899E-019
  -82.3900000000000        -7.926303905434090E-019
  -82.2000000000000        -8.023764809793249E-019
  -82.0100000000000        -8.042674830862357E-019
  -81.8200000000000        -7.985904010892610E-019
  -81.6300000000000        -7.881072783395441E-019
  -81.4400000000000        -7.772426712839493E-019
  -81.2500000000000        -7.707760864721346E-019
  -81.0600000000000        -7.724203013414600E-019
  -80.8700000000000        -7.837006312549918E-019
  -80.6800000000000        -8.034632916954646E-019
  -80.4900000000000        -8.281581903276540E-019
  -80.3000000000000        -8.528162911989472E-019
  -80.1100000000000        -8.724400106794886E-019
  -79.9200000000000        -8.834055113101851E-019
  -79.7300000000000        -8.844725203266906E-019
  -79.5400000000000        -8.771108974456999E-019
  -79.3500000000000        -8.650505927647593E-019
  -79.1600000000000        -8.531859856037388E-019
  -78.9700000000000        -8.461523310653825E-019
  -78.7800000000000        -8.469871876303401E-019
  -78.5900000000000        -8.562652532388599E-019
  -78.4000000000000        -8.719574497107486E-019
  -78.2100000000000        -8.900540682089195E-019
  -78.0200000000000        -9.057689707605094E-019
  -77.8300000000000        -9.149724931912428E-019
  -77.6400000000000        -9.154341936627156E-019
  -77.4500000000000        -9.075119733535408E-019
  -77.2600000000000        -8.940848241395353E-019
  -77.0700000000000        -8.797457131714191E-019
  -76.8800000000000        -8.694856850611187E-019
  -76.6900000000000        -8.672486100799589E-019
  -76.5000000000000        -8.747753995088069E-019
  -76.3100000000000        -8.910750049478110E-019
  -76.1200000000000        -9.126797764263716E-019
  -75.9300000000000        -9.346161728297619E-019
  -75.7400000000000        -9.518140576774521E-019
  -75.5500000000000        -9.605496798682425E-019
  -75.3600000000000        -9.595067716580571E-019
  -75.1700000000000        -9.501503087819726E-019
  -74.9800000000000        -9.363060428241339E-019
  -74.7900000000000        -9.230678617662501E-019
  -74.6000000000000        -9.153480223997173E-019
  -74.4100000000000        -9.164869747718337E-019
  -74.2200000000000        -9.273210173308708E-019
  -74.0300000000000        -9.459729797790247E-019
  -73.8400000000000        -9.684219293533704E-019
  -73.6500000000000        -9.896828499781399E-019
  -73.4600000000000        -1.005251414166117E-018
  -73.2700000000000        -1.012393451431419E-018
  -73.0800000000000        -1.010905575164505E-018
  -72.8900000000000        -1.003128860206875E-018
  -72.7000000000000        -9.932157853625367E-019
  -72.5100000000000        -9.858680424424904E-019
  -72.3200000000000        -9.849162156992696E-019
  -72.1300000000000        -9.921576888250617E-019
  -71.9400000000000        -1.006793750813547E-018
  -71.7500000000000        -1.025632740521580E-018
  -71.5600000000000        -1.044003386607301E-018
  -71.3700000000000        -1.057115416203514E-018
  -71.1800000000000        -1.061473057479393E-018
  -70.9900000000000        -1.055929911717424E-018
  -70.8000000000000        -1.042076423916731E-018
  -70.6100000000000        -1.023844173285279E-018
  -70.4200000000000        -1.006438039926211E-018
  -70.2300000000000        -9.949016586661371E-019
  -70.0400000000000        -9.927269639788968E-019
  -69.8500000000000        -1.000905007729295E-018
  -69.6600000000000        -1.017687338178623E-018
  -69.4700000000000        -1.039122525459904E-018
  -69.2800000000000        -1.060209828940179E-018
  -69.0900000000000        -1.076335205941228E-018
  -68.9000000000000        -1.084574576140292E-018
  -68.7100000000000        -1.084488870762625E-018
  -68.5200000000000        -1.078183913159298E-018
  -68.3300000000000        -1.069622847797546E-018
  -68.1400000000000        -1.063397128738659E-018
  -67.9500000000000        -1.063319876547016E-018
  -67.7600000000000        -1.071256237138758E-018
  -67.5700000000000        -1.086534571660921E-018
  -67.3800000000000        -1.106111291124193E-018
  -67.1900000000000        -1.125441494179417E-018
  -67.0000000000000        -1.139801674745132E-018
  -66.8100000000000        -1.145679130253419E-018
  -66.6200000000000        -1.141823019814485E-018
  -66.4300000000000        -1.129649712857964E-018
  -66.2400000000000        -1.112881927853622E-018
  -66.0500000000000        -1.096523333095525E-018
  -65.8600000000000        -1.085463404532184E-018
  -65.6700000000000        -1.083115034476052E-018
  -65.4800000000000        -1.090478001065292E-018
  -65.2900000000000        -1.105897616768684E-018
  -65.1000000000000        -1.125585906349773E-018
  -64.9100000000000        -1.144751477389987E-018
  -64.7200000000000        -1.159008133428755E-018
  -64.5300000000000        -1.165652136467154E-018
  -64.3400000000000        -1.164436781956231E-018
  -64.1500000000000        -1.157619302894772E-018
  -63.9600000000000        -1.149266938449307E-018
  -63.7700000000000        -1.144025135960614E-018
  -63.5800000000000        -1.145708389843062E-018
  -63.3900000000000        -1.156126804598909E-018
  -63.2000000000000        -1.174493294155767E-018
  -63.0100000000000        -1.197587145680269E-018
  -62.8200000000000        -1.220629083198363E-018
  -62.6300000000000        -1.238615675412756E-018
  -62.4400000000000        -1.247727434914278E-018
  -62.2500000000000        -1.246403658431901E-018
  -62.0600000000000        -1.235773494461686E-018
  -61.8700000000000        -1.219318688309923E-018
  -61.6800000000000        -1.201865453589506E-018
  -61.4900000000000        -1.188197223173775E-018
  -61.3000000000000        -1.181690501392804E-018
  -61.1100000000000        -1.183370157695497E-018
  -60.9200000000000        -1.191659105988721E-018
  -60.7300000000000        -1.202895011357446E-018
  -60.5400000000000        -1.212462367524681E-018
  -60.3500000000000        -1.216208006490387E-018
  -60.1600000000000        -1.211725009492441E-018
  -59.9700000000000        -1.199128319819115E-018
  -59.7800000000000        -1.181093455162148E-018
  -59.5900000000000        -1.162144004991229E-018
  -59.4000000000000        -1.147391731654291E-018
  -59.2100000000000        -1.141092142109109E-018
  -59.0200000000000        -1.145432745130603E-018
  -58.8300000000000        -1.159905210511356E-018
  -58.6400000000000        -1.181444931886463E-018
  -58.4500000000000        -1.205300001649479E-018
  -58.2600000000000        -1.226380297622549E-018
  -58.0700000000000        -1.240697812877997E-018
  -57.8800000000000        -1.246482468416469E-018
  -57.6900000000000        -1.244651510773948E-018
  -57.5000000000000        -1.238497953281549E-018
  -57.3100000000000        -1.232689795213112E-018
  -57.1200000000000        -1.231871221565795E-018
  -56.9300000000000        -1.239272057973388E-018
  -56.7400000000000        -1.255729397559095E-018
  -56.5500000000000        -1.279406134136851E-018
  -56.3600000000000        -1.306289191347388E-018
  -56.1700000000000        -1.331323701090436E-018
  -55.9800000000000        -1.349854056207977E-018
  -55.7900000000000        -1.358952883805154E-018
  -55.6000000000000        -1.358251151275904E-018
  -55.4100000000000        -1.350027688619333E-018
  -55.2200000000000        -1.338531967595420E-018
  -55.0300000000000        -1.328736890187901E-018
  -54.8400000000000        -1.324883706040426E-018
  -54.6500000000000        -1.329241426741060E-018
  -54.4600000000000        -1.341441310812213E-018
  -54.2700000000000        -1.358581147103909E-018
  -54.0800000000000        -1.376071724392615E-018
  -53.8900000000000        -1.388982769525351E-018
  -53.7000000000000        -1.393499739264796E-018
  -53.5100000000000        -1.388068799124430E-018
  -53.3200000000000        -1.373895899393657E-018
  -53.1300000000000        -1.354652125124673E-018
  -52.9400000000000        -1.335467405890706E-018
  -52.7500000000000        -1.321500960539716E-018
  -52.5600000000000        -1.316499289689256E-018
  -52.3700000000000        -1.321755775990240E-018
  -52.1800000000000        -1.335769614541112E-018
  -51.9900000000000        -1.354700069741010E-018
  -51.8000000000000        -1.373483367378179E-018
  -51.6100000000000        -1.387289480436913E-018
  -51.4200000000000        -1.392898896557083E-018
  -51.2300000000000        -1.389603061636840E-018
  -51.0400000000000        -1.379370183610615E-018
  -50.8500000000000        -1.366231030948018E-018
  -50.6600000000000        -1.355065692161231E-018
  -50.4700000000000        -1.350146077436180E-018
  -50.2800000000000        -1.353859452952772E-018
  -50.0900000000000        -1.365984915925664E-018
  -49.9000000000000        -1.383733263392051E-018
  -49.7100000000000        -1.402538624317179E-018
  -49.5200000000000        -1.417372227437997E-018
  -49.3300000000000        -1.424197671641806E-018
  -49.1400000000000        -1.421146298320731E-018
  -48.9500000000000        -1.409072331318341E-018
  -48.7600000000000        -1.391326981186199E-018
  -48.5700000000000        -1.372816851198577E-018
  -48.3800000000000        -1.358619207448685E-018
  -48.1900000000000        -1.352554732969837E-018
  -48.0000000000000        -1.356129912473300E-018
  -47.8100000000000        -1.368152919431782E-018
  -47.6200000000000        -1.385130753715900E-018
  -47.4300000000000        -1.402328877327008E-018
  -47.2400000000000        -1.415183409973358E-018
  -47.0500000000000        -1.420654905865922E-018
  -46.8600000000000        -1.418130458708875E-018
  -46.6700000000000        -1.409611979616588E-018
  -46.4800000000000        -1.399135247626347E-018
  -46.2900000000000        -1.391587420420556E-018
  -46.1000000000000        -1.391265820777053E-018
  -45.9100000000000        -1.400596871435584E-018
  -45.7200000000000        -1.419388192119798E-018
  -45.5300000000000        -1.444832013543431E-018
  -45.3400000000000        -1.472259576627574E-018
  -45.1500000000000        -1.496428279647441E-018
  -44.9600000000000        -1.512969712935650E-018
  -44.7700000000000        -1.519581749967317E-018
  -44.5800000000000        -1.516623791502649E-018
  -44.3900000000000        -1.506948138507915E-018
  -44.2000000000000        -1.495021533974021E-018
  -44.0100000000000        -1.485595559147678E-018
  -43.8200000000000        -1.482314176857905E-018
  -43.6300000000000        -1.486663882626445E-018
  -43.4400000000000        -1.497571318330069E-018
  -43.2500000000000        -1.511763676093246E-018
  -43.0600000000000        -1.524783848956900E-018
  -42.8700000000000        -1.532360422045207E-018
  -42.6800000000000        -1.531728653974251E-018
  -42.4900000000000        -1.522513145456973E-018
  -42.3000000000000        -1.506911377407766E-018
  -42.1100000000000        -1.489121644893705E-018
  -41.9200000000000        -1.474179282357821E-018
  -41.7300000000000        -1.466537523770776E-018
  -41.5400000000000        -1.468804033785852E-018
  -41.3500000000000        -1.480999504403576E-018
  -41.1600000000000        -1.500553654421293E-018
  -40.9700000000000        -1.523040226612662E-018
  -40.7800000000000        -1.543438151765128E-018
  -40.5900000000000        -1.557553429002894E-018
  -40.4000000000000        -1.563190155357487E-018
  -40.2100000000000        -1.560732932307257E-018
  -40.0200000000000        -1.552974658412846E-018
  -39.8300000000000        -1.544243137076570E-018
  -39.6400000000000        -1.539083329018136E-018
  -39.4500000000000        -1.540880826743801E-018
  -39.2600000000000        -1.550829191128891E-018
  -39.0700000000000        -1.567544191282334E-018
  -38.8800000000000        -1.587440149563038E-018
  -38.6900000000000        -1.605761349576734E-018
  -38.5000000000000        -1.617969148788143E-018
  -38.3100000000000        -1.621079645777114E-018
  -38.1200000000000        -1.614559377453872E-018
  -37.9300000000000        -1.600514513636760E-018
  -37.7400000000000        -1.583114928084120E-018
  -37.5500000000000        -1.567417801293260E-018
  -37.3600000000000        -1.557930550237013E-018
  -37.1700000000000        -1.557328894701370E-018
  -36.9800000000000        -1.565701188938547E-018
  -36.7900000000000        -1.580538342366302E-018
  -36.6000000000000        -1.597473697666505E-018
  -36.4100000000000        -1.611560688595259E-018
  -36.2200000000000        -1.618720069783303E-018
  -36.0300000000000        -1.616938297221385E-018
  -35.8400000000000        -1.606869462421007E-018
  -35.6500000000000        -1.591665245937834E-018
  -35.4600000000000        -1.576081108896166E-018
  -35.2700000000000        -1.565117188655999E-018
  -35.0800000000000        -1.562587407248418E-018
  -34.8900000000000        -1.570030577828440E-018
  -34.7000000000000        -1.586277292910329E-018
  -34.5100000000000        -1.607795778765297E-018
  -34.3200000000000        -1.629714281543180E-018
  -34.1300000000000        -1.647222169816900E-018
  -33.9400000000000        -1.656943093110746E-018
  -33.7500000000000        -1.657882450235017E-018
  -33.5600000000000        -1.651675390753231E-018
  -33.3700000000000        -1.642064875077443E-018
  -33.1800000000000        -1.633763258190298E-018
  -32.9900000000000        -1.631030345631482E-018
  -32.8000000000000        -1.636383455492167E-018
  -32.6100000000000        -1.649816697309040E-018
  -32.4200000000000        -1.668758879213823E-018
  -32.2300000000000        -1.688785228094087E-018
  -32.0400000000000        -1.704879389650479E-018
  -31.8500000000000        -1.712882037655842E-018
  -31.6600000000000        -1.710707045624074E-018
  -31.4700000000000        -1.698971710495700E-018
  -31.2800000000000        -1.680855607308717E-018
  -31.0900000000000        -1.661225422613514E-018
  -30.9000000000000        -1.645276235249854E-018
  -30.7100000000000        -1.637080737760757E-018
  -30.5200000000000        -1.638465021752788E-018
  -30.3300000000000        -1.648534566011372E-018
  -30.1400000000000        -1.663984867044839E-018
  -29.9500000000000        -1.680103337373276E-018
  -29.7600000000000        -1.692169336157185E-018
  -29.5700000000000        -1.696845333525109E-018
  -29.3800000000000        -1.693156400033004E-018
  -29.1900000000000        -1.682775368400367E-018
  -29.0000000000000        -1.669532250771162E-018
  -28.8100000000000        -1.658291118299128E-018
  -28.6200000000000        -1.653521093309324E-018
  -28.4300000000000        -1.657977194560110E-018
  -28.2400000000000        -1.671875256455085E-018
  -28.0500000000000        -1.692801620019442E-018
  -27.8600000000000        -1.716384235390567E-018
  -27.6700000000000        -1.737529885445664E-018
  -27.4800000000000        -1.751867716841579E-018
  -27.2900000000000        -1.756980195642131E-018
  -27.1000000000000        -1.753065594659163E-018
  -26.9100000000000        -1.742842148559775E-018
  -26.7200000000000        -1.730724540484896E-018
  -26.5300000000000        -1.721514452837544E-018
  -26.3400000000000        -1.718987546615708E-018
  -26.1500000000000        -1.724788922510357E-018
  -25.9600000000000        -1.737959224708766E-018
  -25.7700000000000        -1.755229751546782E-018
  -25.5800000000000        -1.772000351543623E-018
  -25.3900000000000        -1.783714089986618E-018
  -25.2000000000000        -1.787226275381191E-018
  -25.0100000000000        -1.781766440559111E-018
  -24.8200000000000        -1.769209837847544E-018
  -24.6300000000000        -1.753575535216209E-018
  -24.4400000000000        -1.739893054960921E-018
  -24.2500000000000        -1.732763530879115E-018
  -24.0600000000000        -1.735031402909176E-018
  -23.8700000000000        -1.746952581696620E-018
  -23.6800000000000        -1.766102897889249E-018
  -23.4900000000000        -1.788056874694737E-018
  -23.3000000000000        -1.807643196869183E-018
  -23.1100000000000        -1.820415111952591E-018
  -22.9200000000000        -1.823910880091929E-018
  -22.7300000000000        -1.818339978237294E-018
  -22.5400000000000        -1.806497405187723E-018
  -22.3500000000000        -1.792932308873248E-018
  -22.1600000000000        -1.782612861666760E-018
  -21.9700000000000        -1.779474448647531E-018
  -21.7800000000000        -1.785271489379550E-018
  -21.5900000000000        -1.799065441442836E-018
  -21.4000000000000        -1.817497823892373E-018
  -21.2100000000000        -1.835769934134567E-018
  -21.0200000000000        -1.849045690826765E-018
  -20.8300000000000        -1.853870293225043E-018
  -20.6400000000000        -1.849191590333533E-018
  -20.4500000000000        -1.836685670833885E-018
  -20.2600000000000        -1.820290334634324E-018
  -20.0700000000000        -1.805080666503914E-018
  -19.8800000000000        -1.795812246645627E-018
  -19.6900000000000        -1.795553945761871E-018
  -19.5000000000000        -1.804806295328633E-018
  -19.3100000000000        -1.821361100546249E-018
  -19.1200000000000        -1.840943991741953E-018
  -18.9300000000000        -1.858455624636966E-018
  -18.7400000000000        -1.869454090743100E-018
  -18.5500000000000        -1.871450498130636E-018
  -18.3600000000000        -1.864642339507834E-018
  -18.1700000000000        -1.851870735156648E-018
  -17.9800000000000        -1.837811684816770E-018
  -17.7900000000000        -1.827633069386409E-018
  -17.6000000000000        -1.825503813267956E-018
  -17.4100000000000        -1.833384491690791E-018
  -17.2200000000000        -1.850447457139565E-018
  -17.0300000000000        -1.873292975164853E-018
  -16.8400000000000        -1.896898624988780E-018
  -16.6500000000000        -1.916028493316324E-018
  -16.4600000000000        -1.926696868911351E-018
  -16.2700000000000        -1.927265985679931E-018
  -16.0800000000000        -1.918863495540957E-018
  -15.8900000000000        -1.905002504834743E-018
  -15.7000000000000        -1.890518121384094E-018
  -15.5100000000000        -1.880132259788087E-018
  -15.3200000000000        -1.877065340584762E-018
  -15.1300000000000        -1.882098469945025E-018
  -14.9400000000000        -1.893357407288472E-018
  -14.7500000000000        -1.906879216651646E-018
  -14.5600000000000        -1.917795514819629E-018
  -14.3700000000000        -1.921788140559708E-018
  -14.1800000000000        -1.916394549585957E-018
  -13.9900000000000        -1.901783495774853E-018
  -13.8000000000000        -1.880774281601271E-018
  -13.6100000000000        -1.858091323980318E-018
  -13.4200000000000        -1.839067065420019E-018
  -13.2300000000000        -1.828166303180314E-018
  -13.0400000000000        -1.827757034239232E-018
  -12.8500000000000        -1.837481257975948E-018
  -12.6600000000000        -1.854404610732969E-018
  -12.4700000000000        -1.873897655148561E-018
  -12.2800000000000        -1.890990450468760E-018
  -12.0900000000000        -1.901806869015078E-018
  -11.9000000000000        -1.904664434850530E-018
  -11.7100000000000        -1.900524400209064E-018
  -11.5200000000000        -1.892666102341817E-018
  -11.3300000000000        -1.885684446080978E-018
  -11.1400000000000        -1.884104988668791E-018
  -10.9500000000000        -1.891021333218787E-018
  -10.7600000000000        -1.907152266327731E-018
  -10.5700000000000        -1.930593006749507E-018
  -10.3800000000000        -1.957331886397793E-018
  -10.1900000000000        -1.982380344882973E-018
  -10.0000000000000        -2.001185722685322E-018
  -9.81000000000000        -2.010914952899180E-018
  -9.62000000000000        -2.011236274756155E-018
  -9.42999999999999        -2.004373543057079E-018
  -9.23999999999999        -1.994420030057600E-018
  -9.05000000000000        -1.986113978550181E-018
  -8.86000000000000        -1.983434448403440E-018
  -8.67000000000000        -1.988428078080464E-018
  -8.48000000000000        -2.000609860941334E-018
  -8.28999999999999        -2.017113231739327E-018
  -8.09999999999999        -2.033545543324588E-018
  -7.91000000000000        -2.045298478578544E-018
  -7.72000000000000        -2.048929577632357E-018
  -7.53000000000000        -2.043210030348308E-018
  -7.34000000000000        -2.029531254295635E-018
  -7.15000000000001        -2.011549625486536E-018
  -6.95999999999999        -1.994170235617653E-018
  -6.77000000000000        -1.982162580771610E-018
  -6.58000000000000        -1.978808425496510E-018
  -6.39000000000000        -1.984973679929799E-018
  -6.20000000000000        -1.998874018978259E-018
  -6.01000000000001        -2.016603112157140E-018
  -5.81999999999999        -2.033270714483207E-018
  -5.63000000000000        -2.044419975689368E-018
  -5.44000000000000        -2.047311583967536E-018
  -5.25000000000000        -2.041701356944759E-018
  -5.06000000000000        -2.029886303688867E-018
  -4.87000000000000        -2.016008047941624E-018
  -4.67999999999999        -2.004818916298326E-018
  -4.48999999999999        -2.000271948688970E-018
  -4.30000000000000        -2.004346594780372E-018
  -4.11000000000000        -2.016452715218939E-018
  -3.92000000000000        -2.033587132774688E-018
  -3.73000000000000        -2.051198100361317E-018
  -3.53999999999999        -2.064506663664652E-018
  -3.34999999999999        -2.069899806568969E-018
  -3.16000000000000        -2.065988147842990E-018
  -2.97000000000000        -2.054018083037743E-018
  -2.78000000000000        -2.037516595730471E-018
  -2.59000000000000        -2.021271364074776E-018
  -2.40000000000001        -2.009943460854055E-018
  -2.20999999999999        -2.006717733237300E-018
  -2.02000000000000        -2.012385274026725E-018
  -1.83000000000000        -2.025126696244309E-018
  -1.64000000000000        -2.041061149984117E-018
  -1.45000000000000        -2.055403185728127E-018
  -1.26000000000001        -2.063891872754807E-018
  -1.06999999999999        -2.064075640394477E-018
 -0.879999999999995        -2.056076256602577E-018
 -0.689999999999998        -2.042605216519327E-018
 -0.500000000000000        -2.028222392822414E-018
 -0.310000000000002        -2.018047262086966E-018
 -0.120000000000005        -2.016293016065109E-018
  7.000000000000739E-002   -2.025046397837780E-018
  0.260000000000005        -2.043645815030970E-018
  0.450000000000003        -2.068838000658382E-018
  0.640000000000001        -2.095669370183004E-018
  0.829999999999998        -2.118856755058934E-018
   1.02000000000000        -2.134244083363328E-018
   1.21000000000001        -2.139926729564508E-018
   1.40000000000001        -2.136721156481432E-018
   1.59000000000000        -2.127846857646150E-018
   1.78000000000000        -2.117916154425835E-018
   1.97000000000000        -2.111528884345692E-018
   2.16000000000000        -2.111884206153946E-018
   2.34999999999999        -2.119816369473957E-018
   2.54000000000001        -2.133536923914077E-018
   2.73000000000000        -2.149159235366872E-018
   2.92000000000000        -2.161852791225342E-018
   3.11000000000000        -2.167290958676075E-018
   3.30000000000000        -2.162969770733670E-018
   3.48999999999999        -2.149011592115254E-018
   3.68000000000001        -2.128215477112272E-018
   3.87000000000000        -2.105333276675467E-018
   4.06000000000000        -2.085774959888797E-018
   4.25000000000000        -2.074113344125723E-018
   4.44000000000000        -2.072818461893117E-018
   4.63000000000000        -2.081586940221990E-018
   4.82000000000001        -2.097460507170676E-018
   5.01000000000001        -2.115699738803569E-018
   5.20000000000000        -2.131160755454807E-018
   5.39000000000000        -2.139777419543197E-018
   5.58000000000000        -2.139721713475862E-018
   5.77000000000000        -2.131908477689247E-018
   5.96000000000001        -2.119700137780109E-018
   6.15000000000001        -2.107898035222113E-018
   6.34000000000000        -2.101313298821097E-018
   6.53000000000000        -2.103332249212026E-018