  -105.000000000000         0.000000000000000E+000
  -104.810000000000        -6.072447303086031E-021
  -104.620000000000        -1.674436328094252E-020
  -104.430000000000        -2.956491315011436E-020
  -104.240000000000        -4.179216155893104E-020
  -104.050000000000        -5.115640231672159E-020
  -103.860000000000        -5.648021369724087E-020
  -103.670000000000        -5.797706940447968E-020
  -103.480000000000        -5.714381042766172E-020
  -103.290000000000        -5.628038049587150E-020
  -103.100000000000        -5.777846033248137E-020
  -102.910000000000        -6.338738798839358E-020
  -102.720000000000        -7.367168241128262E-020
  -102.530000000000        -8.781817464543910E-020
  -102.340000000000        -1.038488671438581E-019
  -102.150000000000        -1.191778122284145E-019
  -101.960000000000        -1.313504734285676E-019
  -101.770000000000        -1.387508908160701E-019
  -101.580000000000        -1.410708826848552E-019
  -101.390000000000        -1.394041112224025E-019
  -101.200000000000        -1.359365020740790E-019
  -101.010000000000        -1.333218124220534E-019
  -100.820000000000        -1.339228622854264E-019
  -100.630000000000        -1.391381264908860E-019
  -100.440000000000        -1.490084829856973E-019
  -100.250000000000        -1.622173119441726E-019
  -100.060000000000        -1.764828640190235E-019
  -99.8700000000000        -1.892282376254698E-019
  -99.6800000000000        -1.983342804269430E-019
  -99.4900000000000        -2.027571582860087E-019
  -99.3000000000000        -2.028317828258391E-019
  -99.1100000000000        -2.001733216319120E-019
  -98.9200000000000        -1.972055014136052E-019
  -98.7300000000000        -1.964528122074052E-019
  -98.5400000000000        -1.998025197250087E-019
  -98.3500000000000        -2.079513163169267E-019
  -98.1600000000000        -2.201976791647645E-019
  -97.9700000000000        -2.346402629869537E-019
  -97.7800000000000        -2.487244811007579E-019
  -97.5900000000000        -2.599783508455595E-019
  -97.4000000000000        -2.667240096389479E-019
  -97.2100000000000        -2.685586778784042E-019
  -97.0200000000000        -2.664658732055670E-019
  -96.8300000000000        -2.625248748110933E-019
  -96.6400000000000        -2.593028659991265E-019
  -96.4500000000000        -2.591062489381537E-019
  -96.2600000000000        -2.633086119843369E-019
  -96.0700000000000        -2.719506772690125E-019
  -95.8800000000000        -2.837285301684001E-019
  -95.6900000000000        -2.963734508030287E-019
  -95.5000000000000        -3.073126922205490E-019
  -95.3100000000000        -3.144189213041676E-019
  -95.1200000000000        -3.166305615529076E-019
  -94.9300000000000        -3.142631352183359E-019
  -94.7400000000000        -3.089215295784987E-019
  -94.5500000000000        -3.030386801866696E-019
  -94.3600000000000        -2.991741693564789E-019
  -94.1700000000000        -2.992757187799311E-019
  -93.9800000000000        -3.041175004436836E-019
  -93.7900000000000        -3.130782374372572E-019
  -93.6000000000000        -3.243236936556219E-019
  -93.4100000000000        -3.353407846426522E-019
  -93.2200000000000        -3.436684124427074E-019
  -93.0300000000000        -3.476131199656320E-019
  -92.8400000000000        -3.467423189885093E-019
  -92.6500000000000        -3.420125376003435E-019
  -92.4600000000000        -3.354958270287213E-019
  -92.2700000000000        -3.297835243378422E-019
  -92.0800000000000        -3.272395786416889E-019
  -91.8900000000000        -3.293189230668429E-019
  -91.7000000000000        -3.361475393419510E-019
  -91.5100000000000        -3.464853647272096E-019
  -91.3200000000000        -3.580826845404617E-019
  -91.1300000000000        -3.683268595141940E-019
  -90.9400000000000        -3.749920342679031E-019
  -90.7500000000000        -3.768744818731911E-019
  -90.5600000000000        -3.741294674621776E-019
  -90.3700000000000        -3.682124173331270E-019
  -90.1800000000000        -3.614423291558140E-019
  -89.9900000000000        -3.563150423326124E-019
  -89.8000000000000        -3.547663539881384E-019
  -89.6100000000000        -3.575993706597720E-019
  -89.4200000000000        -3.642431124389711E-019
  -89.2300000000000        -3.729138638907427E-019
  -89.0400000000000        -3.811342323055097E-019
  -88.8500000000000        -3.864606811982648E-019
  -88.6600000000000        -3.872087960914411E-019
  -88.4700000000000        -3.829650580939259E-019
  -88.2800000000000        -3.747349984441226E-019
  -88.0900000000000        -3.646826636872602E-019
  -87.9000000000000        -3.555347821721389E-019
  -87.7100000000000        -3.498204275151480E-019
  -87.5200000000000        -3.491649946004243E-019
  -87.3300000000000        -3.538419262128367E-019
  -87.1400000000000        -3.627112072959727E-019
  -86.9500000000000        -3.735616862347855E-019
  -86.7600000000000        -3.837572662146892E-019
  -86.5700000000000        -3.909989182258932E-019
  -86.3800000000000        -3.939808714419125E-019
  -86.1900000000000        -3.927500864910593E-019
  -86.0000000000000        -3.886646151341150E-019
  -85.8100000000000        -3.839639051389861E-019
  -85.6200000000000        -3.810782360999883E-019
  -85.4300000000000        -3.818813902139734E-019
  -85.2400000000000        -3.871073730176160E-019
  -85.0500000000000        -3.961036790028595E-019
  -84.8600000000000        -4.069948582554676E-019
  -84.6700000000000        -4.172101313983853E-019
  -84.4800000000000        -4.242223639839183E-019
  -84.2900000000000        -4.262835122320295E-019
  -84.1000000000000        -4.229417601252556E-019
  -83.9100000000000        -4.151883526880021E-019
  -83.7200000000000        -4.051897499686144E-019
  -83.5300000000000        -3.956818155568285E-019
  -83.3400000000000        -3.892015771189242E-019
  -83.1500000000000        -3.873794782958578E-019
  -82.9600000000000        -3.904971907377024E-019
  -82.7700000000000        -3.974383728162219E-019
  -82.5800000000000        -4.060449935098320E-019
  -82.3900000000000        -4.137735351043516E-019
  -82.2000000000000        -4.184582397520579E-019
  -82.0100000000000        -4.189580658214374E-019
  -81.8200000000000        -4.154987688495569E-019
  -81.6300000000000        -4.096109055124821E-019
  -81.4400000000000        -4.036823151919277E-019
  -81.2500000000000        -4.002556778389128E-019
  -81.0600000000000        -4.012757978064507E-019
  -80.8700000000000        -4.075058512739476E-019
  -80.6800000000000        -4.182825494253162E-019
  -80.4900000000000        -4.316813630332505E-019
  -80.3000000000000        -4.450438399791859E-019
  -80.1100000000000        -4.557147756479826E-019
  -79.9200000000000        -4.617776572756810E-019
  -79.7300000000000        -4.625785987145692E-019
  -79.5400000000000        -4.588904246941093E-019
  -79.3500000000000        -4.526717839658925E-019
  -79.1600000000000        -4.464919628491981E-019
  -78.9700000000000        -4.427875621565741E-019
  -78.7800000000000        -4.431649350622459E-019
  -78.5900000000000        -4.479483771788790E-019
  -78.4000000000000        -4.561025585073990E-019
  -78.2100000000000        -4.655494369316139E-019
  -78.0200000000000        -4.737863129410688E-019
  -77.8300000000000        -4.786255150592345E-019
  -77.6400000000000        -4.788420807538774E-019
  -77.4500000000000        -4.745432658865907E-019
  -77.2600000000000        -4.671544898513188E-019
  -77.0700000000000        -4.590266647218030E-019
  -76.8800000000000        -4.527777413805670E-019
  -76.6900000000000        -4.505561433409058E-019
  -76.5000000000000        -4.534351069827227E-019
  -76.3100000000000        -4.611095095450581E-019
  -76.1200000000000        -4.719811714750715E-019
  -75.9300000000000        -4.836086156732351E-019
  -75.7400000000000        -4.933937410158125E-019
  -75.5500000000000        -4.993103960833292E-019
  -75.3600000000000        -5.004679246123181E-019
  -75.1700000000000        -4.973498630094533E-019
  -74.9800000000000        -4.916605581852576E-019
  -74.7900000000000        -4.858241657767542E-019
  -74.6000000000000        -4.822797332761845E-019
  -74.4100000000000        -4.827747985700739E-019
  -74.2200000000000        -4.878610794388558E-019
  -74.0300000000000        -4.967382867766634E-019
  -73.8400000000000        -5.074917488587710E-019
  -73.6500000000000        -5.176552743937926E-019
  -73.4600000000000        -5.249358971011146E-019
  -73.2700000000000        -5.278895669230852E-019
  -73.0800000000000        -5.263503864052960E-019
  -72.8900000000000        -5.214868445189502E-019
  -72.7000000000000        -5.154663209462375E-019
  -72.5100000000000        -5.108228156250604E-019
  -72.3200000000000        -5.097095881932311E-019
  -72.1300000000000        -5.132531952984455E-019
  -71.9400000000000        -5.211981896661459E-019
  -71.7500000000000        -5.319498870998999E-019
  -71.5600000000000        -5.430088347118021E-019
  -71.3700000000000        -5.516768462129559E-019
  -71.1800000000000        -5.558333642362703E-019
  -70.9900000000000        -5.545569134889555E-019
  -70.8000000000000        -5.484082715738220E-019
  -70.6100000000000        -5.392890000551307E-019
  -70.4200000000000        -5.299131280752549E-019
  -70.2300000000000        -5.230440236350035E-019
  -70.0400000000000        -5.207184088589891E-019
  -69.8500000000000        -5.236839532905421E-019
  -69.6600000000000        -5.312143619608076E-019
  -69.4700000000000        -5.413547473398683E-019
  -69.2800000000000        -5.515231694701867E-019
  -69.0900000000000        -5.592890654036864E-019
  -68.9000000000000        -5.630969879251024E-019
  -68.7100000000000        -5.627202494096216E-019
  -68.5200000000000        -5.593092130774391E-019
  -68.3300000000000        -5.550196395575938E-019
  -68.1400000000000        -5.523320725797419E-019
  -67.9500000000000        -5.532664343831540E-019
  -67.7600000000000        -5.587288208448774E-019
  -67.5700000000000        -5.681896700011884E-019
  -67.3800000000000        -5.797947847272888E-019
  -67.1900000000000        -5.908818955609426E-019
  -67.0000000000000        -5.987537247144833E-019
  -66.8100000000000        -6.014800594782892E-019
  -66.6200000000000        -5.984898640199479E-019
  -66.4300000000000        -5.907741948297112E-019
  -66.2400000000000        -5.806347359537933E-019
  -66.0500000000000        -5.710475416406610E-019
  -65.8600000000000        -5.648266261239272E-019
  -65.6700000000000        -5.638324570575782E-019
  -65.4800000000000        -5.684576729557982E-019
  -65.2900000000000        -5.775402038751181E-019
  -65.1000000000000        -5.887273405675338E-019
  -64.9100000000000        -5.991813971642921E-019
  -64.7200000000000        -6.064180397298656E-019
  -64.5300000000000        -6.090311107907004E-019
  -64.3400000000000        -6.070929938978792E-019
  -64.1500000000000        -6.021160048816339E-019
  -63.9600000000000        -5.965891634354727E-019
  -63.7700000000000        -5.932283239025457E-019
  -63.5800000000000        -5.941603669773985E-019
  -63.3900000000000        -6.002802633017741E-019
  -63.2000000000000        -6.109682294229619E-019
  -63.0100000000000        -6.242481599807528E-019
  -62.8200000000000        -6.373393871500109E-019
  -62.6300000000000        -6.474396214994306E-019
  -62.4400000000000        -6.525108794332714E-019
  -62.2500000000000        -6.518410072180624E-019
  -62.0600000000000        -6.462201904171382E-019
  -61.8700000000000        -6.376847216595803E-019
  -61.6800000000000        -6.289063110181717E-019
  -61.4900000000000        -6.224077426491071E-019
  -61.3000000000000        -6.198349133761747E-019
  -61.1100000000000        -6.214969641723377E-019
  -60.9200000000000        -6.263060442316600E-019
  -60.7300000000000        -6.321303782323251E-019
  -60.5400000000000        -6.364538753480223E-019
  -60.3500000000000        -6.371477932354697E-019
  -60.1600000000000        -6.331298500181338E-019
  -59.9700000000000        -6.247211715651618E-019
  -59.7800000000000        -6.136000027524423E-019
  -59.5900000000000        -6.023666453587797E-019
  -59.4000000000000        -5.938434986182797E-019
  -59.2100000000000        -5.903073278668605E-019
  -59.0200000000000        -5.928687207537030E-019
  -58.8300000000000        -6.011719422466508E-019
  -58.6400000000000        -6.134986433033941E-019
  -58.4500000000000        -6.272455835819882E-019
  -58.2600000000000        -6.396410613710929E-019
  -58.0700000000000        -6.484971515577981E-019
  -57.8800000000000        -6.527851729342483E-019
  -57.6900000000000        -6.528734660109298E-019
  -57.5000000000000        -6.503646404351550E-019
  -57.3100000000000        -6.475850615364096E-019
  -57.1200000000000        -6.468786080377789E-019
  -56.9300000000000        -6.499109729436652E-019
  -56.7400000000000        -6.571848132247861E-019
  -56.5500000000000        -6.679024290781615E-019
  -56.3600000000000        -6.802106447591494E-019
  -56.1700000000000        -6.917521357349680E-019
  -55.9800000000000        -7.003602472716240E-019
  -55.7900000000000        -7.046946907996471E-019
  -55.6000000000000        -7.046338518735462E-019
  -55.4100000000000        -7.013099350826419E-019
  -55.2200000000000        -6.967756618140496E-019
  -55.0300000000000        -6.933970529996948E-019
  -54.8400000000000        -6.931464419488799E-019
  -54.6500000000000        -6.970006412170639E-019
  -54.4600000000000        -7.046216399273235E-019
  -54.2700000000000        -7.144180552725686E-019
  -54.0800000000000        -7.239764148969120E-019
  -53.8900000000000        -7.307431224462129E-019
  -53.7000000000000        -7.327624568559280E-019
  -53.5100000000000        -7.292565478654898E-019
  -53.3200000000000        -7.208771569976766E-019
  -53.1300000000000        -7.095540739572876E-019
  -52.9400000000000        -6.979826389390323E-019
  -52.7500000000000        -6.888977409358270E-019
  -52.5600000000000        -6.843422999921730E-019
  -52.3700000000000        -6.851375026082707E-019
  -52.1800000000000        -6.907016249818488E-019
  -51.9900000000000        -6.992631367448407E-019
  -51.8000000000000        -7.084014897902808E-019
  -51.6100000000000        -7.157569853490456E-019
  -51.4200000000000        -7.197045689914936E-019
  -51.2300000000000        -7.197980928827570E-019
  -51.0400000000000        -7.168584457247542E-019
  -50.8500000000000        -7.126825149069539E-019
  -50.6600000000000        -7.094609290656822E-019
  -50.4700000000000        -7.090787097211281E-019
  -50.2800000000000        -7.125084779936384E-019
  -50.0900000000000        -7.194793436717595E-019
  -49.9000000000000        -7.285232081427948E-019
  -49.7100000000000        -7.373878279503225E-019
  -49.5200000000000        -7.436961134889230E-019
  -49.3300000000000        -7.456567948120280E-019
  -49.1400000000000        -7.426152054410390E-019
  -48.9500000000000        -7.352793758530948E-019
  -48.7600000000000        -7.255518075211203E-019
  -48.5700000000000        -7.160128470077488E-019
  -48.3800000000000        -7.092035465897228E-019
  -48.1900000000000        -7.069146156956080E-019
  -48.0000000000000        -7.096866443387250E-019
  -47.8100000000000        -7.166659779127662E-019
  -47.6200000000000        -7.258584591779450E-019
  -47.4300000000000        -7.347093811979754E-019
  -47.2400000000000        -7.408448838353346E-019
  -47.0500000000000        -7.427637621641090E-019
  -46.8600000000000        -7.402819282737333E-019
  -46.6700000000000        -7.346008299002933E-019
  -46.4800000000000        -7.279771301780167E-019
  -46.2900000000000        -7.230847612846670E-019
  -46.1000000000000        -7.222498889006576E-019
  -45.9100000000000        -7.267778539227163E-019
  -45.7200000000000        -7.365663292488914E-019
  -45.5300000000000        -7.501170537975500E-019
  -45.3400000000000        -7.649432782039929E-019
  -45.1500000000000        -7.782553831973305E-019
  -44.9600000000000        -7.877268128891461E-019
  -44.7700000000000        -7.921200186733968E-019
  -44.5800000000000        -7.915937990816109E-019
  -44.3900000000000        -7.876066478988882E-019
  -44.2000000000000        -7.824480773847118E-019
  -44.0100000000000        -7.785373049076708E-019
  -43.8200000000000        -7.776953134303155E-019
  -43.6300000000000        -7.806032642778281E-019
  -43.4400000000000        -7.866058679706368E-019
  -43.2500000000000        -7.939181725366633E-019
  -43.0600000000000        -8.001766652664880E-019
  -42.8700000000000        -8.031741911674632E-019
  -42.6800000000000        -8.015625578703606E-019
  -42.4900000000000        -7.953135961202160E-019
  -42.3000000000000        -7.857975087569993E-019
  -42.1100000000000        -7.754474153446402E-019
  -41.9200000000000        -7.670997859794805E-019
  -41.7300000000000        -7.631972537039246E-019
  -41.5400000000000        -7.650845230361337E-019
  -41.3500000000000        -7.726054915076121E-019
  -41.1600000000000        -7.841250549731258E-019
  -40.9700000000000        -7.969758551811853E-019
  -40.7800000000000        -8.082046437068694E-019
  -40.5900000000000        -8.154031650555825E-019
  -40.4000000000000        -8.173822677260623E-019
  -40.2100000000000        -8.144934055961179E-019
  -40.0200000000000        -8.085048761198917E-019
  -39.8300000000000        -8.020701190733583E-019
  -39.6400000000000        -7.979438651374876E-019
  -39.4500000000000        -7.981744427837114E-019
  -39.2600000000000        -8.035064677983733E-019
  -39.0700000000000        -8.131662870666993E-019
  -38.8800000000000        -8.250910862075619E-019
  -38.6900000000000        -8.365334976933545E-019
  -38.5000000000000        -8.448638595115455E-019
  -38.3100000000000        -8.483338791492256E-019
  -38.1200000000000        -8.465760891148201E-019
  -37.9300000000000        -8.406911282016681E-019
  -37.7400000000000        -8.328975459760612E-019
  -37.5500000000000        -8.258501560216258E-019
  -37.3600000000000        -8.218329364348881E-019
  -37.1700000000000        -8.220702294973594E-019
  -36.9800000000000        -8.263639797821907E-019
  -36.7900000000000        -8.331661529746133E-019
  -36.6000000000000        -8.400642260352468E-019
  -36.4100000000000        -8.445332458789931E-019
  -36.2200000000000        -8.447278804441392E-019
  -36.0300000000000        -8.400762241496025E-019
  -35.8400000000000        -8.314970273572357E-019
  -35.6500000000000        -8.211748022421595E-019
  -35.4600000000000        -8.119584692201359E-019
  -35.2700000000000        -8.065595486068351E-019
  -35.0800000000000        -8.067832918470489E-019
  -34.8900000000000        -8.130150148988734E-019
  -34.7000000000000        -8.241088229575289E-019
  -34.5100000000000        -8.377093056876252E-019
  -34.3200000000000        -8.509122250521351E-019
  -34.1300000000000        -8.610733119778876E-019
  -33.9400000000000        -8.665326996562267E-019
  -33.7500000000000        -8.670480108501904E-019
  -33.5600000000000        -8.638142638729650E-019
  -33.3700000000000        -8.590691220382127E-019
  -33.1800000000000        -8.554026827967859E-019
  -32.9900000000000        -8.549763183355679E-019
  -32.8000000000000        -8.588794713073591E-019
  -32.6100000000000        -8.668097726376445E-019
  -32.4200000000000        -8.771643529724496E-019
  -32.2300000000000        -8.875089720179109E-019
  -32.0400000000000        -8.952830609036570E-019
  -31.8500000000000        -8.985341464674463E-019
  -31.6600000000000        -8.964712760260306E-019
  -31.4700000000000        -8.896828739957314E-019
  -31.2800000000000        -8.799625651347538E-019
  -31.0900000000000        -8.697985858024720E-019
  -30.9000000000000        -8.616767828270871E-019
  -30.7100000000000        -8.573975493763501E-019
  -30.5200000000000        -8.576000129721022E-019
  -30.3300000000000        -8.616254608395208E-019
  -30.1400000000000        -8.677543458536218E-019
  -29.9500000000000        -8.737448730048118E-019
  -29.7600000000000        -8.775159398422611E-019
  -29.5700000000000        -8.777769795886053E-019
  -29.3800000000000        -8.744232616841208E-019
  -29.1900000000000        -8.685828624270142E-019
  -29.0000000000000        -8.623016533100113E-019
  -28.8100000000000        -8.579566922723405E-019
  -28.6200000000000        -8.575664681258040E-019
  -28.4300000000000        -8.621961050035801E-019
  -28.2400000000000        -8.716283397494056E-019
  -28.0500000000000        -8.843946139564450E-019
  -27.8600000000000        -8.981571764604043E-019
  -27.6700000000000        -9.103331170714652E-019
  -27.4800000000000        -9.187839038375837E-019
  -27.2900000000000        -9.223777551666677E-019
  -27.1000000000000        -9.212698964375766E-019
  -26.9100000000000        -9.168254143249218E-019
  -26.7200000000000        -9.112086501412839E-019
  -26.5300000000000        -9.067551466612557E-019
  -26.3400000000000        -9.053024998836694E-019
  -26.1500000000000        -9.076685754172540E-019
  -25.9600000000000        -9.134253078157426E-019
  -25.7700000000000        -9.210337098997289E-019
  -25.5800000000000        -9.283031803268333E-019
  -25.3900000000000        -9.330447225806506E-019
  -25.2000000000000        -9.337304074500979E-019
  -25.0100000000000        -9.299675609293625E-019
  -24.8200000000000        -9.226479752477229E-019
  -24.6300000000000        -9.137258385580369E-019
  -24.4400000000000        -9.056859414129272E-019
  -24.2500000000000        -9.008540034458737E-019
  -24.0600000000000        -9.007470282762035E-019
  -23.8700000000000        -9.056502749303187E-019
  -23.6800000000000        -9.145422920797947E-019
  -23.4900000000000        -9.253893608549292E-019
  -23.3000000000000        -9.357245027207893E-019
  -23.1100000000000        -9.433445750645749E-019
  -22.9200000000000        -9.469253729912467E-019
  -22.7300000000000        -9.463786101239271E-019
  -22.5400000000000        -9.428490486136612E-019
  -22.3500000000000        -9.383532964122254E-019
  -22.1600000000000        -9.351644596375896E-019
  -21.9700000000000        -9.351203259266309E-019
  -21.7800000000000        -9.390565996285424E-019
  -21.5900000000000        -9.465332428320307E-019
  -21.4000000000000        -9.559388330000999E-019
  -21.2100000000000        -9.649475686722917E-019
  -21.0200000000000        -9.711982813390165E-019
  -20.8300000000000        -9.729965784682725E-019
  -20.6400000000000        -9.698316539606527E-019
  -20.4500000000000        -9.625524254004418E-019
  -20.2600000000000        -9.531481679028532E-019
  -20.0700000000000        -9.441963000461600E-019
  -19.8800000000000        -9.381386202675646E-019
  -19.6900000000000        -9.365974343448330E-019
  -19.5000000000000        -9.399302343432311E-019
  -19.3100000000000        -9.471506465582133E-019
  -19.1200000000000        -9.562361892412237E-019
  -18.9300000000000        -9.647316922094191E-019
  -18.7400000000000        -9.704726757223725E-019
  -18.5500000000000        -9.722187477560736E-019
  -18.3600000000000        -9.700127162542453E-019
  -18.1700000000000        -9.651600768273584E-019
  -17.9800000000000        -9.598338606573666E-019
  -17.7900000000000        -9.564196625090153E-019
  -17.6000000000000        -9.567928084519180E-019
  -17.4100000000000        -9.617411698576523E-019
  -17.2200000000000        -9.707060526614924E-019
  -17.0300000000000        -9.819209949773734E-019
  -16.8400000000000        -9.929107984422831E-019
  -16.6500000000000        -1.001205334557798E-018
  -16.4600000000000        -1.005057099479386E-018
  -16.2700000000000        -1.003948736416206E-018
  -16.0800000000000        -9.987386544898202E-019
  -15.8900000000000        -9.914009860654430E-019
  -15.7000000000000        -9.844372328937372E-019
  -15.5100000000000        -9.801342182174493E-019
  -15.3200000000000        -9.798876182739333E-019
  -15.1300000000000        -9.837898333843438E-019
  -14.9400000000000        -9.906022054803057E-019
  -14.7500000000000        -9.981187796209154E-019
  -14.5600000000000        -1.003815482284098E-018
  -14.3700000000000        -1.005596939705192E-018
  -14.1800000000000        -1.002425224393802E-018
  -13.9900000000000        -9.946478037304355E-019
  -13.8000000000000        -9.839270097196100E-019
  -13.6100000000000        -9.727874156150329E-019
  -13.4200000000000        -9.639088446981234E-019
  -13.2300000000000        -9.593690958148204E-019
  -13.0400000000000        -9.600581370963327E-019
  -12.8500000000000        -9.654372521736741E-019
  -12.6600000000000        -9.737155507769171E-019
  -12.4700000000000        -9.823926302948074E-019
  -12.2800000000000        -9.890074602644931E-019
  -12.0900000000000        -9.918724791449413E-019
  -11.9000000000000        -9.905767454916098E-019
  -11.7100000000000        -9.861111161432044E-019
  -11.5200000000000        -9.805803991975999E-019
  -11.3300000000000        -9.765880998720198E-019
  -11.1400000000000        -9.764732876089969E-019
  -10.9500000000000        -9.816200472299014E-019
  -10.7600000000000        -9.920374712361873E-019
  -10.5700000000000        -1.006329659823098E-018
  -10.3800000000000        -1.022063705150468E-018
  -10.1900000000000        -1.036430817475014E-018
  -10.0000000000000        -1.047012971239479E-018
  -9.81000000000000        -1.052437596886276E-018
  -9.62000000000000        -1.052734357866340E-018
  -9.42999999999999        -1.049292301790934E-018
  -9.23999999999999        -1.044429254474869E-018
  -9.05000000000000        -1.040696703890023E-018
  -8.86000000000000        -1.040121074176649E-018
  -8.67000000000000        -1.043602695665198E-018
  -8.48000000000000        -1.050648985603615E-018
  -8.28999999999999        -1.059520457771223E-018
  -8.09999999999999        -1.067746581906017E-018
  -7.91000000000000        -1.072860103493825E-018
  -7.72000000000000        -1.073135507044141E-018
  -7.53000000000000        -1.068117817469240E-018
  -7.34000000000000        -1.058790381356982E-018
  -7.15000000000001        -1.047334795074599E-018
  -6.95999999999999        -1.036551735515698E-018
  -6.77000000000000        -1.029105761458443E-018
  -6.58000000000000        -1.026805050712297E-018
  -6.39000000000000        -1.030116442599690E-018
  -6.20000000000000        -1.038050743738812E-018
  -6.01000000000001        -1.048450938925866E-018
  -5.81999999999999        -1.058603812405222E-018
  -5.63000000000000        -1.066003621447180E-018
  -5.44000000000000        -1.069051317588738E-018
  -5.25000000000000        -1.067489310828472E-018
  -5.06000000000000        -1.062446835483906E-018
  -4.87000000000000        -1.056083227258763E-018
  -4.67999999999999        -1.050933024110456E-018
  -4.48999999999999        -1.049143582392300E-018
  -4.30000000000000        -1.051827208502900E-018
  -4.11000000000000        -1.058716266961405E-018
  -3.92000000000000        -1.068221344864453E-018
  -3.73000000000000        -1.077875457480702E-018
  -3.53999999999999        -1.085035669400459E-018
  -3.34999999999999        -1.087639824517027E-018
  -3.16000000000000        -1.084801452912018E-018
  -2.97000000000000        -1.077073576528572E-018
  -2.78000000000000        -1.066307121449506E-018
  -2.59000000000000        -1.055144660404351E-018
  -2.40000000000001        -1.046293469741304E-018
  -2.20999999999999        -1.041784664899365E-018
  -2.02000000000000        -1.042429343989313E-018
  -1.83000000000000        -1.047626595947519E-018
  -1.64000000000000        -1.055577556768242E-018
  -1.45000000000000        -1.063842562219603E-018
  -1.26000000000001        -1.070078072536770E-018
  -1.06999999999999        -1.072736226422832E-018
 -0.879999999999995        -1.071519928776517E-018
 -0.689999999999998        -1.067458609834210E-018
 -0.500000000000000        -1.062583236075105E-018
 -0.310000000000002        -1.059299613019233E-018
 -0.120000000000005        -1.059649392481806E-018
  7.000000000000739E-002   -1.064680571285997E-018
  0.260000000000005        -1.074114615352178E-018
  0.450000000000003        -1.086407728245450E-018
  0.640000000000001        -1.099186724276559E-018
  0.829999999999998        -1.109929580500359E-018
   1.02000000000000        -1.116688934055187E-018
   1.21000000000001        -1.118644594323378E-018
   1.40000000000001        -1.116322020843076E-018
   1.59000000000000        -1.111412536985430E-018
   1.78000000000000        -1.106249012816675E-018
   1.97000000000000        -1.103093413047724E-018
   2.16000000000000        -1.103449199312995E-018
   2.34999999999999        -1.107604557570592E-018
   2.54000000000001        -1.114543599598815E-018
   2.73000000000000        -1.122252590382769E-018
   2.92000000000000        -1.128329717295895E-018
   3.11000000000000        -1.130715670985156E-018
   3.30000000000000        -1.128326175388936E-018
   3.48999999999999        -1.121397270050810E-018
   3.68000000000001        -1.111440064711928E-018
   3.87000000000000        -1.100818100813798E-018
   4.06000000000000        -1.092073078120673E-018
   4.25000000000000        -1.087199762013939E-018
   4.44000000000000        -1.087085317878169E-018
   4.63000000000000        -1.091277991490962E-018
   4.82000000000001        -1.098151016957801E-018
   5.01000000000001        -1.105410071451603E-018
   5.20000000000000        -1.110791477891396E-018
   5.39000000000000        -1.112743471950452E-018
   5.58000000000000        -1.110889787358141E-018
   5.77000000000000        -1.106140329869389E-018
   5.96000000000001        -1.100417806300581E-018
   6.15000000000001        -1.096081628735109E-018
   6.34000000000000        -1.095218748883035E-018
   6.53000000000000        -1.099009465567490E-018