  -105.000000000000        -8.965622865249647E-019
  -104.810000000000        -2.079118388558820E-019
  -104.620000000000         5.180722710853557E-019
  -104.430000000000         6.197530903670522E-019
  -104.240000000000         3.905797725125288E-020
  -104.050000000000        -6.298448212244227E-019
  -103.860000000000        -7.133652306152641E-019
  -103.670000000000        -1.050432980904798E-019
  -103.480000000000         6.310627889322567E-019
  -103.290000000000         7.989548870252197E-019
  -103.100000000000         2.370722805969083E-019
  -102.910000000000        -5.248853060454611E-019
  -102.720000000000        -7.693810987450182E-019
  -102.530000000000        -2.737106730263278E-019
  -102.340000000000         4.799645436726140E-019
  -102.150000000000         7.666302340901140E-019
  -101.960000000000         3.108204552123266E-019
  -101.770000000000        -4.508396566463492E-019
  -101.580000000000        -7.871933204028473E-019
  -101.390000000000        -3.719622287836215E-019
  -101.200000000000         4.032685373371925E-019
  -101.010000000000         8.025690083421090E-019
  -100.820000000000         4.488983486122335E-019
  -100.630000000000        -3.157089130144040E-019
  -100.440000000000        -7.572023544117989E-019
  -100.250000000000        -4.509312166912818E-019
  -100.060000000000         3.122408262334708E-019
  -99.8700000000000         8.027728897792887E-019
  -99.6800000000000         5.488905524150223E-019
  -99.4900000000000        -2.116808935946769E-019
  -99.3000000000000        -7.570266250351393E-019
  -99.1100000000000        -5.693712541964844E-019
  -98.9200000000000         1.709280647685638E-019
  -98.7300000000000         7.574274616775294E-019
  -98.5400000000000         6.307969696513559E-019
  -98.3500000000000        -8.907529101804999E-020
  -98.1600000000000        -7.183349610225422E-019
  -97.9700000000000        -6.610857879426696E-019
  -97.7800000000000         2.344291407980872E-020
  -97.5900000000000         6.793466437123271E-019
  -97.4000000000000         6.822775553021132E-019
  -97.2100000000000         3.674786743730354E-020
  -97.0200000000000        -6.289170432080703E-019
  -96.8300000000000        -6.647708077360728E-019
  -96.6400000000000        -2.254145618645503E-020
  -96.4500000000000         6.951793954834492E-019
  -96.2600000000000         8.068690122487387E-019
  -96.0700000000000         2.003085269906608E-019
  -95.8800000000000        -5.607303286741050E-019
  -95.6900000000000        -7.734349950091343E-019
  -95.5000000000000        -2.639390505542604E-019
  -95.3100000000000         4.520321798747301E-019
  -95.1200000000000         6.684257805140201E-019
  -94.9300000000000         1.686815015577166E-019
  -94.7400000000000        -5.649340516337175E-019
  -94.5500000000000        -8.125070553254871E-019
  -94.3600000000000        -3.076778372615046E-019
  -94.1700000000000         5.014749479555919E-019
  -93.9800000000000         8.729364784177996E-019
  -93.7900000000000         4.737412185236273E-019
  -93.6000000000000        -3.048992333248226E-019
  -93.4100000000000        -7.217024497455327E-019
  -93.2200000000000        -3.916116609094584E-019
  -93.0300000000000         3.497459850483237E-019
  -92.8400000000000         7.700346051581238E-019
  -92.6500000000000         4.424124507588507E-019
  -92.4600000000000        -3.438576262240789E-019
  -92.2700000000000        -8.562147758074055E-019
  -92.0800000000000        -6.158248921351562E-019
  -91.8900000000000         1.459013289210335E-019
  -91.7000000000000         7.078784256247068E-019
  -91.5100000000000         5.468155240543466E-019
  -91.3200000000000        -1.652455527712909E-019
  -91.1300000000000        -7.279651335666829E-019
  -90.9400000000000        -5.836527451149622E-019
  -90.7500000000000         1.484754230232071E-019
  -90.5600000000000         7.839194151309329E-019
  -90.3700000000000         7.240315211827764E-019
  -90.1800000000000         2.602299667984218E-020
  -89.9900000000000        -6.520625497094946E-019
  -89.8000000000000        -6.787134226786313E-019
  -89.6100000000000        -4.885663496918034E-020
  -89.4200000000000         6.162589984490902E-019
  -89.2300000000000         6.668443616004808E-019
  -89.0400000000000         4.727242080713083E-020
  -88.8500000000000        -6.507995012472174E-019
  -88.6600000000000        -7.549940775766346E-019
  -88.4700000000000        -1.573682778833719E-019
  -88.2800000000000         5.788908673401576E-019
  -88.0900000000000         7.551032796097111E-019
  -87.9000000000000         2.042990202092440E-019
  -87.7100000000000        -5.480924578418471E-019
  -87.5200000000000        -7.841577484337573E-019
  -87.3300000000000        -2.767389529564633E-019
  -87.1400000000000         4.954512740268524E-019
  -86.9500000000000         8.049933446775128E-019
  -86.7600000000000         3.687573317391992E-019
  -86.5700000000000        -3.843263573396948E-019
  -86.3800000000000        -7.264390179581266E-019
  -86.1900000000000        -3.299035275723614E-019
  -86.0000000000000         4.175517403010654E-019
  -85.8100000000000         7.839144668417487E-019
  -85.6200000000000         3.953814658371372E-019
  -85.4300000000000        -4.018091111776981E-019
  -85.2400000000000        -8.663093996488271E-019
  -85.0500000000000        -5.643783848087523E-019
  -84.8600000000000         2.184812985107719E-019
  -84.6700000000000         7.492813115289282E-019
  -84.4800000000000         5.443151039119005E-019
  -84.2900000000000        -1.734727093691924E-019
  -84.1000000000000        -6.928978023285167E-019
  -83.9100000000000        -4.989509360950402E-019
  -83.7200000000000         2.319107327994437E-019
  -83.5300000000000         7.988684665401570E-019
  -83.3400000000000         6.464316855351423E-019
  -83.1500000000000        -1.023314657411250E-019
  -82.9600000000000        -7.584150722765835E-019
  -82.7700000000000        -7.198023196330102E-019
  -82.5800000000000        -4.290936815954648E-020
  -82.3900000000000         6.134916438313977E-019
  -82.2000000000000         6.190772731583605E-019
  -82.0100000000000        -2.518665533276408E-020
  -81.8200000000000        -6.879820721624101E-019
  -81.6300000000000        -7.109521271387060E-019
  -81.4400000000000        -3.882781135565566E-020
  -81.2500000000000         7.238107535655418E-019
  -81.0600000000000         8.832987714411799E-019
  -80.8700000000000         3.120607680816578E-019
  -80.6800000000000        -4.355808856625679E-019
  -80.4900000000000        -6.562605071081510E-019
  -80.3000000000000        -1.688078945728000E-019
  -80.1100000000000         5.175401786496533E-019
  -79.9200000000000         6.967561260648256E-019
  -79.7300000000000         1.478710122100542E-019
  -79.5400000000000        -6.466765757289715E-019
  -79.3500000000000        -9.550860158473053E-019
  -79.1600000000000        -4.907444673007592E-019
  -78.9700000000000         3.145715886130923E-019
  -78.7800000000000         7.200479221838304E-019
  -78.5900000000000         3.775014884667296E-019
  -78.4000000000000        -3.442733721316902E-019
  -78.2100000000000        -7.203440868636831E-019
  -78.0200000000000        -3.678033523408512E-019
  -77.8300000000000         3.873384287401046E-019
  -77.6400000000000         8.242932186092259E-019
  -77.4500000000000         5.211136522053228E-019
  -77.2600000000000        -2.366183760264742E-019
  -77.0700000000000        -7.251308558792891E-019
  -76.8800000000000        -4.743387248036199E-019
  -76.6900000000000         2.797882785985632E-019
  -76.5000000000000         8.170125847031486E-019
  -76.3100000000000         6.182690261115453E-019
  -76.1200000000000        -1.393941000721710E-019
  -75.9300000000000        -7.503376457522031E-019
  -75.7400000000000        -6.506547055933445E-019
  -75.5500000000000         4.693138536310565E-020
  -75.3600000000000         6.632032622450584E-019
  -75.1700000000000         6.030775282094100E-019
  -74.9800000000000        -7.428777689826040E-020
  -74.7900000000000        -7.114754907259138E-019
  -74.6000000000000        -6.822474608897388E-019
  -74.4100000000000         6.963378920046078E-021
  -74.2200000000000         7.182900412155681E-019
  -74.0300000000000         7.859839048636009E-019
  -73.8400000000000         1.481416611170445E-019
  -73.6500000000000        -5.946199874127670E-019
  -73.4600000000000        -7.500808592296153E-019
  -73.2700000000000        -1.916882842168462E-019
  -73.0800000000000         5.244419722506755E-019
  -72.8900000000000         6.940069290845437E-019
  -72.7000000000000         1.391161192083003E-019
  -72.5100000000000        -6.211382577085312E-019
  -72.3200000000000        -8.652612732143296E-019
  -72.1300000000000        -3.558591310500477E-019
  -71.9400000000000         4.360203326528674E-019
  -71.7500000000000         7.810673076322491E-019
  -71.5600000000000         3.859041070112433E-019
  -71.3700000000000        -3.318207539670795E-019
  -71.1800000000000        -6.499424817776859E-019
  -70.9900000000000        -2.397203919023466E-019
  -70.8000000000000         5.142085001683881E-019
  -70.6100000000000         8.788208100283760E-019
  -70.4200000000000         4.741194469995946E-019
  -70.2300000000000        -3.586359098673869E-019
  -70.0400000000000        -8.739572753969266E-019
  -69.8500000000000        -6.241008854181105E-019
  -69.6600000000000         1.216587729262607E-019
  -69.4700000000000         6.398557382875155E-019
  -69.2800000000000         4.462471772470324E-019
  -69.0900000000000        -2.437236974312001E-019
  -68.9000000000000        -7.274926934901899E-019
  -68.7100000000000        -4.959433179089373E-019
  -68.5200000000000         2.705569466647380E-019
  -68.3300000000000         8.661664706161332E-019
  -68.1400000000000         7.289357552700355E-019
  -67.9500000000000        -2.194513865113683E-020
  -67.7600000000000        -6.946071589480043E-019
  -67.5700000000000        -6.777065919670867E-019
  -67.3800000000000        -1.685386413597905E-020
  -67.1900000000000         6.347088260168319E-019
  -67.0000000000000         6.424057232664208E-019
  -66.8100000000000        -5.094605753833035E-021
  -66.6200000000000        -6.884166306791457E-019
  -66.4300000000000        -7.517168099047301E-019
  -66.2400000000000        -1.305415324836641E-019
  -66.0500000000000         5.859415219379476E-019
  -65.8600000000000         7.181014990203119E-019
  -65.6700000000000         1.464006245198565E-019
  -65.4800000000000        -5.735047523981505E-019
  -65.2900000000000        -7.420366693258904E-019
  -65.1000000000000        -1.852710242984651E-019
  -64.9100000000000         5.773106372489013E-019
  -64.7200000000000         8.269909005052035E-019
  -64.5300000000000         3.304891912112637E-019
  -64.3400000000000        -4.377482327052548E-019
  -64.1500000000000        -7.482310670347465E-019
  -63.9600000000000        -3.127461347802478E-019
  -63.7700000000000         4.409879139651564E-019
  -63.5800000000000         7.794026900184988E-019
  -63.3900000000000         3.655424677970520E-019
  -63.2000000000000        -4.180882865801028E-019
  -63.0100000000000        -8.342609191997759E-019
  -62.8200000000000        -4.943189631656584E-019
  -62.6300000000000         2.711597064356879E-019
  -62.4400000000000         7.281461097396254E-019
  -62.2500000000000         4.410043600580310E-019
  -62.0600000000000        -3.093564080117713E-019
  -61.8700000000000        -7.918569325885595E-019
  -61.6800000000000        -5.234329663552351E-019
  -61.4900000000000         2.671947491201812E-019
  -61.3000000000000         8.528157676784276E-019
  -61.1100000000000         6.948046327585310E-019
  -60.9200000000000        -4.960237726637093E-020
  -60.7300000000000        -6.808526704548566E-019
  -60.5400000000000        -6.235537429863957E-019
  -60.3500000000000         2.971945698161166E-020
  -60.1600000000000         6.155289589316625E-019
  -59.9700000000000         5.431528691682680E-019
  -59.7800000000000        -1.332411686469245E-019
  -59.5900000000000        -7.629921168248685E-019
  -59.4000000000000        -7.217319980178955E-019
  -59.2100000000000        -1.255855114044302E-020
  -59.0200000000000         7.292492549774911E-019
  -58.8300000000000         8.337546993965369E-019
  -58.6400000000000         2.280354906190440E-019
  -58.4500000000000        -4.993363037160176E-019
  -58.2600000000000        -6.622125560870518E-019
  -58.0700000000000        -1.303159685123576E-019
  -57.8800000000000         5.521223250677876E-019
  -57.6900000000000         6.942816876171069E-019
  -57.5000000000000         1.262259928483220E-019
  -57.3100000000000        -6.331518798129190E-019
  -57.1200000000000        -8.685636518451935E-019
  -56.9300000000000        -3.516249418358976E-019
  -56.7400000000000         4.375208651225304E-019
  -56.5500000000000         7.641695285890349E-019
  -56.3600000000000         3.376191439163750E-019
  -56.1700000000000        -4.125911977027733E-019
  -55.9800000000000        -7.477024695324928E-019
  -55.7900000000000        -3.260400864186654E-019
  -55.6000000000000         4.693530109849722E-019
  -55.4100000000000         8.937079364433106E-019
  -55.2200000000000         5.480134646554518E-019
  -55.0300000000000        -2.424112753899174E-019
  -54.8400000000000        -7.384071359105515E-019
  -54.6500000000000        -4.904595340189973E-019
  -54.4600000000000         2.360495478837740E-019
  -54.2700000000000         7.194073842287330E-019
  -54.0800000000000         4.752773421088871E-019
  -53.8900000000000        -2.787664045250480E-019
  -53.7000000000000        -8.311623862842876E-019
  -53.5100000000000        -6.567126384815568E-019
  -53.3200000000000         8.056330702950073E-020
  -53.1300000000000         6.819924396662459E-019
  -52.9400000000000         5.796152328359693E-019
  -52.7500000000000        -1.219632052552852E-019
  -52.5600000000000        -7.450643058977592E-019
  -52.3700000000000        -6.853064310452341E-019
  -52.1800000000000         1.271727976255839E-020
  -51.9900000000000         6.997348387189103E-019
  -51.8000000000000         7.419226715919376E-019
  -51.6100000000000         1.236516014889554E-019
  -51.4200000000000        -5.420471940827529E-019
  -51.2300000000000        -6.044306649621939E-019
  -51.0400000000000        -2.090434578801776E-021
  -50.8500000000000         6.752063451944326E-019
  -50.6600000000000         7.515516272123763E-019
  -50.4700000000000         1.170064251078865E-019
  -50.2800000000000        -6.585287105168608E-019
  -50.0900000000000        -8.607681591356900E-019
  -49.9000000000000        -3.064587921894818E-019
  -49.7100000000000         4.838427421039080E-019
  -49.5200000000000         7.795940763377946E-019
  -49.3300000000000         3.309625359423793E-019
  -49.1400000000000        -4.004748614159277E-019
  -48.9500000000000        -6.898585321030470E-019
  -48.7600000000000        -2.468963474739801E-019
  -48.5700000000000         5.044711800108326E-019
  -48.3800000000000         8.318600955303841E-019
  -48.1900000000000         3.968911468623835E-019
  -48.0000000000000        -4.172010981992010E-019
  -47.8100000000000        -8.656705934043168E-019
  -47.6200000000000        -5.475432523418449E-019
  -47.4300000000000         2.152960007539537E-019
  -47.2400000000000         6.868066839542526E-019
  -47.0500000000000         4.194756226320729E-019
  -46.8600000000000        -3.197777928856826E-019
  -46.6700000000000        -8.071409004020385E-019
  -46.4800000000000        -5.556729023726487E-019
  -46.2900000000000         2.182984116656053E-019
  -46.1000000000000         8.007007193930102E-019
  -45.9100000000000         6.597052211753387E-019
  -45.7200000000000        -4.897456679152212E-020
  -45.5300000000000        -6.335517831391015E-019
  -45.3400000000000        -5.298341200926155E-019
  -45.1500000000000         1.576025350837422E-019
  -44.9600000000000         7.554729045925453E-019
  -44.7700000000000         6.679846466938179E-019
  -44.5800000000000        -4.937710738930996E-020
  -44.3900000000000        -7.376073509161927E-019
  -44.2000000000000        -7.585020207280007E-019
  -44.0100000000000        -1.009733107079719E-019
  -43.8200000000000         6.080048690596239E-019
  -43.6300000000000         6.989776425542647E-019
  -43.4400000000000         9.550467109788346E-020
  -43.2500000000000        -6.161988282718313E-019
  -43.0600000000000        -7.495520955225606E-019
  -42.8700000000000        -1.738419586937154E-019
  -42.6800000000000         5.625820047546544E-019
  -42.4900000000000         7.582667813031248E-019
  -42.3000000000000         2.300354656108153E-019
  -42.1100000000000        -5.114019013361263E-019
  -41.9200000000000        -7.494762049824456E-019
  -41.7300000000000        -2.481968293577040E-019
  -41.5400000000000         5.190083006056957E-019
  -41.3500000000000         8.184898112454011E-019
  -41.1600000000000         3.555764162403001E-019
  -40.9700000000000        -4.441969244572448E-019
  -40.7800000000000        -8.398554872358070E-019
  -40.5900000000000        -4.783298437101407E-019
  -40.4000000000000         2.742934246789572E-019
  -40.2100000000000         6.877426640959019E-019
  -40.0200000000000         3.685971479318176E-019
  -39.8300000000000        -3.626459228366722E-019
  -39.6400000000000        -7.797182011562157E-019
  -39.4500000000000        -4.498552145308319E-019
  -39.2600000000000         3.457710592821274E-019
  -39.0700000000000         8.745361155040960E-019
  -38.8800000000000         6.481756327903200E-019
  -38.6900000000000        -1.119892843182333E-019
  -38.5000000000000        -6.842664018005049E-019
  -38.3100000000000        -5.318634417050410E-019
  -38.1200000000000         1.874200333454677E-019
  -37.9300000000000         7.727935681366070E-019
  -37.7400000000000         6.498563810344016E-019
  -37.5500000000000        -8.050224725991331E-020
  -37.3600000000000        -7.378312382647221E-019
  -37.1700000000000        -7.105470447683161E-019
  -36.9800000000000        -3.749778640146246E-020
  -36.7900000000000         6.313391166676370E-019
  -36.6000000000000         6.559265120083504E-019
  -36.4100000000000         1.635636494534174E-020
  -36.2200000000000        -6.693080493819760E-019
  -36.0300000000000        -7.365292329438026E-019
  -35.8400000000000        -1.104909121869353E-019
  -35.6500000000000         6.210886022463690E-019
  -35.4600000000000         7.679563714130786E-019
  -35.2700000000000         1.943905845198000E-019
  -35.0800000000000        -5.536093124525031E-019
  -34.8900000000000        -7.701953746282566E-019
  -34.7000000000000        -2.612340885255364E-019
  -34.5100000000000         4.744533555424212E-019
  -34.3200000000000         7.257343897294822E-019
  -34.1300000000000         2.516016902947648E-019
  -33.9400000000000        -4.880151026004879E-019
  -33.7500000000000        -7.745432532774707E-019
  -33.5600000000000        -3.220519896796806E-019
  -33.3700000000000         4.457048430844528E-019
  -33.1800000000000         7.984679859246498E-019
  -32.9900000000000         3.976845097695812E-019
  -32.8000000000000        -3.774323901351547E-019
  -32.6100000000000        -7.887575311963384E-019
  -32.4200000000000        -4.427402719902560E-019
  -32.2300000000000         3.325004576623313E-019
  -32.0400000000000         7.984188908445113E-019
  -31.8500000000000         5.100421560228580E-019
  -31.6600000000000        -2.597352500686713E-019
  -31.4700000000000        -7.809662834276365E-019
  -31.2800000000000        -5.630760036006052E-019
  -31.0900000000000         1.777033705715085E-019
  -30.9000000000000         7.253508660273443E-019
  -30.7100000000000         5.485693914755088E-019
  -30.5200000000000        -1.893870070426577E-019
  -30.3300000000000        -7.829345827376727E-019
  -30.1400000000000        -6.551750065144526E-019
  -29.9500000000000         9.174255912349675E-020
  -29.7600000000000         7.719566353668957E-019
  -29.5700000000000         7.654984109992596E-019
  -29.3800000000000         1.030744037600394E-019
  -29.1900000000000        -5.690726873007501E-019
  -29.0000000000000        -6.083045108768866E-019
  -28.8100000000000         1.193545461510954E-020
  -28.6200000000000         6.797196029609125E-019
  -28.4300000000000         7.329718357436780E-019
  -28.2400000000000         9.553335464481495E-020
  -28.0500000000000        -6.479995728571040E-019
  -27.8600000000000        -8.098342203908341E-019
  -27.6700000000000        -2.546788770307734E-019
  -27.4800000000000         4.730459858076096E-019
  -27.2900000000000         6.708473099618005E-019
  -27.1000000000000         1.500150783384486E-019
  -26.9100000000000        -5.837879522724424E-019
  -26.7200000000000        -8.143133351727301E-019
  -26.5300000000000        -3.012302629039144E-019
  -26.3400000000000         4.875626499964689E-019
  -26.1500000000000         8.208144366615115E-019
  -25.9600000000000         4.004521444990469E-019
  -25.7700000000000        -3.560784100003406E-019
  -25.5800000000000        -7.164507720211023E-019
  -25.3900000000000        -3.338924963121654E-019
  -25.2000000000000         4.209190571968836E-019
  -25.0100000000000         8.137742481229112E-019
  -24.8200000000000         4.501995025825928E-019
  -24.6300000000000        -3.434734097718648E-019
  -24.4400000000000        -8.270911868889815E-019
  -24.2500000000000        -5.500062347882212E-019
  -24.0600000000000         2.205741146800571E-019
  -23.8700000000000         7.545977523981960E-019
  -23.6800000000000         5.536416124339612E-019
  -23.4900000000000        -1.768148001142595E-019
  -23.3000000000000        -7.263788125600576E-019
  -23.1100000000000        -5.598524758746223E-019
  -22.9200000000000         1.704480010784335E-019
  -22.7300000000000         7.697918803980472E-019
  -22.5400000000000         6.649440195092236E-019
  -22.3500000000000        -4.850492640356005E-020
  -22.1600000000000        -6.984891298044384E-019
  -21.9700000000000        -6.787117438414142E-019
  -21.7800000000000        -2.640758552699661E-020
  -21.5900000000000         6.153634801531923E-019
  -21.4000000000000         6.143626655878214E-019
  -21.2100000000000        -4.378002987566831E-020
  -21.0200000000000        -7.385253774265877E-019
  -20.8300000000000        -8.052132572379095E-019
  -20.6400000000000        -1.696511115836511E-019
  -20.4500000000000         5.803886823497483E-019
  -20.2600000000000         7.548857899889960E-019
  -20.0700000000000         2.174590803126948E-019
  -19.8800000000000        -4.881727234078970E-019
  -19.6900000000000        -6.611006130027985E-019
  -19.5000000000000        -1.165908524418524E-019
  -19.3100000000000         6.333501043029164E-019
  -19.1200000000000         8.668101052646100E-019
  -18.9300000000000         3.428193685835220E-019
  -18.7400000000000        -4.645242133512840E-019
  -18.5500000000000        -8.137812841760477E-019
  -18.3600000000000        -3.988822264932042E-019
  -18.1700000000000         3.629521572077740E-019
  -17.9800000000000         7.312411521448875E-019
  -17.7900000000000         3.483995028160065E-019
  -17.6000000000000        -4.202495477707989E-019
  -17.4100000000000        -8.361546853552815E-019
  -17.2200000000000        -4.932429662616995E-019
  -17.0300000000000         2.942658432591703E-019
  -16.8400000000000         7.920909676376483E-019
  -16.6500000000000         5.459724446259956E-019
  -16.4600000000000        -1.878225790982110E-019
  -16.2700000000000        -6.911488783862783E-019
  -16.0800000000000        -4.725515128260174E-019
  -15.8900000000000         2.616459158096769E-019
  -15.7000000000000         8.031928162975523E-019
  -15.5100000000000         6.185209522718158E-019
  -15.3200000000000        -1.397453110060004E-019
  -15.1300000000000        -7.759987340953822E-019
  -14.9400000000000        -7.131254514139846E-019
  -14.7500000000000        -3.947403902022268E-020
  -14.5600000000000         5.809259401987714E-019
  -14.3700000000000         5.472904024324109E-019
  -14.1800000000000        -1.013879576455117E-019
  -13.9900000000000        -7.232667297510096E-019
  -13.8000000000000        -6.896393910352365E-019
  -13.6100000000000         8.186126858120250E-021
  -13.4200000000000         7.430585845618372E-019
  -13.2300000000000         8.451540063766985E-019
  -13.0400000000000         2.382406451472916E-019
  -12.8500000000000        -4.891164484972088E-019
  -12.6600000000000        -6.451925614238892E-019
  -12.4700000000000        -9.362272808500285E-020
  -12.2800000000000         6.182459750935026E-019
  -12.0900000000000         7.830697864789757E-019
  -11.9000000000000         2.107817593047555E-019
  -11.7100000000000        -5.862697754648510E-019
  -11.5200000000000        -8.781589647326176E-019
  -11.3300000000000        -4.103439033438315E-019
  -11.1400000000000         3.566387772922479E-019
  -10.9500000000000         6.886759388467159E-019
  -10.7600000000000         2.781554388333860E-019
  -10.5700000000000        -4.649884607548385E-019
  -10.3800000000000        -8.074888610151071E-019
  -10.1900000000000        -3.957903654522905E-019
  -10.0000000000000         4.027266814693869E-019
  -9.81000000000000         8.469511052184666E-019
  -9.62000000000000         5.271007754412122E-019
  -9.42999999999999        -2.460590284988580E-019
  -9.23999999999999        -7.394743547578074E-019
  -9.05000000000000        -4.969627318219106E-019
  -8.86000000000000         2.291819962277770E-019
  -8.67000000000000         7.244308512125202E-019
  -8.48000000000000         4.988792763421368E-019
  -8.28999999999999        -2.417378299079646E-019
  -8.09999999999999        -7.911772636026467E-019
  -7.91000000000000        -6.183589522520921E-019
  -7.72000000000000         1.226139080414436E-019
  -7.53000000000000         7.372192003530513E-019
  -7.34000000000000         6.523662064717808E-019
  -7.15000000000001        -3.741648227904366E-020
  -6.95999999999999        -6.608793067468720E-019
  -6.77000000000000        -6.110051134224592E-019
  -6.58000000000000         7.475166654189036E-020
  -6.39000000000000         7.481053323283136E-019
  -6.20000000000000         7.667696999793639E-019
  -6.01000000000001         1.070224479677954E-019
  -5.81999999999999        -6.134660541776201E-019
  -5.63000000000000        -7.250164777706278E-019
  -5.44000000000000        -1.438725470931980E-019
  -5.25000000000000         5.508924231495907E-019
  -5.06000000000000         6.737741819738946E-019
  -4.87000000000000         9.060582098129005E-020
  -4.67999999999999        -6.499580380989740E-019
  -4.48999999999999        -8.374612462934129E-019
  -4.30000000000000        -2.773698591311869E-019
  -4.11000000000000         5.213274892227701E-019
  -3.92000000000000         8.286254552841478E-019
  -3.73000000000000         3.853998665175035E-019
  -3.53999999999999        -3.557640919379886E-019
  -3.34999999999999        -6.685272149427403E-019
  -3.16000000000000        -2.490986439759379E-019
  -2.97000000000000         4.936914439604746E-019
  -2.78000000000000         8.304023972981157E-019
  -2.59000000000000         4.109543104812864E-019
  -2.40000000000001        -3.960245549462091E-019
  -2.20999999999999        -8.504860477198417E-019
  -2.02000000000000        -5.446167378501855E-019
  -1.83000000000000         2.097639692762448E-019
  -1.64000000000000         6.805356850870855E-019
  -1.45000000000000         4.149074361795647E-019
  -1.26000000000001        -3.285682870788591E-019
  -1.06999999999999        -8.272245032453539E-019
 -0.879999999999995        -5.852036077381000E-019
 -0.689999999999998         1.904417959608513E-019
 -0.500000000000000         7.837026183008126E-019
 -0.310000000000002         6.499635092493575E-019
 -0.120000000000005        -6.685027503821007E-020
  7.000000000000739E-002   -6.743912545303402E-019
  0.260000000000005        -5.940745687791966E-019
  0.450000000000003         8.803799560284795E-020
  0.640000000000001         7.063165989420893E-019
  0.829999999999998         6.538301527282168E-019
   1.02000000000000        -3.524781658323696E-020
   1.21000000000001        -7.148776023695086E-019
   1.40000000000001        -7.413929638014098E-019
   1.59000000000000        -8.709258090793978E-020
   1.78000000000000         6.331438962323407E-019
   1.97000000000000         7.473921133265646E-019
   2.16000000000000         1.644826819312769E-019
   2.34999999999999        -5.437884184023201E-019
   2.54000000000001        -6.920507903271391E-019
   2.73000000000000        -1.369234621175683E-019
   2.92000000000000         5.866807315898981E-019
   3.11000000000000         7.788126095348290E-019
   3.30000000000000         2.468488972344454E-019
   3.48999999999999        -5.076240597341802E-019
   3.68000000000001        -7.679957731316990E-019
   3.87000000000000        -2.892256779941830E-019
   4.06000000000000         4.660227801699193E-019
   4.25000000000000         7.678916720430064E-019
   4.44000000000000         3.161894665901493E-019
   4.63000000000000        -4.708485764802646E-019
   4.82000000000001        -8.521287705953534E-019
   5.01000000000001        -4.681860688594728E-019
   5.20000000000000         3.169728712101749E-019
   5.39000000000000         7.638174223283342E-019
   5.58000000000000         4.628508774927251E-019
   5.77000000000000        -2.766726957129532E-019
   5.96000000000001        -7.254222316974702E-019
   6.15000000000001        -4.336961239363356E-019
   6.34000000000000         3.354959503105189E-019
   6.53000000000000         8.531129131704992E-019