  -105.000000000000        -3.062113896891925E-020
  -104.810000000000        -8.443572213431600E-020
  -104.620000000000        -1.184639436404547E-019
  -104.430000000000        -1.263069178294276E-019
  -104.240000000000        -1.088780111457924E-019
  -104.050000000000        -7.406649588387136E-020
  -103.860000000000        -3.439414231751832E-020
  -103.670000000000        -3.346281139548015E-021
  -103.480000000000         8.555780380948054E-021
  -103.290000000000        -3.200309331010233E-021
  -103.100000000000        -3.583804727252928E-020
  -102.910000000000        -8.014372219642010E-020
  -102.720000000000        -1.231955478197637E-019
  -102.530000000000        -1.521725465581808E-019
  -102.340000000000        -1.581352375044802E-019
  -102.150000000000        -1.386805839163581E-019
  -101.960000000000        -9.869986735981268E-020
  -101.770000000000        -4.901642302789982E-020
  -101.580000000000        -3.293973605302418E-021
  -101.390000000000         2.589062217089432E-020
  -101.200000000000         3.067057560450230E-020
  -101.010000000000         1.015410154357579E-020
  -100.820000000000        -2.932893857010260E-020
  -100.630000000000        -7.607034132977691E-020
  -100.440000000000        -1.163794913285807E-019
  -100.250000000000        -1.385443391580327E-019
  -100.060000000000        -1.362089518661366E-019
  -99.8700000000000        -1.101918117236475E-019
  -99.6800000000000        -6.822245219208935E-020
  -99.4900000000000        -2.267596503160337E-020
  -99.3000000000000         1.303735837919086E-020
  -99.1100000000000         2.838124175075418E-020
  -98.9200000000000         1.876742366358890E-020
  -98.7300000000000        -1.309962050709009E-020
  -98.5400000000000        -5.800005403749561E-020
  -98.3500000000000        -1.028731066505864E-019
  -98.1600000000000        -1.346100883490079E-019
  -97.9700000000000        -1.438615617092201E-019
  -97.7800000000000        -1.277513109330597E-019
  -97.5900000000000        -9.070963824319744E-020
  -97.4000000000000        -4.318622050317015E-020
  -97.2100000000000         1.382154590245861E-021
  -97.0200000000000         3.046897397202945E-020
  -96.8300000000000         3.609045209053235E-020
  -96.6400000000000         1.711887965082400E-020
  -96.4500000000000        -2.039631120704072E-020
  -96.2600000000000        -6.499516506587973E-020
  -96.0700000000000        -1.031491410077336E-019
  -95.8800000000000        -1.232059404041201E-019
  -95.6900000000000        -1.187882284627382E-019
  -95.5000000000000        -9.065676410292479E-020
  -95.3100000000000        -4.649686610284639E-020
  -95.1200000000000         1.308158469346318E-021
  -94.9300000000000         3.926918452014745E-020
  -94.7400000000000         5.670718660928977E-020
  -94.5500000000000         4.885801534426593E-020
  -94.3600000000000         1.826509262646162E-020
  -94.1700000000000        -2.594683560968402E-020
  -93.9800000000000        -7.071052671959353E-020
  -93.7900000000000        -1.028052193830389E-019
  -93.6000000000000        -1.126963734139099E-019
  -93.4100000000000        -9.730926123833648E-020
  -93.2200000000000        -6.092877362563111E-020
  -93.0300000000000        -1.396377220192419E-020
  -92.8400000000000         3.006416855167863E-020
  -92.6500000000000         5.843339377774101E-020
  -92.4600000000000         6.290352706132452E-020
  -92.2700000000000         4.210275785026375E-020
  -92.0800000000000         1.933430646380786E-021
  -91.8900000000000        -4.612044228750371E-020
  -91.7000000000000        -8.829607635804875E-020
  -91.5100000000000        -1.125125632741015E-019
  -91.3200000000000        -1.118443646910912E-019
  -91.1300000000000        -8.650104883396728E-020
  -90.9400000000000        -4.373851945743046E-020
  -90.7500000000000         4.271728168999239E-021
  -90.5600000000000         4.399394578554311E-020
  -90.3700000000000         6.446525345078509E-020
  -90.1800000000000         6.047297743423592E-020
  -89.9900000000000         3.404991289416015E-020
  -89.8000000000000        -6.144477094755948E-021
  -89.6100000000000        -4.737533931180549E-020
  -89.4200000000000        -7.657496519036782E-020
  -89.2300000000000        -8.418992510245902E-020
  -89.0400000000000        -6.701416758546066E-020
  -88.8500000000000        -2.918137413052907E-020
  -88.6600000000000         1.897705271480952E-020
  -88.4700000000000         6.388151970485170E-020
  -88.2800000000000         9.260762822013059E-020
  -88.0900000000000         9.661165520712645E-020
  -87.9000000000000         7.419902811554520E-020
  -87.7100000000000         3.102360156574232E-020
  -87.5200000000000        -2.152261249093475E-020
  -87.3300000000000        -6.956028336467299E-020
  -87.1400000000000        -1.006738417566176E-019
  -86.9500000000000        -1.074231195496582E-019
  -86.7600000000000        -8.940460314159354E-020
  -86.5700000000000        -5.327117493953552E-020
  -86.3800000000000        -1.071026242019005E-020
  -86.1900000000000         2.502707811519855E-020
  -86.0000000000000         4.303169739610213E-020
  -85.8100000000000         3.793578609697361E-020
  -85.6200000000000         1.147355671224275E-020
  -85.4300000000000        -2.804836039224193E-020
  -85.2400000000000        -6.821099326917786E-020
  -85.0500000000000        -9.615207294308679E-020
  -84.8600000000000        -1.023734020945494E-019
  -84.6700000000000        -8.357832996976295E-020
  -84.4800000000000        -4.371335699762072E-020
  -84.2900000000000         7.092733707057355E-021
  -84.1000000000000         5.539100439342249E-020
  -83.9100000000000         8.825169696147316E-020
  -83.7200000000000         9.696982780642974E-020
  -83.5300000000000         7.956068428184637E-020
  -83.3400000000000         4.131786685423352E-020
  -83.1500000000000        -6.730299996195878E-021
  -82.9600000000000        -5.101768930122216E-020
  -82.7700000000000        -7.936086946092800E-020
  -82.5800000000000        -8.446429725137061E-020
  -82.3900000000000        -6.599440386140821E-020
  -82.2000000000000        -3.062392774428020E-020
  -82.0100000000000         9.963368131746971E-021
  -81.8200000000000         4.252685459655652E-020
  -81.6300000000000         5.617823632976775E-020
  -81.4400000000000         4.560839965107722E-020
  -81.2500000000000         1.269044721707741E-020
  -81.0600000000000        -3.401195995488730E-020
  -80.8700000000000        -8.169207987896004E-020
  -80.6800000000000        -1.169935765070057E-019
  -80.4900000000000        -1.298763144828490E-019
  -80.3000000000000        -1.165311061890390E-019
  -80.1100000000000        -8.049794766115305E-020
  -79.9200000000000        -3.166449907158426E-020
  -79.7300000000000         1.656477332759241E-020
  -79.5400000000000         5.111033568929250E-020
  -79.3500000000000         6.296029432095083E-020
  -79.1600000000000         4.973226762993878E-020
  -78.9700000000000         1.631262624578519E-020
  -78.7800000000000        -2.661295308809829E-020
  -78.5900000000000        -6.571121600107425E-020
  -78.4000000000000        -8.891793413173627E-020
  -78.2100000000000        -8.897768697305468E-020
  -78.0200000000000        -6.557480258506002E-020
  -77.8300000000000        -2.543479711106926E-020
  -77.6400000000000         1.963294694131997E-020
  -77.4500000000000         5.618255137679037E-020
  -77.2600000000000         7.306910574242559E-020
  -77.0700000000000         6.473457652214886E-020
  -76.8800000000000         3.288711339857897E-020
  -76.6900000000000        -1.392030117812714E-020
  -76.5000000000000        -6.270103912592640E-020
  -76.3100000000000        -9.974836030938064E-020
  -76.1200000000000        -1.145820207419759E-019
  -75.9300000000000        -1.029849506607383E-019
  -75.7400000000000        -6.824607115389666E-020
  -75.5500000000000        -2.024398415948699E-020
  -75.3600000000000         2.736676601649955E-020
  -75.1700000000000         6.105454956295586E-020
  -74.9800000000000         7.126959740979668E-020
  -74.7900000000000         5.515268532741210E-020
  -74.6000000000000         1.731812366951661E-020
  -74.4100000000000        -3.150788139777214E-020
  -74.2200000000000        -7.759475001892355E-020
  -74.0300000000000        -1.081602947960511E-019
  -73.8400000000000        -1.150259742081970E-019
  -73.6500000000000        -9.691969687564824E-020
  -73.4600000000000        -5.976474066652439E-020
  -73.2700000000000        -1.487937104838917E-020
  -73.0800000000000         2.438050322248362E-020
  -72.8900000000000         4.655207842623128E-020
  -72.7000000000000         4.542320464311771E-020
  -72.5100000000000         2.184097279807114E-020
  -72.3200000000000        -1.655170100676688E-020
  -72.1300000000000        -5.757246082704583E-020
  -71.9400000000000        -8.809224130662773E-020
  -71.7500000000000        -9.792009419409046E-020
  -71.5600000000000        -8.284914653140349E-020
  -71.3700000000000        -4.597281808445086E-020
  -71.1800000000000         3.119748647603329E-021
  -70.9900000000000         5.104377253331970E-020
  -70.8000000000000         8.443615376880486E-020
  -70.6100000000000         9.378522102768529E-020
  -70.4200000000000         7.616451215563576E-020
  -70.2300000000000         3.608177880872141E-020
  -70.0400000000000        -1.579828700831005E-020
  -69.8500000000000        -6.568519526243760E-020
  -69.6600000000000        -1.005724150805499E-019
  -69.4700000000000        -1.119012914777789E-019
  -69.2800000000000        -9.792810652979886E-020
  -69.0900000000000        -6.411775578976998E-020
  -68.9000000000000        -2.145701268788894E-020
  -68.7100000000000         1.681753416050960E-020
  -68.5200000000000         3.912111306599839E-020
  -68.3300000000000         3.891259058062783E-020
  -68.1400000000000         1.658676644876332E-020
  -67.9500000000000        -2.068186421078547E-020
  -67.7600000000000        -6.109130293132847E-020
  -67.5700000000000        -9.172382627745958E-020
  -67.3800000000000        -1.023866382065687E-019
  -67.1900000000000        -8.865890426563031E-020
  -67.0000000000000        -5.325693703684750E-020
  -66.8100000000000        -5.319329129876970E-021
  -66.6200000000000         4.218267735645989E-020
  -66.4300000000000         7.616076831806148E-020
  -66.2400000000000         8.717468358536682E-020
  -66.0500000000000         7.215400874062755E-020
  -65.8600000000000         3.528499636703447E-020
  -65.6700000000000        -1.319630666607596E-020
  -65.4800000000000        -5.995416392798062E-020
  -65.2900000000000        -9.238922443284268E-020
  -65.1000000000000        -1.022470016350067E-019
  -64.9100000000000        -8.795322915521765E-020
  -64.7200000000000        -5.500173441359652E-020
  -64.5300000000000        -1.428591717756620E-020
  -64.3400000000000         2.113903571679366E-020
  -64.1500000000000         3.992064080769474E-020
  -63.9600000000000         3.577412351094341E-020
  -63.7700000000000         9.364601595381225E-021
  -63.5800000000000        -3.184649641656705E-020
  -63.3900000000000        -7.574974819132845E-020
  -63.2000000000000        -1.091061607404209E-019
  -63.0100000000000        -1.214099711647285E-019
  -62.8200000000000        -1.079698150854909E-019
  -62.6300000000000        -7.131145188398412E-020
  -62.4400000000000        -2.049469215564427E-020
  -62.2500000000000         3.145773803313723E-020
  -62.0600000000000         7.127623716309851E-020
  -61.8700000000000         8.923168650573498E-020
  -61.6800000000000         8.189859246354736E-020
  -61.4900000000000         5.309197946500713E-020
  -61.3000000000000         1.270280389020487E-020
  -61.1100000000000        -2.623316998925638E-020
  -60.9200000000000        -5.138119384723396E-020
  -60.7300000000000        -5.474542509463280E-020
  -60.5400000000000        -3.503419771826537E-020
  -60.3500000000000         1.940415874316570E-021
  -60.1600000000000         4.494654387176998E-020
  -59.9700000000000         8.060935350077312E-020
  -59.7800000000000         9.732714428391057E-020
  -59.5900000000000         8.868874607330783E-020
  -59.4000000000000         5.539963916347235E-020
  -59.2100000000000         5.155227693913494E-021
  -59.0200000000000        -4.950807474275601E-020
  -58.8300000000000        -9.476891251542100E-020
  -58.6400000000000        -1.194599766792687E-019
  -58.4500000000000        -1.182509624633842E-019
  -58.2600000000000        -9.315213481189049E-020
  -58.0700000000000        -5.290044945768278E-020
  -57.8800000000000        -1.040446814723994E-020
  -57.6900000000000         2.101188193400002E-020
  -57.5000000000000         3.147819884430489E-020
  -57.3100000000000         1.743876767303480E-020
  -57.1200000000000        -1.732174410598939E-020
  -56.9300000000000        -6.278467366657922E-020
  -56.7400000000000        -1.056159899038499E-019
  -56.5500000000000        -1.330520889165594E-019
  -56.3600000000000        -1.366251761936446E-019
  -56.1700000000000        -1.146443812120754E-019
  -55.9800000000000        -7.270837556504724E-020
  -55.7900000000000        -2.209761859980796E-020
  -55.6000000000000         2.348735575215931E-020
  -55.4100000000000         5.189258863285120E-020
  -55.2200000000000         5.602841692482181E-020
  -55.0300000000000         3.591647777629902E-020
  -54.8400000000000        -1.327727771470185E-021
  -54.6500000000000        -4.357264413628010E-020
  -54.4600000000000        -7.720979042854994E-020
  -54.2700000000000        -9.113266731684810E-020
  -54.0800000000000        -8.000426953011001E-020
  -53.8900000000000        -4.586319703205550E-020
  -53.7000000000000         2.405185265580557E-021
  -53.5100000000000         5.158905229247110E-020
  -53.3200000000000         8.793861578883390E-020
  -53.1300000000000         1.011276144814499E-019
  -52.9400000000000         8.723990680251814E-020
  -52.7500000000000         4.991609526697330E-020
  -52.5600000000000        -6.705669750648666E-022
  -52.3700000000000        -5.071138118909326E-020
  -52.1800000000000        -8.669550987044483E-020
  -51.9900000000000        -9.924671799228136E-020
  -51.8000000000000        -8.576160709448168E-020
  -51.6100000000000        -5.109349783922114E-020
  -51.4200000000000        -6.088371578756790E-021
  -51.2300000000000         3.560187617491609E-020
  -51.0400000000000         6.150534391795410E-020
  -50.8500000000000         6.395918802469567E-020
  -50.6600000000000         4.232882503115205E-020
  -50.4700000000000         3.174313706470782E-021
  -50.2800000000000        -4.168115391969289E-020
  -50.0900000000000        -7.861529062968302E-020
  -49.9000000000000        -9.619396945135635E-020
  -49.7100000000000        -8.852358959459515E-020
  -49.5200000000000        -5.699749295954490E-020
  -49.3300000000000        -9.931765480877212E-021
  -49.1400000000000         3.980352716701138E-020
  -48.9500000000000         7.847188719613654E-020
  -48.7600000000000         9.540915820990849E-020
  -48.5700000000000         8.607308878293072E-020
  -48.3800000000000         5.332136375984151E-020
  -48.1900000000000         6.550776251015198E-021
  -48.0000000000000        -4.104785911038331E-020
  -47.8100000000000        -7.631800327000190E-020
  -47.6200000000000        -8.993673130322481E-020
  -47.4300000000000        -7.908593751962753E-020
  -47.2400000000000        -4.822639089187983E-020
  -47.0500000000000        -7.755391409254549E-021
  -46.8600000000000         2.906033223508959E-020
  -46.6700000000000         4.998739758560196E-020
  -46.4800000000000         4.743305051587381E-020
  -46.2900000000000         2.070901802445693E-020
  -46.1000000000000        -2.370908161849682E-020
  -45.9100000000000        -7.400624037564499E-020
  -45.7200000000000        -1.164082687048594E-019
  -45.5300000000000        -1.391352223888859E-019
  -45.3400000000000        -1.357796476421313E-019
  -45.1500000000000        -1.071319376528318E-019
  -44.9600000000000        -6.093018505230568E-020
  -44.7700000000000        -9.615996228945423E-021
  -44.5800000000000         3.324634594579356E-020
  -44.3900000000000         5.684804612796909E-020
  -44.2000000000000         5.619099831641258E-020
  -44.0100000000000         3.344041346346275E-020
  -43.8200000000000        -2.811377575702223E-021
  -43.6300000000000        -4.015037229516717E-020
  -43.4400000000000        -6.605208807052862E-020
  -43.2500000000000        -7.161192270218821E-020
  -43.0600000000000        -5.420196303147573E-020
  -42.8700000000000        -1.827580267723978E-020
  -42.6800000000000         2.591388575850895E-020
  -42.4900000000000         6.530862254338115E-020
  -42.3000000000000         8.787236990333666E-020
  -42.1100000000000         8.613709223669890E-020
  -41.9200000000000         5.943189769191852E-020
  -41.7300000000000         1.414539097886515E-020
  -41.5400000000000        -3.805784377052687E-020
  -41.3500000000000        -8.355163325116198E-020
  -41.1600000000000        -1.106334794975933E-019
  -40.9700000000000        -1.128539403785144E-019
  -40.7800000000000        -9.082421681640028E-020
  -40.5900000000000        -5.197895682199645E-020
  -40.4000000000000        -8.367113958852773E-021
  -40.2100000000000         2.688288669642402E-020
  -40.0200000000000         4.339419797549493E-020
  -39.8300000000000         3.655612998607978E-020
  -39.6400000000000         8.848185086235236E-021
  -39.4500000000000        -3.091016344935517E-020
  -39.2600000000000        -7.016674878561234E-020
  -39.0700000000000        -9.634462745828189E-020
  -38.8800000000000        -1.005714691957902E-019
  -38.6900000000000        -8.033947164501086E-020
  -38.5000000000000        -4.031130579047407E-020
  -38.3100000000000         8.973082458608672E-021
  -38.1200000000000         5.411876879040693E-020
  -37.9300000000000         8.274855097302981E-020
  -37.7400000000000         8.709661143026155E-020
  -37.5500000000000         6.627467854502001E-020
  -37.3600000000000         2.654975418918478E-020
  -37.1700000000000        -2.044904921456414E-020
  -36.9800000000000        -6.107749385508527E-020
  -36.7900000000000        -8.361186507357455E-020
  -36.6000000000000        -8.163775323409559E-020
  -36.4100000000000        -5.591150557051897E-020
  -36.2200000000000        -1.415160164770169E-020
  -36.0300000000000         3.118580884814507E-020
  -35.8400000000000         6.650802969355405E-020
  -35.6500000000000         8.102198296010794E-020
  -35.4600000000000         6.986330863640844E-020
  -35.2700000000000         3.550974117828387E-020
  -35.0800000000000        -1.292997150642330E-020
  -34.8900000000000        -6.234180437344912E-020
  -34.7000000000000        -9.938210772856932E-020
  -34.5100000000000        -1.143078648232920E-019
  -34.3200000000000        -1.037536606621135E-019
  -34.1300000000000        -7.165476728306747E-020
  -33.9400000000000        -2.805336952135819E-020
  -33.7500000000000         1.386237462504017E-020
  -33.5600000000000         4.162519778308664E-020
  -33.3700000000000         4.713719095508626E-020
  -33.1800000000000         2.903823538410852E-020
  -32.9900000000000        -6.895256057549641E-021
  -32.8000000000000        -4.943776757251960E-020
  -32.6100000000000        -8.519848347804183E-020
  -32.4200000000000        -1.025487652238076E-019
  -32.2300000000000        -9.505397483330450E-020
  -32.0400000000000        -6.341265674146010E-020
  -31.8500000000000        -1.533593677261738E-020
  -31.6600000000000         3.660612410563637E-020
  -31.4700000000000         7.855641661935840E-020
  -31.2800000000000         9.933233653206870E-020
  -31.0900000000000         9.362992647069359E-020
  -30.9000000000000         6.353864434936079E-020
  -30.7100000000000         1.792424604491095E-020
  -30.5200000000000        -3.014165329109367E-020
  -30.3300000000000        -6.715748761066113E-020
  -30.1400000000000        -8.307571411027385E-020
  -29.9500000000000        -7.416965555880472E-020
  -29.7600000000000        -4.405788461008648E-020
  -29.5700000000000        -2.597536515315468E-021
  -29.3800000000000         3.702622401247908E-020
  -29.1900000000000         6.216881384695245E-020
  -29.0000000000000         6.443223710852153E-020
  -28.8100000000000         4.213462489957553E-020
  -28.6200000000000         8.261151026790011E-022
  -28.4300000000000        -4.830042933095188E-020
  -28.2400000000000        -9.164322489297842E-020
  -28.0500000000000        -1.171288919354789E-019
  -27.8600000000000        -1.177059616479498E-019
  -27.6700000000000        -9.337758276582186E-020
  -27.4800000000000        -5.118502683280928E-020
  -27.2900000000000        -3.152310046271367E-021
  -27.1000000000000         3.720538705882978E-020
  -26.9100000000000         5.879224782701593E-020
  -26.7200000000000         5.612551505850341E-020
  -26.5300000000000         3.088682597154750E-020
  -26.3400000000000        -8.617025454769455E-021
  -26.1500000000000        -4.992546866593934E-020
  -25.9600000000000        -8.010744483269595E-020
  -25.7700000000000        -8.958191272330816E-020
  -25.5800000000000        -7.495878536799278E-020
  -25.3900000000000        -4.006822062518007E-020
  -25.2000000000000         5.125393230282682E-021
  -25.0100000000000         4.741167772012531E-020
  -24.8200000000000         7.418659300763621E-020
  -24.6300000000000         7.714942864900599E-020
  -24.4400000000000         5.476843246603819E-020
  -24.2500000000000         1.279382118880217E-020
  -24.0600000000000        -3.733960741448898E-020
  -23.8700000000000        -8.176709205282380E-020
  -23.6800000000000        -1.081691921003065E-019
  -23.4900000000000        -1.093165762629829E-019
  -23.3000000000000        -8.515325594172207E-020
  -23.1100000000000        -4.280969269143707E-020
  -22.9200000000000         5.460878198151967E-021
  -22.7300000000000         4.582493395843569E-020
  -22.5400000000000         6.686228780012081E-020
  -22.3500000000000         6.285406189727052E-020
  -22.1600000000000         3.541542164662140E-020
  -21.9700000000000        -6.996388717866483E-021
  -21.7800000000000        -5.155524419816989E-020
  -21.5900000000000        -8.480614345479689E-020
  -21.4000000000000        -9.659077024139572E-020
  -21.2100000000000        -8.302070245892750E-020
  -21.0200000000000        -4.763252392230735E-020
  -20.8300000000000        -3.839460704429382E-022
  -20.6400000000000         4.522269050304767E-020
  -20.4500000000000         7.605593605055273E-020
  -20.2600000000000         8.317106402624127E-020
  -20.0700000000000         6.441602102288789E-020
  -19.8800000000000         2.507031774221807E-020
  -19.6900000000000        -2.366854916580605E-020
  -19.5000000000000        -6.791356522204815E-020
  -19.3100000000000        -9.509920108768587E-020
  -19.1200000000000        -9.761716865977968E-020
  -18.9300000000000        -7.502657631880731E-020
  -18.7400000000000        -3.419703550965852E-020
  -18.5500000000000         1.266250325069914E-020
  -18.3600000000000         5.152569203680990E-020
  -18.1700000000000         7.060698602911540E-020
  -17.9800000000000         6.378333097431402E-020
  -17.7900000000000         3.238913565477732E-020
  -17.6000000000000        -1.513532185363720E-020
  -17.4100000000000        -6.564116808318361E-020
  -17.2200000000000        -1.050223249317428E-019
  -17.0300000000000        -1.222399153926709E-019
  -16.8400000000000        -1.124618898722924E-019
  -16.6500000000000        -7.841643137518901E-020
  -16.4600000000000        -2.957234832528259E-020
  -16.2700000000000         2.061414044840785E-020
  -16.0800000000000         5.858810748733893E-020
  -15.8900000000000         7.459308988647931E-020
  -15.7000000000000         6.544801328067207E-020
  -15.5100000000000         3.540205473508457E-020
  -15.3200000000000        -5.174237255099903E-021
  -15.1300000000000        -4.287385974660375E-020
  -14.9400000000000        -6.521249133321326E-020
  -14.7500000000000        -6.431080929251848E-020
  -14.5600000000000        -3.923401028437162E-020
  -14.3700000000000         3.686750614926345E-021
  -14.1800000000000         5.264380206540574E-020
  -13.9900000000000         9.373754732812056E-020
  -13.8000000000000         1.149793994593053E-019
  -13.6100000000000         1.097558320559257E-019
  -13.4200000000000         7.875005473684992E-020
  -13.2300000000000         2.976323994944043E-020
  -13.0400000000000        -2.451303893587673E-020
  -12.8500000000000        -7.012520129930797E-020
  -12.6600000000000        -9.583262413845757E-020
  -12.4700000000000        -9.627852562050302E-020
  -12.2800000000000        -7.344529964872645E-020
  -12.0900000000000        -3.598416942570959E-020
  -11.9000000000000         3.374917910562922E-021
  -11.7100000000000         3.157455923345497E-020
  -11.5200000000000         3.905251086338330E-020
  -11.3300000000000         2.252924650796500E-020
  -11.1400000000000        -1.404443983633942E-020
  -10.9500000000000        -6.065073068142206E-020
  -10.7600000000000        -1.041359829755781E-019
  -10.5700000000000        -1.320516317633233E-019
  -10.3800000000000        -1.362824687722808E-019
  -10.1900000000000        -1.154048323356027E-019
  -10.0000000000000        -7.509107372685953E-020
  -9.81000000000000        -2.644882123903419E-020
  -9.62000000000000         1.721423642658153E-020
  -9.42999999999999         4.425327552251413E-020
  -9.23999999999999         4.805148554446902E-020
  -9.05000000000000         2.890942540568606E-020
  -8.86000000000000        -6.089735606009386E-021
  -8.67000000000000        -4.519845404709061E-020
  -8.48000000000000        -7.548724647069191E-020
  -8.28999999999999        -8.667284837698521E-020
  -8.09999999999999        -7.417170220846553E-020
  -7.91000000000000        -4.048430080991697E-020
  -7.72000000000000         5.495916395360059E-021
  -7.53000000000000         5.104821930716136E-020
  -7.34000000000000         8.331685489939705E-020
  -7.15000000000001         9.305531231047993E-020
  -6.95999999999999         7.733432819717492E-020
  -6.77000000000000         4.042581610827212E-020
  -6.58000000000000        -7.397629363654196E-021
  -6.39000000000000        -5.280419337302396E-020
  -6.20000000000000        -8.323534796668734E-020
  -6.01000000000001        -9.051761974986174E-020
  -5.81999999999999        -7.320227245323187E-020
  -5.63000000000000        -3.694965653770923E-020
  -5.44000000000000         7.154259854234868E-021
  -5.25000000000000         4.585600073333871E-020
  -5.06000000000000         6.761397106088280E-020
  -4.87000000000000         6.596680892247754E-020
  -4.67999999999999         4.141078750698262E-020
  -4.48999999999999         1.242951363037482E-021
  -4.30000000000000        -4.258096455255069E-020
  -4.11000000000000        -7.694878419556823E-020
  -3.92000000000000        -9.143522405888858E-020
  -3.73000000000000        -8.136718655253825E-020
  -3.53999999999999        -4.921501633592487E-020
  -3.34999999999999        -3.898642574572178E-021
  -3.16000000000000         4.179400929269762E-020
  -2.97000000000000         7.492513713820632E-020
  -2.78000000000000         8.617557621833398E-020
  -2.59000000000000         7.256088125372503E-020
  -2.40000000000001         3.829902851967355E-020
  -2.20999999999999        -6.425824138605716E-021
  -2.02000000000000        -4.844463949212705E-020
  -1.83000000000000        -7.546283146681990E-020
  -1.64000000000000        -7.967497232583953E-020
  -1.45000000000000        -6.008084939655303E-020
  -1.26000000000001        -2.282224912197427E-020
  -1.06999999999999         2.056741092692048E-020
 -0.879999999999995         5.650111546092195E-020
 -0.689999999999998         7.329964152674428E-020
 -0.500000000000000         6.462619587463342E-020
 -0.310000000000002         3.139309672975016E-020
 -0.120000000000005        -1.841877829161559E-020
  7.000000000000739E-002   -7.198104991016145E-020
  0.260000000000005        -1.152410600542163E-019
  0.450000000000003        -1.369040925053514E-019
  0.640000000000001        -1.316283010540851E-019
  0.829999999999998        -1.015124031061183E-019
   1.02000000000000        -5.544730133045830E-020
   1.21000000000001        -6.518613468693080E-021
   1.40000000000001         3.178913662725755E-020
   1.59000000000000         4.948684751472847E-020
   1.78000000000000         4.294203500120604E-020
   1.97000000000000         1.587354808391849E-020
   2.16000000000000        -2.180917139017082E-020
   2.34999999999999        -5.698083621087271E-020
   2.54000000000001        -7.721806813924825E-020
   2.73000000000000        -7.451544029280032E-020
   2.92000000000000        -4.771506134000992E-020
   3.11000000000000        -2.939419758759413E-021
   3.30000000000000         4.810359621268699E-020
   3.48999999999999         9.145866742473286E-020
   3.68000000000001         1.149429353678614E-019
   3.87000000000000         1.116855716407212E-019
   4.06000000000000         8.215771723616754E-020
   4.25000000000000         3.409604735705447E-020
   4.44000000000000        -1.966735814807224E-020
   4.63000000000000        -6.484748757252447E-020
   4.82000000000001        -8.977052258310098E-020
   5.01000000000001        -8.868486390560712E-020
   5.20000000000000        -6.336231773586440E-020
   5.39000000000000        -2.252883689751296E-020
   5.58000000000000         2.070774172092296E-020
   5.77000000000000         5.268835709408659E-020
   5.96000000000001         6.318537491350939E-020
   6.15000000000001         4.838641831318969E-020
   6.34000000000000         1.201522634233443E-020
   6.53000000000000        -3.573720835656299E-020