  -105.000000000000         0.000000000000000E+000
  -104.810000000000         1.895235977930463E-010
  -104.620000000000         4.178690290583229E-010
  -104.430000000000         6.727563648568384E-010
  -104.240000000000         1.094344554260060E-009
  -104.050000000000         1.723633185003721E-009
  -103.860000000000         2.359799716309492E-009
  -103.670000000000         2.892059591903129E-009
  -103.480000000000         3.251877719822535E-009
  -103.290000000000         3.793938709419781E-009
  -103.100000000000         4.346739163660637E-009
  -102.910000000000         4.922180625925691E-009
  -102.720000000000         5.451645625066226E-009
  -102.530000000000         5.946992325154139E-009
  -102.340000000000         6.477033568862517E-009
  -102.150000000000         6.942513826298594E-009
  -101.960000000000         7.431891295182992E-009
  -101.770000000000         7.457441426412489E-009
  -101.580000000000         7.620947628561389E-009
  -101.390000000000         7.700390825902428E-009
  -101.200000000000         7.789145003656411E-009
  -101.010000000000         7.791382909503997E-009
  -100.820000000000         7.736579007657035E-009
  -100.630000000000         7.839231357891435E-009
  -100.440000000000         7.900284921201673E-009
  -100.250000000000         7.857682305075912E-009
  -100.060000000000         7.708981836821856E-009
  -99.8700000000000         7.472976803809085E-009
  -99.6800000000000         7.071108193209284E-009
  -99.4900000000000         6.453924478040372E-009
  -99.3000000000000         5.916967906577355E-009
  -99.1100000000000         5.445180248453450E-009
  -98.9200000000000         4.973923608107172E-009
  -98.7300000000000         4.623707767080850E-009
  -98.5400000000000         4.428511571339708E-009
  -98.3500000000000         3.733091448116234E-009
  -98.1600000000000         3.336357473273736E-009
  -97.9700000000000         3.188959374174557E-009
  -97.7800000000000         2.980049688257861E-009
  -97.5900000000000         2.829845570459974E-009
  -97.4000000000000         2.753990629702191E-009
  -97.2100000000000         2.747517493467061E-009
  -97.0200000000000         2.764818820226731E-009
  -96.8300000000000         2.878610171486547E-009
  -96.6400000000000         2.861486639504349E-009
  -96.4500000000000         2.838271225504186E-009
  -96.2600000000000         2.963978351110674E-009
  -96.0700000000000         3.572565853052948E-009
  -95.8800000000000         4.052160769777008E-009
  -95.6900000000000         4.461671111918179E-009
  -95.5000000000000         4.757354285889126E-009
  -95.3100000000000         5.145151121801989E-009
  -95.1200000000000         5.338195999695018E-009
  -94.9300000000000         5.613378222844732E-009
  -94.7400000000000         5.802323684560266E-009
  -94.5500000000000         6.082715498514797E-009
  -94.3600000000000         6.628606414970534E-009
  -94.1700000000000         7.393408702105783E-009
  -93.9800000000000         7.408914888566904E-009
  -93.7900000000000         7.838699617229621E-009
  -93.6000000000000         8.350562919956202E-009
  -93.4100000000000         8.585824989490907E-009
  -93.2200000000000         8.660527807955678E-009
  -93.0300000000000         8.626207674714241E-009
  -92.8400000000000         8.527741614226022E-009
  -92.6500000000000         8.426777107288623E-009
  -92.4600000000000         8.341784439819209E-009
  -92.2700000000000         8.131328592607178E-009
  -92.0800000000000         7.670102628531403E-009
  -91.8900000000000         6.981527381371429E-009
  -91.7000000000000         6.645441450902803E-009
  -91.5100000000000         6.266498126384463E-009
  -91.3200000000000         6.044127654495275E-009
  -91.1300000000000         5.819894057989988E-009
  -90.9400000000000         6.055421872756335E-009
  -90.7500000000000         6.566560932552395E-009
  -90.5600000000000         7.137172267286224E-009
  -90.3700000000000         7.591093326793689E-009
  -90.1800000000000         7.874739046501557E-009
  -89.9900000000000         8.209578954197097E-009
  -89.8000000000000         8.793566111809940E-009
  -89.6100000000000         8.971859784712188E-009
  -89.4200000000000         9.654940947551294E-009
  -89.2300000000000         1.051032110746482E-008
  -89.0400000000000         1.170135967918151E-008
  -88.8500000000000         1.168371460741616E-008
  -88.6600000000000         1.193218630900432E-008
  -88.4700000000000         1.219174420238986E-008
  -88.2800000000000         1.244562978131236E-008
  -88.0900000000000         1.286521498117846E-008
  -87.9000000000000         1.335479583130679E-008
  -87.7100000000000         1.373238446045357E-008
  -87.5200000000000         1.386220996635058E-008
  -87.3300000000000         1.392954444326983E-008
  -87.1400000000000         1.396283185718776E-008
  -86.9500000000000         1.376021944982279E-008
  -86.7600000000000         1.339371720100919E-008
  -86.5700000000000         1.299367443951635E-008
  -86.3800000000000         1.262870082260026E-008
  -86.1900000000000         1.231407684756658E-008
  -86.0000000000000         1.205662716044850E-008
  -85.8100000000000         1.196371219866838E-008
  -85.6200000000000         1.221145615306183E-008
  -85.4300000000000         1.285354983876487E-008
  -85.2400000000000         1.372616581133800E-008
  -85.0500000000000         1.500794573593784E-008
  -84.8600000000000         1.649549106872948E-008
  -84.6700000000000         1.801958796499983E-008
  -84.4800000000000         1.968566687126809E-008
  -84.2900000000000         2.153090943865071E-008
  -84.1000000000000         2.323190527577173E-008
  -83.9100000000000         2.468896586299873E-008
  -83.7200000000000         2.461638218107918E-008
  -83.5300000000000         2.700292505962279E-008
  -83.3400000000000         2.692015501354011E-008
  -83.1500000000000         2.739085050565948E-008
  -82.9600000000000         2.804507322250730E-008
  -82.7700000000000         2.863951405176280E-008
  -82.5800000000000         2.906441057241373E-008
  -82.3900000000000         2.928213377928966E-008
  -82.2000000000000         2.930808304695996E-008
  -82.0100000000000         2.921890915362869E-008
  -81.8200000000000         2.889993461780454E-008
  -81.6300000000000         2.840843793989964E-008
  -81.4400000000000         2.789028323240837E-008
  -81.2500000000000         2.743061552988998E-008
  -81.0600000000000         2.687901858537488E-008
  -80.8700000000000         2.593994087024444E-008
  -80.6800000000000         2.490252772316823E-008
  -80.4900000000000         2.400489363426815E-008
  -80.3000000000000         2.336941022911391E-008
  -80.1100000000000         2.294446605700183E-008
  -79.9200000000000         2.271225482793419E-008
  -79.7300000000000         2.273890282171565E-008
  -79.5400000000000         2.301584437813391E-008
  -79.3500000000000         2.361321376966420E-008
  -79.1600000000000         2.437977050979908E-008
  -78.9700000000000         2.519872923495410E-008
  -78.7800000000000         2.613401822112054E-008
  -78.5900000000000         2.724700946936370E-008
  -78.4000000000000         2.809831429671369E-008
  -78.2100000000000         2.865671579716922E-008
  -78.0200000000000         2.911200465037586E-008
  -77.8300000000000         2.948491290473140E-008
  -77.6400000000000         2.986140821779520E-008
  -77.4500000000000         3.026102050157378E-008
  -77.2600000000000         3.062729178273411E-008
  -77.0700000000000         3.094784205970644E-008
  -76.8800000000000         3.119965545284822E-008
  -76.6900000000000         3.152104801816883E-008
  -76.5000000000000         3.200257909787345E-008
  -76.3100000000000         3.299784684017461E-008
  -76.1200000000000         3.357512277023669E-008
  -75.9300000000000         3.450587737452774E-008
  -75.7400000000000         3.528476998837726E-008
  -75.5500000000000         3.600769761728822E-008
  -75.3600000000000         3.667162315165837E-008
  -75.1700000000000         3.733493465551387E-008
  -74.9800000000000         3.847020524210216E-008
  -74.7900000000000         3.994619456391985E-008
  -74.6000000000000         4.142015129349828E-008
  -74.4100000000000         4.279890858201274E-008
  -74.2200000000000         4.405312206067167E-008
  -74.0300000000000         4.518460737613977E-008
  -73.8400000000000         4.643153646780127E-008
  -73.6500000000000         4.771752034292616E-008
  -73.4600000000000         4.879724700899188E-008
  -73.2700000000000         4.989727832387334E-008
  -73.0800000000000         5.084419757959067E-008
  -72.8900000000000         5.185013464655036E-008
  -72.7000000000000         5.255151911366875E-008
  -72.5100000000000         5.328636207490515E-008
  -72.3200000000000         5.406116387824000E-008
  -72.1300000000000         5.478072999033669E-008
  -71.9400000000000         5.521027804328601E-008
  -71.7500000000000         5.749108373424592E-008
  -71.5600000000000         5.767318898900821E-008
  -71.3700000000000         5.806909487453505E-008
  -71.1800000000000         5.890951665012671E-008
  -70.9900000000000         5.922978870015471E-008
  -70.8000000000000         6.235274226048176E-008
  -70.6100000000000         6.251822982871683E-008
  -70.4200000000000         6.290648125382604E-008
  -70.2300000000000         6.692873233963207E-008
  -70.0400000000000         6.708638116298099E-008
  -69.8500000000000         6.763305853722652E-008
  -69.6600000000000         7.109713374682389E-008
  -69.4700000000000         7.170756656308216E-008
  -69.2800000000000         7.286088634702836E-008
  -69.0900000000000         7.415090388709306E-008
  -68.9000000000000         7.517642102777342E-008
  -68.7100000000000         7.617786569065381E-008
  -68.5200000000000         7.720299404489081E-008
  -68.3300000000000         7.820002355929730E-008
  -68.1400000000000         7.911875239612018E-008
  -67.9500000000000         7.983112623284630E-008
  -67.7600000000000         8.046755400298251E-008
  -67.5700000000000         8.121888040615849E-008
  -67.3800000000000         8.220705969369847E-008
  -67.1900000000000         8.320527954567005E-008
  -67.0000000000000         8.394797079333269E-008
  -66.8100000000000         8.576007299151222E-008
  -66.6200000000000         8.617220375867711E-008
  -66.4300000000000         8.702951515901844E-008
  -66.2400000000000         8.983013022130908E-008
  -66.0500000000000         9.020366671210457E-008
  -65.8600000000000         9.072159425750178E-008
  -65.6700000000000         9.205026237919758E-008
  -65.4800000000000         9.385119761154002E-008
  -65.2900000000000         9.578965413032335E-008
  -65.1000000000000         9.790948038056693E-008
  -64.9100000000000         1.000531464123515E-007
  -64.7200000000000         1.020710936402534E-007
  -64.5300000000000         1.044541777251934E-007
  -64.3400000000000         1.066838774439535E-007
  -64.1500000000000         1.086288550240660E-007
  -63.9600000000000         1.103826099352614E-007
  -63.7700000000000         1.120614763960650E-007
  -63.5800000000000         1.139887872613481E-007
  -63.3900000000000         1.159105790290056E-007
  -63.2000000000000         1.178387895515165E-007
  -63.0100000000000         1.196323099474246E-007
  -62.8200000000000         1.213061792953062E-007
  -62.6300000000000         1.227184610154181E-007
  -62.4400000000000         1.239153218522439E-007
  -62.2500000000000         1.250114315366733E-007
  -62.0600000000000         1.260109089775142E-007
  -61.8700000000000         1.268869273546576E-007
  -61.6800000000000         1.276328940448906E-007
  -61.4900000000000         1.282663497521132E-007
  -61.3000000000000         1.289725462298845E-007
  -61.1100000000000         1.297552165180462E-007
  -60.9200000000000         1.305470924433263E-007
  -60.7300000000000         1.316420717717143E-007
  -60.5400000000000         1.329397120907220E-007
  -60.3500000000000         1.343106865474786E-007
  -60.1600000000000         1.358928409466925E-007
  -59.9700000000000         1.374790929547952E-007
  -59.7800000000000         1.391048302427840E-007
  -59.5900000000000         1.410811856565704E-007
  -59.4000000000000         1.433316552778943E-007
  -59.2100000000000         1.459541301293475E-007
  -59.0200000000000         1.488388722987502E-007
  -58.8300000000000         1.515474773586307E-007
  -58.6400000000000         1.539582744611465E-007
  -58.4500000000000         1.568141617674563E-007
  -58.2600000000000         1.601380095971280E-007
  -58.0700000000000         1.630873227694315E-007
  -57.8800000000000         1.668196921312994E-007
  -57.6900000000000         1.700978971860163E-007
  -57.5000000000000         1.728463129328942E-007
  -57.3100000000000         1.742896185076854E-007
  -57.1200000000000         1.792725925839253E-007
  -56.9300000000000         1.802602171571532E-007
  -56.7400000000000         1.823952583693845E-007
  -56.5500000000000         1.849014702770450E-007
  -56.3600000000000         1.860441722371604E-007
  -56.1700000000000         1.882168391290388E-007
  -55.9800000000000         1.889501480752059E-007
  -55.7900000000000         1.905984478124106E-007
  -55.6000000000000         1.918181047283458E-007
  -55.4100000000000         1.934650977018913E-007
  -55.2200000000000         1.952977868601142E-007
  -55.0300000000000         1.972541411106663E-007
  -54.8400000000000         1.994154084019115E-007
  -54.6500000000000         2.016504632199120E-007
  -54.4600000000000         2.040211682597439E-007
  -54.2700000000000         2.063639349714532E-007
  -54.0800000000000         2.087805704315284E-007
  -53.8900000000000         2.111608154374814E-007
  -53.7000000000000         2.137830175582589E-007
  -53.5100000000000         2.166149528036405E-007
  -53.3200000000000         2.195782043072072E-007
  -53.1300000000000         2.230495005536467E-007
  -52.9400000000000         2.266478175366824E-007
  -52.7500000000000         2.302893334815178E-007
  -52.5600000000000         2.337477531523318E-007
  -52.3700000000000         2.380779729659192E-007
  -52.1800000000000         2.395127783772751E-007
  -51.9900000000000         2.500526525988777E-007
  -51.8000000000000         2.513262761746885E-007
  -51.6100000000000         2.534693130255416E-007
  -51.4200000000000         2.572107629859749E-007
  -51.2300000000000         2.622167301056380E-007
  -51.0400000000000         2.635047709920797E-007
  -50.8500000000000         2.670964883810791E-007
  -50.6600000000000         2.685030391084232E-007
  -50.4700000000000         2.753349382223424E-007
  -50.2800000000000         2.765731893571703E-007
  -50.0900000000000         2.785996826437183E-007
  -49.9000000000000         2.825034051475447E-007
  -49.7100000000000         2.840060756264538E-007
  -49.5200000000000         2.886146985787588E-007
  -49.3300000000000         2.902165241865613E-007
  -49.1400000000000         2.958811251913167E-007
  -48.9500000000000         2.977044891252470E-007
  -48.7600000000000         3.030627634589229E-007
  -48.5700000000000         3.076447627066187E-007
  -48.3800000000000         3.123969770359332E-007
  -48.1900000000000         3.172070426546129E-007
  -48.0000000000000         3.221729028043205E-007
  -47.8100000000000         3.273928994405547E-007
  -47.6200000000000         3.319770873753984E-007
  -47.4300000000000         3.364017114858531E-007
  -47.2400000000000         3.413477026466388E-007
  -47.0500000000000         3.454002255957516E-007
  -46.8600000000000         3.501228179759443E-007
  -46.6700000000000         3.548559125289571E-007
  -46.4800000000000         3.592808406375639E-007
  -46.2900000000000         3.634948456668483E-007
  -46.1000000000000         3.669804625412922E-007
  -45.9100000000000         3.712357002957313E-007
  -45.7200000000000         3.753773116668694E-007
  -45.5300000000000         3.796528346197922E-007
  -45.3400000000000         3.843307555020955E-007
  -45.1500000000000         3.888722995905056E-007
  -44.9600000000000         3.934187163684795E-007
  -44.7700000000000         3.971768175543136E-007
  -44.5800000000000         4.015535659143447E-007
  -44.3900000000000         4.051837864896147E-007
  -44.2000000000000         4.098104404207055E-007
  -44.0100000000000         4.137230217633599E-007
  -43.8200000000000         4.186534937371277E-007
  -43.6300000000000         4.225221469277163E-007
  -43.4400000000000         4.278763950017517E-007
  -43.2500000000000         4.312099014679207E-007
  -43.0600000000000         4.362949629176929E-007
  -42.8700000000000         4.403053763754184E-007
  -42.6800000000000         4.454628155581192E-007
  -42.4900000000000         4.489002670682057E-007
  -42.3000000000000         4.542778048097584E-007
  -42.1100000000000         4.574378484938341E-007
  -41.9200000000000         4.628866637421601E-007
  -41.7300000000000         4.665877951511944E-007
  -41.5400000000000         4.718789600945722E-007
  -41.3500000000000         4.747024331625363E-007
  -41.1600000000000         4.800967408484435E-007
  -40.9700000000000         4.822713634303758E-007
  -40.7800000000000         4.887471314106999E-007
  -40.5900000000000         4.911292099884894E-007
  -40.4000000000000         4.995329849271490E-007
  -40.2100000000000         5.020040427920442E-007
  -40.0200000000000         5.107724639381439E-007
  -39.8300000000000         5.131177305661707E-007
  -39.6400000000000         5.233325336552176E-007
  -39.4500000000000         5.258343130208658E-007
  -39.2600000000000         5.353920238186775E-007
  -39.0700000000000         5.388481238086996E-007
  -38.8800000000000         5.502164938040951E-007
  -38.6900000000000         5.539016046786324E-007
  -38.5000000000000         5.655143128130642E-007
  -38.3100000000000         5.688872167875334E-007
  -38.1200000000000         5.791216139071198E-007
  -37.9300000000000         5.822536502975147E-007
  -37.7400000000000         5.916372113999688E-007
  -37.5500000000000         5.946521000069543E-007
  -37.3600000000000         6.035800509411789E-007
  -37.1700000000000         6.064939150235102E-007
  -36.9800000000000         6.148288756570832E-007
  -36.7900000000000         6.176482151532823E-007
  -36.6000000000000         6.257683806684355E-007
  -36.4100000000000         6.282473359437169E-007
  -36.2200000000000         6.361786312117110E-007
  -36.0300000000000         6.385066406613677E-007
  -35.8400000000000         6.471029615205977E-007
  -35.6500000000000         6.496064472040279E-007
  -35.4600000000000         6.591206879330797E-007
  -35.2700000000000         6.618087503430853E-007
  -35.0800000000000         6.719469647412810E-007
  -34.8900000000000         6.745948236180513E-007
  -34.7000000000000         6.855446160354626E-007
  -34.5100000000000         6.882523825365836E-007
  -34.3200000000000         6.990903380194968E-007
  -34.1300000000000         7.023306189649582E-007
  -33.9400000000000         7.151572812368701E-007
  -33.7500000000000         7.188305934064361E-007
  -33.5600000000000         7.310737685954535E-007
  -33.3700000000000         7.343223083904674E-007
  -33.1800000000000         7.477259873163193E-007
  -32.9900000000000         7.505870686551108E-007
  -32.8000000000000         7.623182938011959E-007
  -32.6100000000000         7.651326758776281E-007
  -32.4200000000000         7.773918939186025E-007
  -32.2300000000000         7.804646193880444E-007
  -32.0400000000000         7.926512422711955E-007
  -31.8500000000000         7.957325363687146E-007
  -31.6600000000000         8.079094429770461E-007
  -31.4700000000000         8.109295065213669E-007
  -31.2800000000000         8.227749993156505E-007
  -31.0900000000000         8.260164131412321E-007
  -30.9000000000000         8.379580459762634E-007
  -30.7100000000000         8.414399101652055E-007
  -30.5200000000000         8.534968637531646E-007
  -30.3300000000000         8.569244928351356E-007
  -30.1400000000000         8.696633985495139E-007
  -29.9500000000000         8.729252344825974E-007
  -29.7600000000000         8.859268730099367E-007
  -29.5700000000000         8.891910185779460E-007
  -29.3800000000000         9.013649291891197E-007
  -29.1900000000000         9.051593302442482E-007
  -29.0000000000000         9.185876700427606E-007
  -28.8100000000000         9.232940559549555E-007
  -28.6200000000000         9.358314499702657E-007
  -28.4300000000000         9.413510468648436E-007
  -28.2400000000000         9.532256322592705E-007
  -28.0500000000000         9.584738111376752E-007
  -27.8600000000000         9.684485964565707E-007
  -27.6700000000000         9.769394785336083E-007
  -27.4800000000000         9.849644804784245E-007
  -27.2900000000000         9.929924941767935E-007
  -27.1000000000000         1.000991465933838E-006
  -26.9100000000000         1.008567441109000E-006
  -26.7200000000000         1.015536747705526E-006
  -26.5300000000000         1.023211278825823E-006
  -26.3400000000000         1.030612300784710E-006
  -26.1500000000000         1.038708174890477E-006
  -25.9600000000000         1.046971719427761E-006
  -25.7700000000000         1.055688537461054E-006
  -25.5800000000000         1.064630398624139E-006
  -25.3900000000000         1.073118653807087E-006
  -25.2000000000000         1.081390712888714E-006
  -25.0100000000000         1.090661697211905E-006
  -24.8200000000000         1.099446803666857E-006
  -24.6300000000000         1.108885405746974E-006
  -24.4400000000000         1.119008705638675E-006
  -24.2500000000000         1.128548415055503E-006
  -24.0600000000000         1.138882881963078E-006
  -23.8700000000000         1.148423801814126E-006
  -23.6800000000000         1.157370555384787E-006
  -23.4900000000000         1.166970987145697E-006
  -23.3000000000000         1.176986140158622E-006
  -23.1100000000000         1.186746005164039E-006
  -22.9200000000000         1.196659361295397E-006
  -22.7300000000000         1.207115649213697E-006
  -22.5400000000000         1.217347268603818E-006
  -22.3500000000000         1.227646948066884E-006
  -22.1600000000000         1.238422713521983E-006
  -21.9700000000000         1.248919332226240E-006
  -21.7800000000000         1.258811304359213E-006
  -21.5900000000000         1.269522966233956E-006
  -21.4000000000000         1.279778075957974E-006
  -21.2100000000000         1.289159780586385E-006
  -21.0200000000000         1.300981029749392E-006
  -20.8300000000000         1.306142627159574E-006
  -20.6400000000000         1.321054111773242E-006
  -20.4500000000000         1.324642480081919E-006
  -20.2600000000000         1.343924357852655E-006
  -20.0700000000000         1.347084561247203E-006
  -19.8800000000000         1.355608871121614E-006
  -19.6900000000000         1.369487344978611E-006
  -19.5000000000000         1.372953304536436E-006
  -19.3100000000000         1.392410638196005E-006
  -19.1200000000000         1.395975546796086E-006
  -18.9300000000000         1.408491924844575E-006
  -18.7400000000000         1.412601618695815E-006
  -18.5500000000000         1.432737709375054E-006
  -18.3600000000000         1.436132471559079E-006
  -18.1700000000000         1.448153812108283E-006
  -17.9800000000000         1.462454741478314E-006
  -17.7900000000000         1.466517689192851E-006
  -17.6000000000000         1.482610298217696E-006
  -17.4100000000000         1.486229228388846E-006
  -17.2200000000000         1.503405366405357E-006
  -17.0300000000000         1.507228116344801E-006
  -16.8400000000000         1.524737592661816E-006
  -16.6500000000000         1.528869270165903E-006
  -16.4600000000000         1.548412943920474E-006
  -16.2700000000000         1.552532062397796E-006
  -16.0800000000000         1.572877794864049E-006
  -15.8900000000000         1.576883775700661E-006
  -15.7000000000000         1.595654650397472E-006
  -15.5100000000000         1.599891832783763E-006
  -15.3200000000000         1.620736305367789E-006
  -15.1300000000000         1.624668363986216E-006
  -14.9400000000000         1.641336083191741E-006
  -14.7500000000000         1.645410387366612E-006
  -14.5600000000000         1.666843848809459E-006
  -14.3700000000000         1.670757628976276E-006
  -14.1800000000000         1.686367317883334E-006
  -13.9900000000000         1.690671879626973E-006
  -13.8000000000000         1.710291864951465E-006
  -13.6100000000000         1.713955680915413E-006
  -13.4200000000000         1.729897686563942E-006
  -13.2300000000000         1.733645988591982E-006
  -13.0400000000000         1.753933525159112E-006
  -12.8500000000000         1.757622034469405E-006
  -12.6600000000000         1.774099815086763E-006
  -12.4700000000000         1.778015679125895E-006
  -12.2800000000000         1.798513357297148E-006
  -12.0900000000000         1.802375425184369E-006
  -11.9000000000000         1.821409186641757E-006
  -11.7100000000000         1.825524169399392E-006
  -11.5200000000000         1.847620615624577E-006
  -11.3300000000000         1.851830124112847E-006
  -11.1400000000000         1.870490742866743E-006
  -10.9500000000000         1.874725631441633E-006
  -10.7600000000000         1.897342680781185E-006
  -10.5700000000000         1.901408397046637E-006
  -10.3800000000000         1.917549964943109E-006
  -10.1900000000000         1.921788380607053E-006
  -10.0000000000000         1.944435903139039E-006
  -9.81000000000000         1.948585533463451E-006
  -9.62000000000000         1.964171050241855E-006
  -9.42999999999999         1.968953769580501E-006
  -9.23999999999999         1.991662587484440E-006
  -9.05000000000000         1.995912378414131E-006
  -8.86000000000000         2.014819883947993E-006
  -8.67000000000000         2.019294345795282E-006
  -8.48000000000000         2.042125166811455E-006
  -8.28999999999999         2.046624200173160E-006
  -8.09999999999999         2.065855137191284E-006
  -7.91000000000000         2.070714977172623E-006
  -7.72000000000000         2.094552952785858E-006
  -7.53000000000000         2.099255533003190E-006
  -7.34000000000000         2.119367620047759E-006
  -7.15000000000001         2.124148870523895E-006
  -6.95999999999999         2.146613568677673E-006
  -6.77000000000000         2.151459628373214E-006
  -6.58000000000000         2.170731063917314E-006
  -6.39000000000000         2.175865022247771E-006
  -6.20000000000000         2.200618375480782E-006
  -6.01000000000001         2.205384454660126E-006
  -5.81999999999999         2.216220177017029E-006
  -5.63000000000000         2.238340344243038E-006
  -5.44000000000000         2.243276289414098E-006
  -5.25000000000000         2.261555388400441E-006
  -5.06000000000000         2.266797437132223E-006
  -4.87000000000000         2.292662176843279E-006
  -4.67999999999999         2.297536096128341E-006
  -4.48999999999999         2.304376320426613E-006
  -4.30000000000000         2.325848964866404E-006
  -4.11000000000000         2.330856972220714E-006
  -3.92000000000000         2.339876808322587E-006
  -3.73000000000000         2.367446694461507E-006
  -3.53999999999999         2.372450257826847E-006
  -3.34999999999999         2.379474633440046E-006
  -3.16000000000000         2.397905214364360E-006
  -2.97000000000000         2.403522151453818E-006
  -2.78000000000000         2.430872089589024E-006
  -2.59000000000000         2.436352898273107E-006
  -2.40000000000001         2.445378124764829E-006
  -2.20999999999999         2.472943048709102E-006
  -2.02000000000000         2.478333315487564E-006
  -1.83000000000000         2.486585988834164E-006
  -1.64000000000000         2.509281332169285E-006
  -1.45000000000000         2.514752507851095E-006
  -1.26000000000001         2.526249381132422E-006
  -1.06999999999999         2.554191307529903E-006
 -0.879999999999995         2.559576434355888E-006
 -0.689999999999998         2.566802027813078E-006
 -0.500000000000000         2.576745398794044E-006
 -0.310000000000002         2.599053451091291E-006
 -0.120000000000005         2.604610458568169E-006
  7.000000000000739E-002    2.613316913474062E-006
  0.260000000000005         2.628230876711507E-006
  0.450000000000003         2.634781407974624E-006
  0.640000000000001         2.668896857764412E-006
  0.829999999999998         2.674560746556437E-006
   1.02000000000000         2.682096548083010E-006
   1.21000000000001         2.692117422442867E-006
   1.40000000000001         2.701887122647845E-006
   1.59000000000000         2.711527096081430E-006
   1.78000000000000         2.721241715312786E-006
   1.97000000000000         2.731520195443559E-006
   2.16000000000000         2.741602590621390E-006
   2.34999999999999         2.786114859424817E-006
   2.54000000000001         2.792772715398026E-006
   2.73000000000000         2.800584705469731E-006
   2.92000000000000         2.809519152825495E-006
   3.11000000000000         2.818811400918905E-006
   3.30000000000000         2.828258025043597E-006
   3.48999999999999         2.838446849932826E-006
   3.68000000000001         2.849233270065358E-006
   3.87000000000000         2.862204461414838E-006
   4.06000000000000         2.873139286339188E-006
   4.25000000000000         2.886723961692133E-006
   4.44000000000000         2.897721404008751E-006
   4.63000000000000         2.911777318674443E-006
   4.82000000000001         2.923158426490767E-006
   5.01000000000001         2.938709469409098E-006
   5.20000000000000         2.949806768552937E-006
   5.39000000000000         2.963779513809046E-006
   5.58000000000000         2.975388403053924E-006
   5.77000000000000         2.987441075783380E-006
   5.96000000000001         2.999915233987552E-006
   6.15000000000001         3.011889227775152E-006
   6.34000000000000         3.024308101437786E-006
   6.53000000000000         3.036300825049419E-006