  -105.000000000000        -1.682118366505825E-019
  -104.810000000000        -1.274091045642785E-019
  -104.620000000000        -5.951894435776609E-020
  -104.430000000000         1.643494350014291E-020
  -104.240000000000         7.930769116415909E-020
  -104.050000000000         1.119232514479574E-019
  -103.860000000000         1.060098524454418E-019
  -103.670000000000         6.454611313176744E-020
  -103.480000000000         8.357605255471021E-022
  -103.290000000000        -6.541578305817416E-020
  -103.100000000000        -1.138739008116993E-019
  -102.910000000000        -1.295115447916015E-019
  -102.720000000000        -1.069860889547772E-019
  -102.530000000000        -5.219391313746597E-020
  -102.340000000000         1.943898653359001E-020
  -102.150000000000         8.743168654856866E-020
  -101.960000000000         1.321951194640039E-019
  -101.770000000000         1.407320088287398E-019
  -101.580000000000         1.104366573750042E-019
  -101.390000000000         4.988470043963513E-020
  -101.200000000000        -2.362657884481478E-020
  -101.010000000000        -8.907865693625049E-020
  -100.820000000000        -1.278175718029515E-019
  -100.630000000000        -1.289499249127919E-019
  -100.440000000000        -9.247846159734069E-020
  -100.250000000000        -2.927210848685689E-020
  -100.060000000000         4.211020688101259E-020
  -99.8700000000000         1.008124876723854E-019
  -99.6800000000000         1.297275607315099E-019
  -99.4900000000000         1.204502304497306E-019
  -99.3000000000000         7.570874608746868E-020
  -99.1100000000000         8.569502060373418E-021
  -98.9200000000000        -6.136096986445016E-020
  -98.7300000000000        -1.136397984433105E-019
  -98.5400000000000        -1.329387555211778E-019
  -98.3500000000000        -1.135059904686954E-019
  -98.1600000000000        -6.083714610391210E-020
  -97.9700000000000         9.927027933100314E-021
  -97.7800000000000         7.840300191142890E-020
  -97.5900000000000         1.248811897898409E-019
  -97.4000000000000         1.360385194995035E-019
  -97.2100000000000         1.087942634984361E-019
  -97.0200000000000         5.119650198438910E-020
  -96.8300000000000        -1.991660893371164E-020
  -96.6400000000000        -8.380586567850264E-020
  -96.4500000000000        -1.218554046303544E-019
  -96.2600000000000        -1.229834415094903E-019
  -96.0700000000000        -8.686392284521078E-020
  -95.8800000000000        -2.401849682107180E-020
  -95.6900000000000         4.724873177584499E-020
  -95.5000000000000         1.061776269778896E-019
  -95.3100000000000         1.355841782514878E-019
  -95.1200000000000         1.268439496762234E-019
  -94.9300000000000         8.238723837300340E-020
  -94.7400000000000         1.499290171722500E-020
  -94.5500000000000        -5.590965544704173E-020
  -94.3600000000000        -1.098631649208589E-019
  -94.1700000000000        -1.313083723074833E-019
  -93.9800000000000        -1.140984855906185E-019
  -93.7900000000000        -6.328862118534807E-020
  -93.6000000000000         6.325906685170646E-021
  -93.4100000000000         7.450036529016350E-020
  -93.2200000000000         1.214105339925353E-019
  -93.0300000000000         1.333935872589271E-019
  -92.8400000000000         1.068969642948260E-019
  -92.6500000000000         4.949942336443900E-020
  -92.4600000000000        -2.228276677958488E-020
  -92.2700000000000        -8.776612173755078E-020
  -92.0800000000000        -1.280689784295706E-019
  -91.8900000000000        -1.315587770070357E-019
  -91.7000000000000        -9.720800859142767E-020
  -91.5100000000000        -3.488904232669275E-020
  -91.3200000000000         3.748323655179661E-020
  -91.1300000000000         9.914128033305352E-020
  -90.9400000000000         1.324855165767639E-019
  -90.7500000000000         1.281845433878471E-019
  -90.5600000000000         8.786802543039469E-020
  -90.3700000000000         2.362986283275568E-020
  -90.1800000000000        -4.550696271777614E-020
  -89.9900000000000        -9.913015176529676E-020
  -89.8000000000000        -1.213768702522931E-019
  -89.6100000000000        -1.055602522871322E-019
  -89.4200000000000        -5.614985242583730E-020
  -89.2300000000000         1.247598440456639E-020
  -89.0400000000000         8.016397567900006E-020
  -88.8500000000000         1.268236564980248E-019
  -88.6600000000000         1.382784734263593E-019
  -88.4700000000000         1.104244225010547E-019
  -88.2800000000000         5.047853482158153E-020
  -88.0900000000000        -2.505410641941635E-020
  -87.9000000000000        -9.511154731663590E-020
  -87.7100000000000        -1.401363363508935E-019
  -87.5200000000000        -1.477109287295293E-019
  -87.3300000000000        -1.161315642859711E-019
  -87.1400000000000        -5.488082702706282E-020
  -86.9500000000000         1.814124539914575E-020
  -86.7600000000000         8.182625952076636E-020
  -86.5700000000000         1.179971965425188E-019
  -86.3800000000000         1.166963481128038E-019
  -86.1900000000000         7.907718576430011E-020
  -86.0000000000000         1.704262155635845E-020
  -85.8100000000000        -5.027814282911327E-020
  -85.6200000000000        -1.021834668416320E-019
  -85.4300000000000        -1.225160301844213E-019
  -85.2400000000000        -1.044410853629044E-019
  -85.0500000000000        -5.248956419292279E-020
  -84.8600000000000         1.872316093324757E-020
  -84.6700000000000         8.872688524611501E-020
  -84.4800000000000         1.371491506211037E-019
  -84.2900000000000         1.496648297752112E-019
  -84.1000000000000         1.222065188498518E-019
  -83.9100000000000         6.219377512836967E-020
  -83.7200000000000        -1.359191987816840E-020
  -83.5300000000000        -8.386969456735321E-020
  -83.3400000000000        -1.290343383611646E-019
  -83.1500000000000        -1.368368771443459E-019
  -82.9600000000000        -1.059132863344874E-019
  -82.7700000000000        -4.613403365902248E-020
  -82.5800000000000         2.432352075043521E-020
  -82.3900000000000         8.431681293111702E-020
  -82.2000000000000         1.159246143580824E-019
  -82.0100000000000         1.096709983728511E-019
  -81.8200000000000         6.727330651507296E-020
  -81.6300000000000         1.128171287528169E-021
  -81.4400000000000        -6.930617638613970E-020
  -81.2500000000000        -1.231788731454967E-019
  -81.0600000000000        -1.443194875334964E-019
  -80.8700000000000        -1.259458361183338E-019
  -80.6800000000000        -7.263477719018078E-020
  -80.4900000000000         1.006555734041585E-021
  -80.3000000000000         7.455793011464941E-020
  -80.1100000000000         1.276469263462056E-019
  -79.9200000000000         1.457601160335233E-019
  -79.7300000000000         1.243522287908098E-019
  -79.5400000000000         7.009603068578867E-020
  -79.3500000000000        -1.075335499246807E-021
  -79.1600000000000        -6.857120288282723E-020
  -78.9700000000000        -1.130685207284108E-019
  -78.7800000000000        -1.220517786969972E-019
  -78.5900000000000        -9.337227733758205E-020
  -78.4000000000000        -3.580878381425888E-020
  -78.2100000000000         3.351807243101527E-020
  -78.0200000000000         9.411839034042750E-020
  -77.8300000000000         1.280508704576866E-019
  -77.6400000000000         1.250797939592759E-019
  -77.4500000000000         8.559449218796235E-020
  -77.2600000000000         2.047227407876749E-020
  -77.0700000000000        -5.204714094957255E-020
  -76.8800000000000        -1.115602576613559E-019
  -76.6900000000000        -1.412897972708551E-019
  -76.5000000000000        -1.328376432276737E-019
  -76.3100000000000        -8.856674148691152E-020
  -76.1200000000000        -2.093579690167626E-020
  -75.9300000000000         5.103376331263942E-020
  -75.7400000000000         1.071598414144289E-019
  -75.5500000000000         1.318317600700214E-019
  -75.3600000000000         1.184373997743341E-019
  -75.1700000000000         7.122557399808827E-020
  -74.9800000000000         4.074448318774138E-021
  -74.7900000000000        -6.348919412558661E-020
  -74.6000000000000        -1.118974458298902E-019
  -74.4100000000000        -1.271804868391373E-019
  -74.2200000000000        -1.050118135464052E-019
  -74.0300000000000        -5.197381563158666E-020
  -73.8400000000000         1.634173260626319E-020
  -73.6500000000000         7.985880409140381E-020
  -73.4600000000000         1.198601907299451E-019
  -73.2700000000000         1.244556880820001E-019
  -73.0800000000000         9.208757253619105E-020
  -72.8900000000000         3.204935419298890E-020
  -72.7000000000000        -3.814454990403441E-020
  -72.5100000000000        -9.779163128386970E-020
  -72.3200000000000        -1.289981866217093E-019
  -72.1300000000000        -1.219220848334088E-019
  -71.9400000000000        -7.774800736990816E-020
  -71.7500000000000        -8.511085267262717E-021
  -71.5600000000000         6.623091719525260E-020
  -71.3700000000000         1.249721184996924E-019
  -71.1800000000000         1.504977498789341E-019
  -70.9900000000000         1.349637442609036E-019
  -70.8000000000000         8.228890868581708E-020
  -70.6100000000000         7.108046016189039E-021
  -70.4200000000000        -6.943954403391622E-020
  -70.2300000000000        -1.258584394525506E-019
  -70.0400000000000        -1.465695071348224E-019
  -69.8500000000000        -1.264505329283379E-019
  -69.6600000000000        -7.229852378932846E-020
  -69.4700000000000        -7.766413090889950E-022
  -69.2800000000000         6.655197221105384E-020
  -69.0900000000000         1.096391526892906E-019
  -68.9000000000000         1.159185882796993E-019
  -68.7100000000000         8.405257109976262E-020
  -68.5200000000000         2.433621018456700E-020
  -68.3300000000000        -4.437691252059249E-020
  -68.1400000000000        -1.003304371541283E-019
  -67.9500000000000        -1.254300459366029E-019
  -67.7600000000000        -1.107607394622581E-019
  -67.5700000000000        -5.939793822131857E-020
  -67.3800000000000         1.434913829492932E-020
  -67.1900000000000         8.906597451837065E-020
  -67.0000000000000         1.425344706297617E-019
  -66.8100000000000         1.583526377326151E-019
  -66.6200000000000         1.308995493599758E-019
  -66.4300000000000         6.714098852303918E-020
  -66.2400000000000        -1.529818733479174E-020
  -66.0500000000000        -9.324872012184172E-020
  -65.8600000000000        -1.447852202322623E-019
  -65.6700000000000        -1.556616333675607E-019
  -65.4800000000000        -1.234713302243737E-019
  -65.2900000000000        -5.829932889462627E-020
  -65.1000000000000         2.030692785755424E-020
  -64.9100000000000         8.912504241508783E-020
  -64.7200000000000         1.280767729844484E-019
  -64.5300000000000         1.260716884669266E-019
  -64.3400000000000         8.417928319734671E-020
  -64.1500000000000         1.523136924974362E-020
  -63.9600000000000        -6.000005299818206E-020
  -63.7700000000000        -1.189164157279696E-019
  -63.5800000000000        -1.437078462471614E-019
  -63.3900000000000        -1.265393295515880E-019
  -63.2000000000000        -7.179956888097314E-020
  -63.0100000000000         5.227240679582664E-021
  -62.8200000000000         8.285298669911617E-020
  -62.6300000000000         1.393068259163240E-019
  -62.4400000000000         1.590340761509532E-019
  -62.2500000000000         1.371452793826980E-019
  -62.0600000000000         8.073828134718876E-020
  -61.8700000000000         6.729692073433639E-021
  -61.6800000000000        -6.315352554969768E-020
  -61.4900000000000        -1.087462353499159E-019
  -61.3000000000000        -1.173096972048682E-019
  -61.1100000000000        -8.717532584928255E-020
  -60.9200000000000        -2.812337787653756E-020
  -60.7300000000000         4.157442894648188E-020
  -60.5400000000000         1.005423608933518E-019
  -60.3500000000000         1.305224682765373E-019
  -60.1600000000000         1.216270148375676E-019
  -59.9700000000000         7.513823711211354E-020
  -59.7800000000000         3.107716923641763E-021
  -59.5900000000000        -7.507508734522369E-020
  -59.4000000000000        -1.381433791989226E-019
  -59.2100000000000        -1.689075800072405E-019
  -59.0200000000000        -1.590534239918359E-019
  -58.8300000000000        -1.114537275289717E-019
  -58.6400000000000        -3.934180669946280E-020
  -58.4500000000000         3.743663405788015E-020
  -58.2600000000000         9.804397790579997E-020
  -58.0700000000000         1.265393022231312E-019
  -57.8800000000000         1.163359639825102E-019
  -57.6900000000000         7.194234494339037E-020
  -57.5000000000000         7.500092049040569E-021
  -57.3100000000000        -5.742729640205557E-020
  -57.1200000000000        -1.035683768564391E-019
  -56.9300000000000        -1.174923926657783E-019
  -56.7400000000000        -9.539544521480490E-020
  -56.5500000000000        -4.406093705297137E-020
  -56.3600000000000         2.123891150053162E-020
  -56.1700000000000         8.125704817624997E-020
  -55.9800000000000         1.183841553637887E-019
  -55.7900000000000         1.217529765685422E-019
  -55.6000000000000         9.038996855409763E-020
  -55.4100000000000         3.352788026838025E-020
  -55.2200000000000        -3.201286576836368E-020
  -55.0300000000000        -8.664813749418514E-020
  -54.8400000000000        -1.137066570359744E-019
  -54.6500000000000        -1.043434748497326E-019
  -54.4600000000000        -6.026084861456195E-020
  -54.2700000000000         6.594341299210368E-021
  -54.0800000000000         7.733108241115818E-020
  -53.8900000000000         1.315061811519496E-019
  -53.7000000000000         1.530538337992745E-019
  -53.5100000000000         1.349994979882261E-019
  -53.3200000000000         8.154271946192392E-020
  -53.1300000000000         6.879556173589422E-021
  -52.9400000000000        -6.887914169113644E-020
  -52.7500000000000        -1.254697246413208E-019
  -52.5600000000000        -1.482172731233018E-019
  -52.3700000000000        -1.321030403734241E-019
  -52.1800000000000        -8.303017699207353E-020
  -51.9900000000000        -1.597898289329665E-020
  -51.8000000000000         4.938663397992228E-020
  -51.6100000000000         9.440199214173984E-020
  -51.4200000000000         1.067606579275455E-019
  -51.2300000000000         8.402135870543945E-020
  -51.0400000000000         3.424608475893780E-020
  -50.8500000000000        -2.643614893431386E-020
  -50.6600000000000        -7.865281154342580E-020
  -50.4700000000000        -1.055952248494203E-019
  -50.2800000000000        -9.809134087565834E-020
  -50.0900000000000        -5.742378927739505E-020
  -49.9000000000000         4.965226135938997E-021
  -49.7100000000000         7.081258362680873E-020
  -49.5200000000000         1.204322497367005E-019
  -49.3300000000000         1.385670552380598E-019
  -49.1400000000000         1.189540226303427E-019
  -48.9500000000000         6.625315080416249E-020
  -48.7600000000000        -5.224593313094084E-021
  -48.5700000000000        -7.561385305666784E-020
  -48.3800000000000        -1.252179923521145E-019
  -48.1900000000000        -1.401927849648647E-019
  -48.0000000000000        -1.165458429618893E-019
  -47.8100000000000        -6.130603022542629E-020
  -47.6200000000000         9.461474934869107E-021
  -47.4300000000000         7.521937348119734E-020
  -47.2400000000000         1.168039974677169E-019
  -47.0500000000000         1.219033855720296E-019
  -46.8600000000000         8.862228484941679E-020
  -46.6700000000000         2.611084068799766E-020
  -46.4800000000000        -4.795930274034722E-020
  -46.2900000000000        -1.123960251894900E-019
  -46.1000000000000        -1.485550527996639E-019
  -45.9100000000000        -1.457205070392398E-019
  -45.7200000000000        -1.042174299856908E-019
  -45.5300000000000        -3.533240603280956E-020
  -45.3400000000000         4.194236601399655E-020
  -45.1500000000000         1.063898975490845E-019
  -44.9600000000000         1.406710223702243E-019
  -44.7700000000000         1.362721710813406E-019
  -44.5800000000000         9.587068118939053E-020
  -44.3900000000000         3.244928895993244E-020
  -44.2000000000000        -3.456504257992577E-020
  -44.0100000000000        -8.500778392480559E-020
  -43.8200000000000        -1.038765186944105E-019
  -43.6300000000000        -8.572445554836877E-020
  -43.4400000000000        -3.627980258220596E-020
  -43.2500000000000         2.919146360669634E-020
  -43.0600000000000         9.033149110386698E-020
  -42.8700000000000         1.276775401129591E-019
  -42.6800000000000         1.284578518848158E-019
  -42.4900000000000         9.050209454492685E-020
  -42.3000000000000         2.310266064107796E-020
  -42.1100000000000        -5.546991820497007E-020
  -41.9200000000000        -1.231328833685363E-019
  -41.7300000000000        -1.603823160045564E-019
  -41.5400000000000        -1.560581479022111E-019
  -41.3500000000000        -1.107644042669043E-019
  -41.1600000000000        -3.687636405943800E-020
  -40.9700000000000         4.493107153394361E-020
  -40.7800000000000         1.116417500545943E-019
  -40.5900000000000         1.445822348541159E-019
  -40.4000000000000         1.348466703718592E-019
  -40.2100000000000         8.586336139285262E-020
  -40.0200000000000         1.236087452373315E-020
  -39.8300000000000        -6.394745458899174E-020
  -39.6400000000000        -1.206878554596751E-019
  -39.4500000000000        -1.413143315356773E-019
  -39.2600000000000        -1.198834973314266E-019
  -39.0700000000000        -6.274182472400310E-020
  -38.8800000000000         1.336253892161191E-020
  -38.6900000000000         8.620636198342130E-020
  -38.5000000000000         1.346355174656708E-019
  -38.3100000000000         1.448146723569539E-019
  -38.1200000000000         1.143260631231613E-019
  -37.9300000000000         5.287039646690091E-020
  -37.7400000000000        -2.067014601583981E-020
  -37.5500000000000        -8.393823733233969E-020
  -37.3600000000000        -1.178535359891680E-019
  -37.1700000000000        -1.123672360764682E-019
  -36.9800000000000        -6.948539910223519E-020
  -36.7900000000000        -2.656506044627449E-021
  -36.6000000000000         6.728679271155151E-020
  -36.4100000000000         1.184040243379649E-019
  -36.2200000000000         1.342462842017364E-019
  -36.0300000000000         1.087961356739664E-019
  -35.8400000000000         4.828333303903003E-020
  -35.6500000000000        -3.063413000145402E-020
  -35.4600000000000        -1.057454960864983E-019
  -35.2700000000000        -1.557524613161916E-019
  -35.0800000000000        -1.664260335626264E-019
  -34.8900000000000        -1.346837952030806E-019
  -34.7000000000000        -6.943697150804497E-020
  -34.5100000000000         1.101283561180781E-020
  -34.3200000000000         8.426128639217421E-020
  -34.1300000000000         1.302409763826393E-019
  -33.9400000000000         1.369550272680131E-019
  -33.7500000000000         1.038520269027345E-019
  -33.5600000000000         4.186689356032646E-020
  -33.3700000000000        -2.988095826387490E-020
  -33.1800000000000        -8.975276399471032E-020
  -32.9900000000000        -1.199312308312671E-019
  -32.8000000000000        -1.115553561909843E-019
  -32.6100000000000        -6.715454306149517E-020
  -32.4200000000000         2.759359929178097E-022
  -32.2300000000000         7.120582159875347E-020
  -32.0400000000000         1.252909507467338E-019
  -31.8500000000000         1.472009973741014E-019
  -31.6600000000000         1.309011520466111E-019
  -31.4700000000000         8.121625569748507E-020
  -31.2800000000000         1.229004075633382E-020
  -31.0900000000000        -5.656998218549220E-020
  -30.9000000000000        -1.064423691038337E-019
  -30.7100000000000        -1.241467325897236E-019
  -30.5200000000000        -1.058998413203987E-019
  -30.3300000000000        -5.826695697180649E-020
  -30.1400000000000         3.832627781461221E-021
  -29.9500000000000         6.148089511747431E-020
  -29.7600000000000         9.723066734362002E-020
  -29.5700000000000         1.001317908816963E-019
  -29.3800000000000         6.888313996182557E-020
  -29.1900000000000         1.221079944310980E-020
  -29.0000000000000        -5.363568086792626E-020
  -28.8100000000000        -1.095494983693738E-019
  -28.6200000000000        -1.390543220031155E-019
  -28.4300000000000        -1.330359520235243E-019
  -28.2400000000000        -9.235566374555180E-020
  -28.0500000000000        -2.759801376507966E-020
  -27.8600000000000         4.395074495562993E-020
  -27.6700000000000         1.031898572006228E-019
  -27.4800000000000         1.345411478402878E-019
  -27.2900000000000         1.302412758497335E-019
  -27.1000000000000         9.242724054192635E-020
  -26.9100000000000         3.247318756184790E-020
  -26.7200000000000        -3.222328818862391E-020
  -26.5300000000000        -8.312622444437025E-020
  -26.3400000000000        -1.057817814728838E-019
  -26.1500000000000        -9.392401287822686E-020
  -25.9600000000000        -5.129278907196496E-020
  -25.7700000000000         9.388688556288583E-021
  -25.5800000000000         7.002571117139901E-020
  -25.3900000000000         1.123506200656489E-019
  -25.2000000000000         1.232280163485360E-019
  -25.0100000000000         9.852463049597275E-020
  -24.8200000000000         4.439199468272689E-020
  -24.6300000000000        -2.443876854784183E-020
  -24.4400000000000        -8.886313512618686E-020
  -24.2500000000000        -1.308853960494027E-019
  -24.0600000000000        -1.387873081381068E-019
  -23.8700000000000        -1.104922574892114E-019
  -23.6800000000000        -5.415655472737383E-020
  -23.4900000000000         1.418080081090660E-020
  -23.3000000000000         7.520968205193435E-020
  -23.1100000000000         1.118912580918059E-019
  -22.9200000000000         1.143368640994526E-019
  -22.7300000000000         8.262600118967191E-020
  -22.5400000000000         2.676428507395529E-020
  -22.3500000000000        -3.620264340165951E-020
  -22.1600000000000        -8.711088819050265E-020
  -21.9700000000000        -1.102605931542966E-019
  -21.7800000000000        -9.807117732900256E-020
  -21.5900000000000        -5.343343392190696E-020
  -21.4000000000000         1.099319933177714E-020
  -21.2100000000000         7.639952923732411E-020
  -21.0200000000000         1.233356104562110E-019
  -20.8300000000000         1.374853639023425E-019
  -20.6400000000000         1.139696413460515E-019
  -20.4500000000000         5.886506751735504E-020
  -20.2600000000000        -1.253156899985560E-020
  -20.0700000000000        -8.017141490575558E-020
  -19.8800000000000        -1.251106331264379E-019
  -19.6900000000000        -1.350134604190949E-019
  -19.5000000000000        -1.076900891020535E-019
  -19.3100000000000        -5.166566393429667E-020
  -19.1200000000000         1.634459043808440E-020
  -18.9300000000000         7.630247798455447E-020
  -18.7400000000000         1.106623678463229E-019
  -18.5500000000000         1.094765522307181E-019
  -18.3600000000000         7.331323892129619E-020
  -18.1700000000000         1.311846933808333E-020
  -17.9800000000000        -5.296448813408073E-020
  -17.7900000000000        -1.049125787051019E-019
  -17.6000000000000        -1.267372704385300E-019
  -17.4100000000000        -1.112609805569531E-019
  -17.2200000000000        -6.232851833909217E-020
  -17.0300000000000         6.236533267893967E-021
  -16.8400000000000         7.466114541259309E-020
  -16.6500000000000         1.230684541254287E-019
  -16.4600000000000         1.373996671680598E-019
  -16.2700000000000         1.136210211414554E-019
  -16.0800000000000         5.893591407176648E-020
  -15.8900000000000        -1.035776323187454E-020
  -15.7000000000000        -7.370466746310851E-020
  -15.5100000000000        -1.123660590795590E-019
  -15.3200000000000        -1.149256247624849E-019
  -15.1300000000000        -8.061376691279574E-020
  -14.9400000000000        -1.950698184621683E-020
  -14.7500000000000         5.041195228333754E-020
  -14.5600000000000         1.084555468722229E-019
  -14.3700000000000         1.372070008998338E-019
  -14.1800000000000         1.275818657057330E-019
  -13.9900000000000         8.153388774125227E-020
  -13.8000000000000         1.160111063023501E-020
  -13.6100000000000        -6.263222126504618E-020
  -13.4200000000000        -1.201889760001631E-019
  -13.2300000000000        -1.448418328203527E-019
  -13.0400000000000        -1.299189417127460E-019
  -12.8500000000000        -8.030979296125094E-020
  -12.6600000000000        -1.104656273261331E-020
  -12.4700000000000         5.712602626605491E-020
  -12.2800000000000         1.038728833583761E-019
  -12.0900000000000         1.152563028747937E-019
  -11.9000000000000         8.780874501589067E-020
  -11.7100000000000         2.950381155675570E-020
  -11.5200000000000        -4.261544653806637E-020
  -11.3300000000000        -1.074096139212454E-019
  -11.1400000000000        -1.457499136822129E-019
  -10.9500000000000        -1.460017835285496E-019
  -10.7600000000000        -1.073341989092833E-019
  -10.5700000000000        -3.994062992964236E-020
  -10.3800000000000         3.786518013367473E-020
  -10.1900000000000         1.048464975091293E-019
  -10.0000000000000         1.428678148938566E-019
  -9.81000000000000         1.420461126518787E-019
  -9.62000000000000         1.035683394867130E-019
  -9.42999999999999         3.936263824539312E-020
  -9.23999999999999        -3.131569892571159E-020
  -9.05000000000000        -8.744933161972988E-020
  -8.86000000000000        -1.123892299701761E-019
  -8.67000000000000        -9.874427838971953E-020
  -8.48000000000000        -5.055906452048376E-020
  -8.28999999999999         1.787667680922612E-020
  -8.09999999999999         8.622167720185011E-020
  -7.91000000000000         1.340198902352232E-019
  -7.72000000000000         1.466230782608574E-019
  -7.53000000000000         1.193835605916066E-019
  -7.34000000000000         5.895152825829803E-020
  -7.15000000000001        -1.862954912689773E-020
  -6.95999999999999        -9.244004159686847E-020
  -6.77000000000000        -1.425280695597799E-019
  -6.58000000000000        -1.554599067462545E-019
  -6.39000000000000        -1.280584280257260E-019
  -6.20000000000000        -6.830731434712531E-020
  -6.01000000000001         6.851016833710488E-021
  -5.81999999999999         7.626217278111843E-020
  -5.63000000000000         1.205571440553792E-019
  -5.44000000000000         1.276926011585953E-019
  -5.25000000000000         9.641187214125219E-020
  -5.06000000000000         3.659647868634660E-020
  -4.87000000000000        -3.361232899821664E-020
  -4.67999999999999        -9.309588449173718E-020
  -4.48999999999999        -1.239076960874051E-019
  -4.30000000000000        -1.164939708560941E-019
  -4.11000000000000        -7.246591259125046E-020
  -3.92000000000000        -4.128385407187385E-021
  -3.73000000000000         6.908312178646363E-020
  -3.53999999999999         1.262065596451199E-019
  -3.34999999999999         1.507625130630808E-019
  -3.16000000000000         1.354433456630661E-019
  -2.97000000000000         8.417115500335839E-020
  -2.78000000000000         1.096969435147528E-020
  -2.59000000000000        -6.402411030771624E-020
  -2.40000000000001        -1.202876958755610E-019
  -2.20999999999999        -1.427557875868930E-019
  -2.02000000000000        -1.261100517523202E-019
  -1.83000000000000        -7.628002389239100E-020
  -1.64000000000000        -8.699297247623986E-021
  -1.45000000000000         5.621870177823455E-020
  -1.26000000000001         9.909574601396678E-020
  -1.06999999999999         1.073255272126883E-019
 -0.879999999999995         7.880945418259777E-020
 -0.689999999999998         2.254999492513660E-020
 -0.500000000000000        -4.409281726404833E-020
 -0.310000000000002        -1.006482692090138E-019
 -0.120000000000005        -1.296786521223728E-019
  7.000000000000739E-002   -1.219630266479375E-019
  0.260000000000005        -7.919858246787337E-020
  0.450000000000003        -1.345936669909447E-020
  0.640000000000001         5.640276474537657E-020
  0.829999999999998         1.103463343205839E-019
   1.02000000000000         1.330662960287298E-019
   1.21000000000001         1.185106301521282E-019
   1.40000000000001         7.165956723945218E-020
   1.59000000000000         7.037127731557150E-021
   1.78000000000000        -5.562117450977982E-020
   1.97000000000000        -9.726831119730424E-020
   2.16000000000000        -1.052513017264962E-019
   2.34999999999999        -7.711035375692801E-020
   2.54000000000001        -2.132822038038032E-020
   2.73000000000000         4.520398534149715E-020
   2.92000000000000         1.022485657580382E-019
   3.11000000000000         1.322839137252601E-019
   3.30000000000000         1.257454222134361E-019
   3.48999999999999         8.388642661372123E-020
   3.68000000000001         1.841436452211691E-020
   3.87000000000000        -5.199283116352901E-020
   4.06000000000000        -1.072494899277649E-019
   4.25000000000000        -1.318247083369563E-019
   4.44000000000000        -1.193107409574072E-019
   4.63000000000000        -7.424797379628982E-020
   4.82000000000001        -1.069332484665566E-020
   5.01000000000001         5.201241146844265E-020
   5.20000000000000         9.499757287357610E-020
   5.39000000000000         1.054204612567170E-019
   5.58000000000000         8.021531569087868E-020
   5.77000000000000         2.695473905970865E-020
   5.96000000000001        -3.840293638049280E-020
   6.15000000000001        -9.621323305812671E-020
   6.34000000000000        -1.289084913165807E-019
   6.53000000000000        -1.261365555904767E-019