  -105.000000000000        -8.517341721987166E-020
  -104.810000000000        -1.900984591310521E-019
  -104.620000000000        -1.606332180692521E-019
  -104.430000000000        -5.253980873127334E-020
  -104.240000000000         1.004724269246565E-020
  -104.050000000000        -4.607750748498548E-020
  -103.860000000000        -1.736824624097557E-019
  -103.670000000000        -2.514312726368014E-019
  -103.480000000000        -2.014594210068326E-019
  -103.290000000000        -6.560774179087228E-020
  -103.100000000000         3.281483913322990E-020
  -102.910000000000         5.472601715617381E-021
  -102.720000000000        -1.174827067394781E-019
  -102.530000000000        -2.165764250577560E-019
  -102.340000000000        -1.969823073463589E-019
  -102.150000000000        -7.855580345889969E-020
  -101.960000000000         2.380201202483215E-020
  -101.770000000000         1.050018788859999E-020
  -101.580000000000        -1.071129449310737E-019
  -101.390000000000        -2.172327221037881E-019
  -101.200000000000        -2.142586227911989E-019
  -101.010000000000        -9.970405595166532E-020
  -100.820000000000         1.918534295899723E-020
  -100.630000000000         3.183833934079104E-020
  -100.440000000000        -7.008823106469823E-020
  -100.250000000000        -1.848609203194909E-019
  -100.060000000000        -1.980365074129829E-019
  -99.8700000000000        -9.211020439177078E-020
  -99.6800000000000         3.629782261668880E-020
  -99.4900000000000         6.833274020462162E-020
  -99.3000000000000        -2.369447406521090E-020
  -99.1100000000000        -1.497022725922151E-019
  -98.9200000000000        -1.875543755878676E-019
  -98.7300000000000        -9.936060057548875E-020
  -98.5400000000000         3.252072040075537E-020
  -98.3500000000000         8.398427987091941E-020
  -98.1600000000000         7.280305927063172E-021
  -97.9700000000000        -1.237646652246319E-019
  -97.7800000000000        -1.843407382416037E-019
  -97.5900000000000        -1.175757302513507E-019
  -97.4000000000000         1.177856865502105E-020
  -97.2100000000000         8.008598381526564E-020
  -97.0200000000000         2.382991211704278E-020
  -96.8300000000000        -9.907043372265081E-020
  -96.6400000000000        -1.643650987952909E-019
  -96.4500000000000        -1.004644945620765E-019
  -96.2600000000000         4.223010417248134E-020
  -96.0700000000000         1.379119704002243E-019
  -95.8800000000000         1.036718992402971E-019
  -95.6900000000000        -2.307380650961062E-020
  -95.5000000000000        -1.216243408381331E-019
  -95.3100000000000        -1.037554935526885E-019
  -95.1200000000000         2.688012684242732E-021
  -94.9300000000000         8.221320448105772E-020
  -94.7400000000000         4.456921222383766E-020
  -94.5500000000000        -8.628769293728677E-020
  -94.3600000000000        -1.927052577330509E-019
  -94.1700000000000        -1.742945322171126E-019
  -93.9800000000000        -4.372544671164046E-020
  -93.7900000000000         8.420893449779510E-020
  -93.6000000000000         1.002489230916815E-019
  -93.4100000000000         2.721763199997772E-021
  -93.2200000000000        -1.030430773122264E-019
  -93.0300000000000        -1.070203165190341E-019
  -92.8400000000000        -6.411604494216189E-022
  -92.6500000000000         1.145413098626910E-019
  -92.4600000000000         1.239040181934943E-019
  -92.2700000000000         9.897140000503250E-021
  -92.0800000000000        -1.299466284540402E-019
  -91.8900000000000        -1.745893669593818E-019
  -91.7000000000000        -9.348029027753651E-020
  -91.5100000000000         2.571563494197356E-020
  -91.3200000000000         6.196478221386384E-020
  -91.1300000000000        -2.289023298824367E-020
  -90.9400000000000        -1.474939314629999E-019
  -90.7500000000000        -1.888357770617167E-019
  -90.5600000000000        -1.002582674370733E-019
  -90.3700000000000         4.299707151272905E-020
  -90.1800000000000         1.142522507096779E-019
  -89.9900000000000         5.477849317186087E-020
  -89.8000000000000        -7.164522420501108E-020
  -89.6100000000000        -1.407643796815532E-019
  -89.4200000000000        -8.686115515096176E-020
  -89.2300000000000         3.503366405374746E-020
  -89.0400000000000         1.028747583824706E-019
  -88.8500000000000         4.553968574066231E-020
  -88.6600000000000        -8.801070424760362E-020
  -88.4700000000000        -1.746851280163042E-019
  -88.2800000000000        -1.346404820179096E-019
  -88.0900000000000        -7.911038057672025E-021
  -87.9000000000000         8.323218042512872E-020
  -87.7100000000000         5.057180385003142E-020
  -87.5200000000000        -7.599196574615099E-020
  -87.3300000000000        -1.767771523782220E-019
  -87.1400000000000        -1.559994818765350E-019
  -86.9500000000000        -3.245724309962028E-020
  -86.7600000000000         7.904907115996736E-020
  -86.5700000000000         7.757001372792028E-020
  -86.3800000000000        -2.795269692537278E-020
  -86.1900000000000        -1.283052387507691E-019
  -86.0000000000000        -1.199786585415423E-019
  -85.8100000000000        -5.839368862974919E-021
  -85.6200000000000         1.061937447415192E-019
  -85.4300000000000         1.055831184341659E-019
  -85.2400000000000        -1.488814009435399E-020
  -85.0500000000000        -1.508034796178240E-019
  -84.8600000000000        -1.836637028161322E-019
  -84.6700000000000        -9.172625486236064E-020
  -84.4800000000000         3.116540460451809E-020
  -84.2900000000000         6.639543208607538E-020
  -84.1000000000000        -1.590976652520699E-020
  -83.9100000000000        -1.291353966754449E-019
  -83.7200000000000        -1.545042159885266E-019
  -83.5300000000000        -5.658019205126451E-020
  -83.3400000000000         8.072332239588892E-020
  -83.1500000000000         1.324128432763206E-019
  -82.9600000000000         5.064192216463824E-020
  -82.7700000000000        -8.978873006677315E-020
  -82.5800000000000        -1.622463404070660E-019
  -82.3900000000000        -1.080410242182402E-019
  -82.2000000000000         9.053022895786809E-021
  -82.0100000000000         6.547263158921847E-020
  -81.8200000000000        -2.278397522823070E-021
  -81.6300000000000        -1.351771464564291E-019
  -81.4400000000000        -2.064062406133934E-019
  -81.2500000000000        -1.413328611034542E-019
  -81.0600000000000         1.134254377218437E-020
  -80.8700000000000         1.249017000268539E-019
  -80.6800000000000         1.131672888566675E-019
  -80.4900000000000         9.442356543449176E-021
  -80.3000000000000        -6.893914161624118E-020
  -80.1100000000000        -3.580957462894011E-020
  -79.9200000000000         7.954857431893537E-020
  -79.7300000000000         1.597881524550490E-019
  -79.5400000000000         1.124016239207518E-019
  -79.3500000000000        -3.976582227899448E-020
  -79.1600000000000        -1.771197181780606E-019
  -78.9700000000000        -1.938561416533889E-019
  -78.7800000000000        -9.556728812768128E-020
  -78.5900000000000         8.699905884121929E-021
  -78.4000000000000         1.185657693595066E-020
  -78.2100000000000        -8.928208166860980E-020
  -78.0200000000000        -1.926560883930405E-019
  -77.8300000000000        -1.908002561351115E-019
  -77.6400000000000        -7.569524963692509E-020
  -77.4500000000000         5.211840309045704E-020
  -77.2600000000000         7.914545432744765E-020
  -77.0700000000000        -1.222072270359986E-020
  -76.8800000000000        -1.261703328684762E-019
  -76.6900000000000        -1.446526252579566E-019
  -76.5000000000000        -4.045654324429392E-020
  -76.3100000000000         9.589520978310203E-020
  -76.1200000000000         1.413883277568426E-019
  -75.9300000000000         5.686381190352706E-020
  -75.7400000000000        -7.623046147429996E-020
  -75.5500000000000        -1.335841768961727E-019
  -75.3600000000000        -6.612138537339712E-020
  -75.1700000000000         5.417528971977737E-020
  -74.9800000000000         1.044103160943366E-019
  -74.7900000000000         2.976280567004002E-020
  -74.6000000000000        -1.026408747334470E-019
  -74.4100000000000        -1.667928625205678E-019
  -74.2200000000000        -9.789378760768443E-020
  -74.0300000000000         4.501223726983663E-020
  -73.8400000000000         1.337541660379980E-019
  -73.6500000000000         9.133872503990425E-020
  -73.4600000000000        -3.640785539112204E-020
  -73.2700000000000        -1.258759240185359E-019
  -73.0800000000000        -9.426432365532209E-020
  -72.8900000000000         2.148832197152373E-020
  -72.7000000000000         1.006350115593439E-019
  -72.5100000000000         5.484290840182197E-020
  -72.3200000000000        -8.636504703584984E-020
  -72.1300000000000        -2.023714854409657E-019
  -71.9400000000000        -1.947561712886978E-019
  -71.7500000000000        -7.913284546161180E-020
  -71.5600000000000         3.172943892951998E-020
  -71.3700000000000         3.686735746871554E-020
  -71.1800000000000        -5.640014992703717E-020
  -70.9900000000000        -1.409181229266403E-019
  -70.8000000000000        -1.148417526413663E-019
  -70.6100000000000         1.749603182732627E-020
  -70.4200000000000         1.460253562449835E-019
  -70.2300000000000         1.569962922725432E-019
  -70.0400000000000         3.989993967243346E-020
  -69.8500000000000        -1.024155856049951E-019
  -69.6600000000000        -1.501475862917208E-019
  -69.4700000000000        -7.780370772641205E-020
  -69.2800000000000         2.537606924936997E-020
  -69.0900000000000         4.461579983187401E-020
  -68.9000000000000        -4.764975730565804E-020
  -68.7100000000000        -1.638761783885751E-019
  -68.5200000000000        -1.852878836567740E-019
  -68.3300000000000        -7.729915901509128E-020
  -68.1400000000000         7.423555244409470E-020
  -67.9500000000000         1.413996610228901E-019
  -67.7600000000000         7.332719275097167E-020
  -67.5700000000000        -5.704261358596199E-020
  -67.3800000000000        -1.230258569157533E-019
  -67.1900000000000        -6.432963553707222E-020
  -67.0000000000000         5.699624664483679E-020
  -66.8100000000000         1.175408028085326E-019
  -66.6200000000000         5.165723534739962E-020
  -66.4300000000000        -8.515544150806863E-020
  -66.2400000000000        -1.689699840349660E-019
  -66.0500000000000        -1.257069850368091E-019
  -65.8600000000000        -1.822898045774435E-021
  -65.6700000000000         8.030480369054155E-020
  -65.4800000000000         3.972991154210361E-020
  -65.2900000000000        -8.524652352168027E-020
  -65.1000000000000        -1.733407544159941E-019
  -64.9100000000000        -1.360969911857026E-019
  -64.7200000000000        -2.688345099062652E-021
  -64.5300000000000         1.072722636140018E-019
  -64.3400000000000         9.708265467207260E-020
  -64.1500000000000        -1.558537880322754E-020
  -63.9600000000000        -1.163782129756520E-019
  -63.7700000000000        -1.041952439530857E-019
  -63.5800000000000         1.174186342536160E-020
  -63.3900000000000         1.205116534178390E-019
  -63.2000000000000         1.155198006334491E-019
  -63.0100000000000        -3.453373915639361E-021
  -62.8200000000000        -1.296684627403556E-019
  -62.6300000000000        -1.508685921297028E-019
  -62.4400000000000        -5.593453959304805E-020
  -62.2500000000000         5.513475503772930E-020
  -62.0600000000000         6.764131048212397E-020
  -61.8700000000000        -3.697395687490746E-020
  -61.6800000000000        -1.619264972745680E-019
  -61.4900000000000        -1.862691279118981E-019
  -61.3000000000000        -7.986812881603024E-020
  -61.1100000000000         6.715580922548083E-020
  -60.9200000000000         1.284500234972361E-019
  -60.7300000000000         5.905679396371946E-020
  -60.5400000000000        -6.486181531319952E-020
  -60.3500000000000        -1.212760724836540E-019
  -60.1600000000000        -5.997747297189297E-020
  -59.9700000000000         5.009730069760042E-020
  -59.7800000000000         8.903891224712807E-020
  -59.5900000000000         3.896750127307726E-021
  -59.4000000000000        -1.371520407827549E-019
  -59.2100000000000        -2.069096429527970E-019
  -59.0200000000000        -1.388240260882775E-019
  -58.8300000000000         9.661349577255185E-021
  -58.6400000000000         1.105314176287354E-019
  -58.4500000000000         8.475784038452287E-020
  -58.2600000000000        -2.558930129676871E-020
  -58.0700000000000        -1.008795111337126E-019
  -57.8800000000000        -6.080790726094676E-020
  -57.6900000000000         5.760047394411822E-020
  -57.5000000000000         1.355487035883339E-019
  -57.3100000000000         8.739074432669720E-020
  -57.1200000000000        -5.527223118082344E-020
  -56.9300000000000        -1.711901475805271E-019
  -56.7400000000000        -1.630300348682969E-019
  -56.5500000000000        -4.886944746569826E-020
  -56.3600000000000         5.580047642231567E-020
  -56.1700000000000         4.867813131260781E-020
  -55.9800000000000        -6.154976707474244E-020
  -55.7900000000000        -1.635553098901025E-019
  -55.6000000000000        -1.499405820563033E-019
  -55.4100000000000        -2.044979205061645E-020
  -55.2200000000000         1.165137410537660E-019
  -55.0300000000000         1.455459490339918E-019
  -54.8400000000000         5.236819996044724E-020
  -54.6500000000000        -6.437413368285989E-020
  -54.4600000000000        -8.854308236570609E-020
  -54.2700000000000         2.225326184982057E-021
  -54.0800000000000         1.157203751870560E-019
  -53.8900000000000         1.343889142575207E-019
  -53.7000000000000         2.894567913063380E-020
  -53.5100000000000        -1.124024482221215E-019
  -53.3200000000000        -1.671366347100668E-019
  -53.1300000000000        -9.469383877397084E-020
  -52.9400000000000         2.515889011373961E-020
  -52.7500000000000         6.863583273390461E-020
  -52.5600000000000        -1.373178082563459E-020
  -52.3700000000000        -1.496170008352189E-019
  -52.1800000000000        -2.135129702070731E-019
  -51.9900000000000        -1.458300189513336E-019
  -51.8000000000000        -8.872555471803093E-021
  -51.6100000000000         7.335700047088174E-020
  -51.4200000000000         3.360941917447098E-020
  -51.2300000000000        -7.530597743479896E-020
  -51.0400000000000        -1.329254818911935E-019
  -50.8500000000000        -6.897947038270861E-020
  -50.6600000000000         6.656253699593825E-020
  -50.4700000000000         1.490755519663632E-019
  -50.2800000000000         9.763093485251067E-020
  -50.0900000000000        -4.670226776448167E-020
  -49.9000000000000        -1.575888281403730E-019
  -49.7100000000000        -1.407373528985025E-019
  -49.5200000000000        -2.071085514654072E-020
  -49.3300000000000         8.479202302007581E-020
  -49.1400000000000         7.818835210008873E-020
  -48.9500000000000        -2.539332028421386E-020
  -48.7600000000000        -1.143850338440314E-019
  -48.5700000000000        -8.991542475303041E-020
  -48.3800000000000         3.703604642338514E-020
  -48.1900000000000         1.537674144506980E-019
  -48.0000000000000         1.518379690737004E-019
  -47.8100000000000         2.996515837136618E-020
  -47.6200000000000        -1.042901569745192E-019
  -47.4300000000000        -1.358536458753689E-019
  -47.2400000000000        -5.015389082808927E-020
  -47.0500000000000         5.494292829761164E-020
  -46.8600000000000         6.441422212351870E-020
  -46.6700000000000        -4.264305373881483E-020
  -46.4800000000000        -1.721103650024101E-019
  -46.2900000000000        -2.041609416195793E-019
  -46.1000000000000        -1.073560241690108E-019
  -45.9100000000000         3.138254018498236E-020
  -45.7200000000000         8.940195235144491E-020
  -45.5300000000000         2.456194910803569E-020
  -45.3400000000000        -8.595971169897742E-020
  -45.1500000000000        -1.213217122748204E-019
  -44.9600000000000        -3.457954550557309E-020
  -44.7700000000000         1.006489218666314E-019
  -44.5800000000000         1.594166381005597E-019
  -44.3900000000000         8.465311456153693E-020
  -44.2000000000000        -5.747727574466144E-020
  -44.0100000000000        -1.391274322310789E-019
  -43.8200000000000        -9.095943418767186E-020
  -43.6300000000000         3.320390441564756E-020
  -43.4400000000000         1.086797242126016E-019
  -43.2500000000000         5.921377928107657E-020
  -43.0600000000000        -7.053255847939064E-020
  -42.8700000000000        -1.582549936299368E-019
  -42.6800000000000        -1.213246892541477E-019
  -42.4900000000000         4.155945421341380E-021
  -42.3000000000000         9.804465887816568E-020
  -42.1100000000000         7.131484748426116E-020
  -41.9200000000000        -4.846857261600318E-020
  -41.7300000000000        -1.432475108783174E-019
  -41.5400000000000        -1.175204211097582E-019
  -41.3500000000000         9.541899516095998E-021
  -41.1600000000000         1.210781911272376E-019
  -40.9700000000000         1.126592428466279E-019
  -40.7800000000000        -9.325736264212023E-021
  -40.5900000000000        -1.345533427040770E-019
  -40.4000000000000        -1.539368025120394E-019
  -40.2100000000000        -6.254337407842781E-020
  -40.0200000000000         3.780890806420552E-020
  -39.8300000000000         3.837427444824432E-020
  -39.6400000000000        -7.015031733108002E-020
  -39.4500000000000        -1.869597918213495E-019
  -39.2600000000000        -1.968477865699765E-019
  -39.0700000000000        -8.091860496528525E-020
  -38.8800000000000         6.373901112268429E-020
  -38.6900000000000         1.146767142275325E-019
  -38.5000000000000         3.903242404625239E-020
  -38.3100000000000        -7.649991108677448E-020
  -38.1200000000000        -1.092220348809340E-019
  -37.9300000000000        -1.800174274013685E-020
  -37.7400000000000         1.171500024311089E-019
  -37.5500000000000         1.712386451396854E-019
  -37.3600000000000         9.349696401484500E-020
  -37.1700000000000        -4.409897287329364E-020
  -36.9800000000000        -1.151632318344226E-019
  -36.7900000000000        -5.874830545913604E-020
  -36.6000000000000         6.354192926508277E-020
  -36.4100000000000         1.274088025756835E-019
  -36.2200000000000         6.537839255420326E-020
  -36.0300000000000        -6.817614926674574E-020
  -35.8400000000000        -1.486430630541658E-019
  -35.6500000000000        -1.001362824985196E-019
  -35.4600000000000         3.182298999912786E-020
  -35.2700000000000         1.232459508127513E-019
  -35.0800000000000         8.912017165914457E-020
  -34.8900000000000        -3.664127361352761E-020
  -34.7000000000000        -1.346270726131380E-019
  -34.5100000000000        -1.143712422465339E-019
  -34.3200000000000        -3.534064457030876E-022
  -34.1300000000000         9.249352115660038E-020
  -33.9400000000000         7.003424698755668E-020
  -33.7500000000000        -4.990879682084938E-020
  -33.5600000000000        -1.540853449017788E-019
  -33.3700000000000        -1.423383238283254E-019
  -33.1800000000000        -2.414190507246069E-020
  -32.9900000000000         8.949258201849123E-020
  -32.8000000000000         9.141653338376172E-020
  -32.6100000000000        -1.937150914273012E-020
  -32.4200000000000        -1.363638004454566E-019
  -32.2300000000000        -1.468365828066094E-019
  -32.0400000000000        -3.939924469845940E-020
  -31.8500000000000         8.490455475394071E-020
  -31.6600000000000         1.086837108195884E-019
  -31.4700000000000         9.817065137439193E-021
  -31.2800000000000        -1.178669521302438E-019
  -31.0900000000000        -1.544773522680079E-019
  -30.9000000000000        -6.868719979111692E-020
  -30.7100000000000         5.233522467165412E-020
  -30.5200000000000         8.645755119277495E-020
  -30.3300000000000        -5.912999836356434E-021
  -30.1400000000000        -1.425334108153084E-019
  -29.9500000000000        -1.960594933174492E-019
  -29.7600000000000        -1.140080698408619E-019
  -29.5700000000000         3.205015956392289E-020
  -29.3800000000000         1.145645769660563E-019
  -29.1900000000000         7.029474002968877E-020
  -29.0000000000000        -4.155609379718670E-020
  -28.8100000000000        -9.821115414205554E-020
  -28.6200000000000        -3.250392367233342E-020
  -28.4300000000000         1.017017630046027E-019
  -28.2400000000000         1.804097560915095E-019
  -28.0500000000000         1.279254653613421E-019
  -27.8600000000000        -1.056874499721206E-020
  -27.6700000000000        -1.116974892522648E-019
  -27.4800000000000        -9.095261391846535E-020
  -27.2900000000000         1.771724917962861E-020
  -27.1000000000000         9.569917606815228E-020
  -26.9100000000000         5.449075304442285E-020
  -26.7200000000000        -7.832886926286851E-020
  -26.5300000000000        -1.843055110801497E-019
  -26.3400000000000        -1.666039343063570E-019
  -26.1500000000000        -4.230811107384894E-020
  -25.9600000000000         7.371221413640411E-020
  -25.7700000000000         7.792771891378119E-020
  -25.5800000000000        -2.396255337825588E-020
  -25.3900000000000        -1.237451638699163E-019
  -25.2000000000000        -1.154776405858680E-019
  -25.0100000000000         1.818223419512433E-021
  -24.8200000000000         1.218957297365353E-019
  -24.6300000000000         1.320347085535545E-019
  -24.4400000000000         2.083107187077407E-020
  -24.2500000000000        -1.099931831885602E-019
  -24.0600000000000        -1.412892345988358E-019
  -23.8700000000000        -4.864790722640174E-020
  -23.6800000000000         7.563483243265321E-020
  -23.4900000000000         1.114333796030249E-019
  -23.3000000000000         2.562998639896475E-020
  -23.1100000000000        -9.656198600232984E-020
  -22.9200000000000        -1.335554111079678E-019
  -22.7300000000000        -4.423262236770210E-020
  -22.5400000000000         9.206728812348862E-020
  -22.3500000000000         1.506290019685267E-019
  -22.1600000000000         7.966456662876680E-020
  -21.9700000000000        -5.116951636758919E-020
  -21.7800000000000        -1.181558526575882E-019
  -21.5900000000000        -6.220504266809962E-020
  -21.4000000000000         5.461894117729666E-020
  -21.2100000000000         1.088242915699512E-019
  -21.0200000000000         3.450527787623688E-020
  -20.8300000000000        -1.121498924168904E-019
  -20.6400000000000        -2.047620074549386E-019
  -20.4500000000000        -1.657419382321594E-019
  -20.2600000000000        -3.889086335997871E-020
  -20.0700000000000         5.348189931868193E-020
  -19.8800000000000         2.776410322463771E-020
  -19.6900000000000        -8.141686373437837E-020
  -19.5000000000000        -1.552975529516202E-019
  -19.3100000000000        -1.062054240248191E-019
  -19.1200000000000         3.630979588409590E-020
  -18.9300000000000         1.512245958996684E-019
  -18.7400000000000         1.396626356467310E-019
  -18.5500000000000         1.822361338163452E-020
  -18.3600000000000        -9.697942013194442E-020
  -18.1700000000000        -1.003927767140603E-019
  -17.9800000000000         3.555587674442552E-021
  -17.7900000000000         1.061214498957275E-019
  -17.6000000000000         9.929569562502216E-020
  -17.4100000000000        -2.006270652195548E-020
  -17.2200000000000        -1.463554834255687E-019
  -17.0300000000000        -1.652583101108089E-019
  -16.8400000000000        -6.205441307561120E-020
  -16.6500000000000         6.506161108943494E-020
  -16.4600000000000         9.908584831457446E-020
  -16.2700000000000         1.558355985354797E-020
  -16.0800000000000        -9.496797731162013E-020
  -15.8900000000000        -1.150040090281725E-019
  -15.7000000000000        -1.384432947798573E-020
  -15.5100000000000         1.212184785361042E-019
  -15.3200000000000         1.667021644563567E-019
  -15.1300000000000         7.970648017172536E-020
  -14.9400000000000        -6.176031745166448E-020
  -14.7500000000000        -1.332572690429142E-019
  -14.5600000000000        -8.181933843095203E-020
  -14.3700000000000         2.536121411901026E-020
  -14.1800000000000         6.772194637376567E-020
  -13.9900000000000        -1.062024892890383E-020
  -13.8000000000000        -1.448463304035972E-019
  -13.6100000000000        -2.095843905004232E-019
  -13.4200000000000        -1.382161429155273E-019
  -13.2300000000000         1.266405322363360E-020
  -13.0400000000000         1.155865451184127E-019
  -12.8500000000000         9.175334380017052E-020
  -12.6600000000000        -1.600601214233378E-020
  -12.4700000000000        -8.619346464567851E-020
  -12.2800000000000        -3.635425617987105E-020
  -12.0900000000000         9.677074116951437E-020
  -11.9000000000000         1.911866380189688E-019
  -11.7100000000000         1.555152764837597E-019
  -11.5200000000000         1.639454616500023E-020
  -11.3300000000000        -1.060132263022624E-019
  -11.1400000000000        -1.111152132771629E-019
  -10.9500000000000        -1.181031524396130E-020
  -10.7600000000000         8.003866563564838E-020
  -10.5700000000000         6.228952855311040E-020
  -10.3800000000000        -5.859581701503443E-020
  -10.1900000000000        -1.729073435294372E-019
  -10.0000000000000        -1.722483935078130E-019
  -9.81000000000000        -5.352900377246694E-020
  -9.62000000000000         7.700592489020256E-020
  -9.42999999999999         1.037048908497262E-019
  -9.23999999999999         1.007921944034298E-020
  -9.05000000000000        -1.073823037847302E-019
  -8.86000000000000        -1.328214736661729E-019
  -8.67000000000000        -4.222825315934470E-020
  -8.48000000000000         7.398620895834773E-020
  -8.28999999999999         9.841464636959410E-020
  -8.09999999999999         2.877124860860058E-022
  -7.91000000000000        -1.336182280201142E-019
  -7.72000000000000        -1.807140072201258E-019
  -7.53000000000000        -9.902986192264877E-020
  -7.34000000000000         3.298075172571025E-020
  -7.15000000000001         9.140097552402026E-020
  -6.95999999999999         2.506287556655829E-020
  -6.77000000000000        -9.576614434952816E-020
  -6.58000000000000        -1.467102218031822E-019
  -6.39000000000000        -6.853880691051282E-020
  -6.20000000000000         7.537432115871655E-020
  -6.01000000000001         1.583845752136967E-019
  -5.81999999999999         1.102724326237634E-019
  -5.63000000000000        -1.688340791132022E-020
  -5.44000000000000        -9.942786527338372E-020
  -5.25000000000000        -6.076097704802640E-020
  -5.06000000000000         5.558235043870472E-020
  -4.87000000000000         1.281984507194473E-019
  -4.67999999999999         7.505999009326733E-020
  -4.48999999999999        -6.624484192400941E-020
  -4.30000000000000        -1.721537969393464E-019
  -4.11000000000000        -1.489778220806460E-019
  -3.92000000000000        -2.073229235248875E-020
  -3.73000000000000         9.460011321866814E-020
  -3.53999999999999         9.741551180372208E-020
  -3.34999999999999         1.078376500527913E-022
  -3.16000000000000        -8.706661894722164E-020
  -2.97000000000000        -6.383030294869065E-020
  -2.78000000000000         6.195861197087544E-020
  -2.59000000000000         1.798874992099186E-019
  -2.40000000000001         1.813058259857510E-019
  -2.20999999999999         6.288731873247617E-020
  -2.02000000000000        -6.964744589667641E-020
  -1.83000000000000        -1.014584589112008E-019
  -1.64000000000000        -1.687999174668437E-020
  -1.45000000000000         8.718710477364742E-020
  -1.26000000000001         9.538932393821447E-020
  -1.06999999999999        -1.441099114258581E-020
 -0.879999999999995        -1.485916616860139E-019
 -0.689999999999998        -1.860940338048526E-019
 -0.500000000000000        -9.355031444999448E-020
 -0.310000000000002         4.264796766727166E-020
 -0.120000000000005         9.804372491733066E-020
  7.000000000000739E-002    2.762577960831841E-020
  0.260000000000005        -9.287847360608758E-020
  0.450000000000003        -1.409519480578407E-019
  0.640000000000001        -6.548826157607164E-020
  0.829999999999998         6.372567983260745E-020
   1.02000000000000         1.224910017663805E-019
   1.21000000000001         5.122908696586970E-020
   1.40000000000001        -8.711661682036753E-020
   1.59000000000000        -1.658227435677557E-019
   1.78000000000000        -1.139478686119376E-019
   1.97000000000000         1.720305229615835E-020
   2.16000000000000         1.038311578456533E-019
   2.34999999999999         6.779711288090418E-020
   2.54000000000001        -4.960761194839443E-020
   2.73000000000000        -1.283601659306416E-019
   2.92000000000000        -8.563322533077029E-020
   3.11000000000000         4.408864207607879E-020
   3.30000000000000         1.415264852191598E-019
   3.48999999999999         1.167528447816850E-019
   3.68000000000001        -4.431039340573475E-021
   3.87000000000000        -1.048670771975322E-019
   4.06000000000000        -8.807135249083733E-020
   4.25000000000000         2.915052046939063E-020
   4.44000000000000         1.321382286395404E-019
   4.63000000000000         1.174456131999795E-019
   4.82000000000001        -8.237234772204231E-021
   5.01000000000001        -1.336671445204127E-019
   5.20000000000000        -1.480323982970960E-019
   5.39000000000000        -4.535732041093765E-020
   5.58000000000000         7.117616807206298E-020
   5.77000000000000         8.886309534114131E-020
   5.96000000000001        -6.335922762848916E-021
   6.15000000000001        -1.164521665480605E-019
   6.34000000000000        -1.257811830425131E-019
   6.53000000000000        -1.286334101181633E-020