  -105.000000000000        -1.598012448180535E-020
  -104.810000000000        -4.406411389721715E-020
  -104.620000000000        -6.182227854481138E-020
  -104.430000000000        -6.591525862628559E-020
  -104.240000000000        -5.681970833317692E-020
  -104.050000000000        -3.865276878502585E-020
  -103.860000000000        -1.794912391515292E-020
  -103.670000000000        -1.746307185318049E-021
  -103.480000000000         4.464970812126836E-021
  -103.290000000000        -1.670131328472737E-021
  -103.100000000000        -1.870265129611072E-020
  -102.910000000000        -4.182426862842428E-020
  -102.720000000000        -6.429154383433025E-020
  -102.530000000000        -7.941364403309333E-020
  -102.340000000000        -8.252536206046157E-020
  -102.150000000000        -7.237264811765649E-020
  -101.960000000000        -5.150810154646210E-020
  -101.770000000000        -2.558002435865144E-020
  -101.580000000000        -1.719001069295759E-021
  -101.390000000000         1.351152792309496E-020
  -101.200000000000         1.600604947460290E-020
  -101.010000000000         5.299052075401709E-021
  -100.820000000000        -1.530608965482248E-020
  -100.630000000000        -3.969900184281812E-020
  -100.440000000000        -6.073469856128070E-020
  -100.250000000000        -7.230100271927949E-020
  -100.060000000000        -7.108138337183469E-020
  -99.8700000000000        -5.750372738926190E-020
  -99.6800000000000        -3.560242279089185E-020
  -99.4900000000000        -1.183553262867400E-020
  -99.3000000000000         6.799570142359931E-021
  -99.1100000000000         1.480600371640493E-020
  -98.9200000000000         9.790814275017630E-021
  -98.7300000000000        -6.834258714219617E-021
  -98.5400000000000        -3.025922134084600E-020
  -98.3500000000000        -5.367147220988396E-020
  -98.1600000000000        -7.023407018428167E-020
  -97.9700000000000        -7.507053141050881E-020
  -97.7800000000000        -6.667917857527852E-020
  -97.5900000000000        -4.736718036365789E-020
  -97.4000000000000        -2.257980798117018E-020
  -97.2100000000000         6.793064036340869E-022
  -97.0200000000000         1.587842912450248E-020
  -96.8300000000000         1.885001896431684E-020
  -96.6400000000000         8.996383876156482E-021
  -96.4500000000000        -1.054143680318494E-020
  -96.2600000000000        -3.380112718647018E-020
  -96.0700000000000        -5.373662680016678E-020
  -95.8800000000000        -6.427045666846362E-020
  -95.6900000000000        -6.206358434776018E-020
  -95.5000000000000        -4.748808026615540E-020
  -95.3100000000000        -2.452070876936453E-020
  -95.1200000000000         4.099633837680269E-022
  -94.9300000000000         2.028692624844457E-020
  -94.7400000000000         2.953803955701627E-020
  -94.5500000000000         2.565094795268367E-020
  -94.3600000000000         9.902530017733093E-021
  -94.1700000000000        -1.300876601895941E-020
  -93.9800000000000        -3.632241751927907E-020
  -93.7900000000000        -5.317419266299590E-020
  -93.6000000000000        -5.858565054051275E-020
  -93.4100000000000        -5.090715470285601E-020
  -93.2200000000000        -3.229561927099962E-020
  -93.0300000000000        -8.089227752110691E-021
  -92.8400000000000         1.473837464549586E-020
  -92.6500000000000         2.959603147312603E-020
  -92.4600000000000         3.218161384868716E-020
  -92.2700000000000         2.172696943955928E-020
  -92.0800000000000         1.222634923682756E-021
  -91.8900000000000        -2.344200184279484E-020
  -91.7000000000000        -4.517484647464886E-020
  -91.5100000000000        -5.772406631187029E-020
  -91.3200000000000        -5.747761786048543E-020
  -91.1300000000000        -4.449828875642466E-020
  -90.9400000000000        -2.249374304999200E-020
  -90.7500000000000         2.269912646646032E-021
  -90.5600000000000         2.279490668437900E-020
  -90.3700000000000         3.338720606937828E-020
  -90.1800000000000         3.130888158030133E-020
  -89.9900000000000         1.756835570440939E-020
  -89.8000000000000        -3.379811387261636E-021
  -89.6100000000000        -2.493883802850703E-020
  -89.4200000000000        -4.030129797623914E-020
  -89.2300000000000        -4.445031543825988E-020
  -89.0400000000000        -3.564951923032107E-020
  -88.8500000000000        -1.598569417350370E-020
  -88.6600000000000         9.199008169312798E-021
  -88.4700000000000         3.282578328241713E-020
  -88.2800000000000         4.811156422806757E-020
  -88.0900000000000         5.052688492627326E-020
  -87.9000000000000         3.911114782134830E-020
  -87.7100000000000         1.676259887293301E-020
  -87.5200000000000        -1.058289130970716E-020
  -87.3300000000000        -3.564792814617971E-020
  -87.1400000000000        -5.189410532091793E-020
  -86.9500000000000        -5.538436557557007E-020
  -86.7600000000000        -4.588745260817841E-020
  -86.5700000000000        -2.690422428216633E-020
  -86.3800000000000        -4.608337539910676E-021
  -86.1900000000000         1.399014817841420E-020
  -86.0000000000000         2.312152987387676E-020
  -85.8100000000000         1.996415535296506E-020
  -85.6200000000000         5.480302434244252E-021
  -85.4300000000000        -1.586614978323081E-020
  -85.2400000000000        -3.742707576022677E-020
  -85.0500000000000        -5.233548746803034E-020
  -84.8600000000000        -5.554329577769950E-020
  -84.6700000000000        -4.533554139066004E-020
  -84.4800000000000        -2.387731798327427E-020
  -84.2900000000000         3.370010154375635E-021
  -84.1000000000000         2.919778827375661E-020
  -83.9100000000000         4.671581620168765E-020
  -83.7200000000000         5.133299245045678E-020
  -83.5300000000000         4.207413907813222E-020
  -83.3400000000000         2.184825594992301E-020
  -83.1500000000000        -3.409509523100474E-021
  -82.9600000000000        -2.647077505358963E-020
  -82.7700000000000        -4.091527045297308E-020
  -82.5800000000000        -4.298726917928886E-020
  -82.3900000000000        -3.266643747954141E-020
  -82.2000000000000        -1.364350188706747E-020
  -82.0100000000000         7.788081322371217E-021
  -81.8200000000000         2.459779028672400E-020
  -81.6300000000000         3.109593067797111E-020
  -81.4400000000000         2.461902019360300E-020
  -81.2500000000000         6.332940488097543E-021
  -81.0600000000000        -1.907940377640681E-020
  -80.8700000000000        -4.475460952333067E-020
  -80.6800000000000        -6.361976778763956E-020
  -80.4900000000000        -7.042444882597279E-020
  -80.3000000000000        -6.324582267034713E-020
  -80.1100000000000        -4.403636130656592E-020
  -79.9200000000000        -1.806269228049167E-020
  -79.7300000000000         7.597980477819959E-021
  -79.5400000000000         2.607056512809681E-020
  -79.3500000000000         3.262753117081828E-020
  -79.1600000000000         2.601111002452125E-020
  -78.9700000000000         8.755336281453631E-021
  -78.7800000000000        -1.358109216396013E-020
  -78.5900000000000        -3.404637748724516E-020
  -78.4000000000000        -4.631857829667007E-020
  -78.2100000000000        -4.653619587807820E-020
  -78.0200000000000        -3.441073191479116E-020
  -77.8300000000000        -1.330465213897031E-020
  -77.6400000000000         1.074276098064114E-020
  -77.4500000000000         3.075681816462877E-020
  -77.2600000000000         4.083316095996810E-020
  -77.0700000000000         3.783354860724162E-020
  -76.8800000000000         2.229084573920340E-020
  -76.6900000000000        -1.729909479356651E-021
  -76.5000000000000        -2.777201632671689E-020
  -76.3100000000000        -4.880543287460250E-020
  -76.1200000000000        -5.920817402151833E-020
  -75.9300000000000        -5.634886721247684E-020
  -75.7400000000000        -4.132047476340535E-020
  -75.5500000000000        -1.861627262238256E-020
  -75.3600000000000         5.159297562831206E-021
  -75.1700000000000         2.317728007121133E-020
  -74.9800000000000         3.033078219131327E-020
  -74.7900000000000         2.468638133966608E-020
  -74.6000000000000         8.024650543895788E-021
  -74.4100000000000        -1.468775305966181E-020
  -74.2200000000000        -3.674602159628835E-020
  -74.0300000000000        -5.165965636819759E-020
  -73.8400000000000        -5.504470425560330E-020
  -73.6500000000000        -4.590565326932494E-020
  -73.4600000000000        -2.693234876129679E-020
  -73.2700000000000        -3.722340274162003E-021
  -73.0800000000000         1.684926948456615E-020
  -72.8900000000000         2.864227752383825E-020
  -72.7000000000000         2.806323393128893E-020
  -72.5100000000000         1.514929671843803E-020
  -72.3200000000000        -6.395735982591982E-021
  -72.1300000000000        -3.023316177082821E-020
  -71.9400000000000        -4.920182053014333E-020
  -71.7500000000000        -5.739643433067455E-020
  -71.5600000000000        -5.191305029751549E-020
  -71.3700000000000        -3.374876190649573E-020
  -71.1800000000000        -7.579124410526207E-021
  -70.9900000000000         1.953971753275837E-020
  -70.8000000000000         4.017871956269682E-020
  -70.6100000000000         4.867143025938740E-020
  -70.4200000000000         4.274993794770334E-020
  -70.2300000000000         2.419662951648897E-020
  -70.0400000000000        -1.684025409311468E-021
  -69.8500000000000        -2.762092921531169E-020
  -69.6600000000000        -4.650208960349000E-020
  -69.4700000000000        -5.344423028783967E-020
  -69.2800000000000        -4.719557385215300E-020
  -69.0900000000000        -3.045741698662029E-020
  -68.9000000000000        -9.029431594566246E-021
  -68.7100000000000         9.967828546482639E-021
  -68.5200000000000         2.026476276849395E-020
  -68.3300000000000         1.836089604657153E-020
  -68.1400000000000         4.613697827473065E-021
  -67.9500000000000        -1.683354806614639E-020
  -67.7600000000000        -3.927167267903818E-020
  -67.5700000000000        -5.543674705897796E-020
  -67.3800000000000        -5.971638305198494E-020
  -67.1900000000000        -4.989194733472144E-020
  -67.0000000000000        -2.788990504564887E-020
  -66.8100000000000         6.943702487769278E-022
  -66.6200000000000         2.817332802257306E-020
  -66.4300000000000         4.698717912145948E-020
  -66.2400000000000         5.191224523434299E-020
  -66.0500000000000         4.160028902596281E-020
  -65.8600000000000         1.898706469232292E-020
  -65.6700000000000        -9.555386399660272E-021
  -65.4800000000000        -3.607301794089404E-020
  -65.2900000000000        -5.334123055719902E-020
  -65.1000000000000        -5.695050865572089E-020
  -64.9100000000000        -4.655447147981987E-020
  -64.7200000000000        -2.592029901686392E-020
  -64.5300000000000        -1.776195178983304E-021
  -64.3400000000000         1.819764712912266E-020
  -64.1500000000000         2.764165911159624E-020
  -63.9600000000000         2.338863415549459E-020
  -63.7700000000000         6.391569626510181E-021
  -63.5800000000000        -1.855773526112726E-020
  -63.3900000000000        -4.423121696200846E-020
  -63.2000000000000        -6.307341231310176E-020
  -63.0100000000000        -6.939778349223386E-020
  -62.8200000000000        -6.103016189125748E-020
  -62.6300000000000        -3.992497969279065E-020
  -62.4400000000000        -1.158259399639932E-020
  -62.2500000000000         1.655444477929754E-020
  -62.0600000000000         3.725338304863677E-020
  -61.8700000000000         4.556284052359590E-020
  -61.6800000000000         4.020257634335081E-020
  -61.4900000000000         2.387209905788753E-020
  -61.3000000000000         2.396785465183043E-021
  -61.1100000000000        -1.702929172496128E-020
  -60.9200000000000        -2.798266857891420E-020
  -60.7300000000000        -2.670481872726948E-020
  -60.5400000000000        -1.320372369248529E-020
  -60.3500000000000         8.747435078654186E-021
  -60.1600000000000         3.270163597449417E-020
  -59.9700000000000         5.139433490971386E-020
  -59.7800000000000         5.882770054311063E-020
  -59.5900000000000         5.199080035306034E-020
  -59.4000000000000         3.173504603136644E-020
  -59.2100000000000         2.565204906780950E-021
  -59.0200000000000        -2.859109047313131E-020
  -58.8300000000000        -5.428926986760802E-020
  -58.6400000000000        -6.861484561930932E-020
  -58.4500000000000        -6.879583702025965E-020
  -58.2600000000000        -5.592517888371003E-020
  -58.0700000000000        -3.458976727146159E-020
  -57.8800000000000        -1.151661698192565E-020
  -57.6900000000000         6.369822366034911E-021
  -57.5000000000000         1.391685388031585E-020
  -57.3100000000000         9.173769466779430E-021
  -57.1200000000000        -6.120819492777568E-021
  -56.9300000000000        -2.712159259738824E-020
  -56.7400000000000        -4.734593719604364E-020
  -56.5500000000000        -6.059429351148239E-020
  -56.3600000000000        -6.276238593896414E-020
  -56.1700000000000        -5.302526976966988E-020
  -55.9800000000000        -3.405935543336622E-020
  -55.7900000000000        -1.124632789979478E-020
  -55.6000000000000         8.907251886855999E-021
  -55.4100000000000         2.067944752499140E-020
  -55.2200000000000         2.082337390249297E-020
  -55.0300000000000         9.550578592550828E-021
  -54.8400000000000        -9.483126887814325E-021
  -54.6500000000000        -3.019788941695649E-020
  -54.4600000000000        -4.583530014606447E-020
  -54.2700000000000        -5.093361834102285E-020
  -54.0800000000000        -4.296070308853784E-020
  -53.8900000000000        -2.312116305004261E-020
  -53.7000000000000         3.912038370323682E-021
  -53.5100000000000         3.127710489013624E-020
  -53.3200000000000         5.184861554790049E-020
  -53.1300000000000         6.024873173327426E-020
  -52.9400000000000         5.435877110910727E-020
  -52.7500000000000         3.589562880752384E-020
  -52.5600000000000         9.895364019884686E-021
  -52.3700000000000        -1.673506576230427E-020
  -52.1800000000000        -3.717272141202655E-020
  -51.9900000000000        -4.657859160113673E-020
  -51.8000000000000        -4.340486474790730E-020
  -51.6100000000000        -2.974494526634939E-020
  -51.4200000000000        -1.063449350976727E-020
  -51.2300000000000         7.489798070366296E-021
  -51.0400000000000         1.872520519948213E-020
  -50.8500000000000         1.946714910282140E-020
  -50.6600000000000         9.483697857436132E-021
  -50.4700000000000        -8.019865599884249E-021
  -50.2800000000000        -2.737008934376673E-020
  -50.0900000000000        -4.214402670830680E-020
  -49.9000000000000        -4.712759020674512E-020
  -49.7100000000000        -3.992869827928409E-020
  -49.5200000000000        -2.176043910975072E-020
  -49.3300000000000         2.844494862851512E-021
  -49.1400000000000         2.730899726034976E-020
  -48.9500000000000         4.490367873662775E-020
  -48.7600000000000         5.070139169827925E-020
  -48.5700000000000         4.302173929315185E-020
  -48.3800000000000         2.394271397931754E-020
  -48.1900000000000        -1.271309865795482E-021
  -48.0000000000000        -2.566147951883711E-020
  -47.8100000000000        -4.255740747163210E-020
  -47.6200000000000        -4.748264022423502E-020
  -47.4300000000000        -3.943795962470872E-020
  -47.2400000000000        -2.119573938456185E-020
  -47.0500000000000         1.481462004214069E-021
  -46.8600000000000         2.148140069425147E-020
  -46.6700000000000         3.238104762030584E-020
  -46.4800000000000         3.030544372533264E-020
  -46.2900000000000         1.507168757199810E-020
  -46.1000000000000        -9.718664836971522E-021
  -45.9100000000000        -3.767484302166738E-020
  -45.7200000000000        -6.141894703903579E-020
  -45.5300000000000        -7.467618146079333E-020
  -45.3400000000000        -7.404823526258057E-020
  -45.1500000000000        -5.995667022408788E-020
  -44.9600000000000        -3.648588283175355E-020
  -44.7700000000000        -1.017627945385488E-020
  -44.5800000000000         1.187729151186459E-020
  -44.3900000000000         2.406768867605027E-020
  -44.2000000000000         2.386669208215090E-020
  -44.0100000000000         1.250727356420142E-020
  -43.8200000000000        -5.436735184624110E-021
  -43.6300000000000        -2.344882773768814E-020
  -43.4400000000000        -3.503923226009274E-020
  -43.2500000000000        -3.571262446276614E-020
  -43.0600000000000        -2.435794376526264E-020
  -42.8700000000000        -3.647085799664163E-021
  -42.6800000000000         2.068577644012445E-020
  -42.4900000000000         4.148697135095000E-020
  -42.3000000000000         5.227942309362046E-020
  -42.1100000000000         4.920453362505072E-020
  -41.9200000000000         3.223726747556762E-020
  -41.7300000000000         5.303323535123812E-021
  -41.5400000000000        -2.475852053601911E-020
  -41.3500000000000        -5.010666299208507E-020
  -41.1600000000000        -6.413253598308758E-020
  -40.9700000000000        -6.336733877300955E-020
  -40.7800000000000        -4.849292072209845E-020
  -40.5900000000000        -2.415164215577099E-020
  -40.4000000000000         2.394103840696643E-021
  -40.2100000000000         2.336155685834427E-020
  -40.0200000000000         3.269285927041991E-020
  -39.8300000000000         2.779213416422034E-020
  -39.6400000000000         1.025177970959699E-020
  -39.4500000000000        -1.463842805496149E-020
  -39.2600000000000        -3.945222179733639E-020
  -39.0700000000000        -5.680162739260218E-020
  -38.8800000000000        -6.149265954382936E-020
  -38.6900000000000        -5.203361395785120E-020
  -38.5000000000000        -3.105363541018745E-020
  -38.3100000000000        -4.505867377038107E-021
  -38.1200000000000         2.011250249357284E-020
  -37.9300000000000         3.599616615462875E-020
  -37.7400000000000         3.905518994747955E-020
  -37.5500000000000         2.911739352940249E-020
  -37.3600000000000         9.947175063859265E-021
  -37.1700000000000        -1.192379828237618E-020
  -36.9800000000000        -2.919979862435299E-020
  -36.7900000000000        -3.605327961330494E-020
  -36.6000000000000        -2.991340237994715E-020
  -36.4100000000000        -1.227277476024310E-020
  -36.2200000000000         1.172900455102852E-020
  -36.0300000000000         3.481803443922028E-020
  -35.8400000000000         4.974058396695495E-020
  -35.6500000000000         5.141725825552467E-020
  -35.4600000000000         3.846119377716920E-020
  -35.2700000000000         1.361888782391366E-020
  -35.0800000000000        -1.698806918957405E-020
  -34.8900000000000        -4.559350292231619E-020
  -34.7000000000000        -6.498497575987312E-020
  -34.5100000000000        -7.053526867001565E-020
  -34.3200000000000        -6.148422707963735E-020
  -34.1300000000000        -4.110651211603006E-020
  -33.9400000000000        -1.572289176921810E-020
  -33.7500000000000         7.153778377002917E-021
  -33.5600000000000         2.099707582099371E-020
  -33.3700000000000         2.213573967415661E-020
  -33.1800000000000         1.077053605959102E-020
  -32.9900000000000        -9.149443448876834E-021
  -32.8000000000000        -3.114066921599070E-020
  -32.6100000000000        -4.811810964497627E-020
  -32.4200000000000        -5.447157731649108E-020
  -32.2300000000000        -4.768081034528235E-020
  -32.0400000000000        -2.901361697246104E-020
  -31.8500000000000        -3.126881900981698E-021
  -31.6600000000000         2.329282229398599E-020
  -31.4700000000000         4.344397602967514E-020
  -31.2800000000000         5.232707419278794E-020
  -31.0900000000000         4.812047975701788E-020
  -30.9000000000000         3.263430638453192E-020
  -30.7100000000000         1.072834172364397E-020
  -30.5200000000000        -1.112608279781764E-020
  -30.3300000000000        -2.672192863557713E-020
  -30.1400000000000        -3.189318990865994E-020
  -29.9500000000000        -2.568840523326105E-020
  -29.7600000000000        -1.061080679945710E-020
  -29.5700000000000         8.138626731947946E-021
  -29.3800000000000         2.419504516208251E-020
  -29.1900000000000         3.189896940555138E-020
  -29.0000000000000         2.796360567019381E-020
  -28.8100000000000         1.246101364265031E-020
  -28.6200000000000        -1.115634929273618E-020
  -28.4300000000000        -3.700492532526696E-020
  -28.2400000000000        -5.841712882332919E-020
  -28.0500000000000        -6.981272818683919E-020
  -27.8600000000000        -6.825921872373689E-020
  -27.6700000000000        -5.428086151889288E-020
  -27.4800000000000        -3.169641604000638E-020
  -27.2900000000000        -6.542085789454368E-021
  -27.1000000000000         1.461142326775332E-020
  -26.9100000000000         2.647696393761187E-020
  -26.7200000000000         2.650070437806814E-020
  -26.5300000000000         1.554250067793371E-020
  -26.3400000000000        -2.403759884205432E-021
  -26.1500000000000        -2.137581034756093E-020
  -25.9600000000000        -3.517140653282916E-020
  -25.7700000000000        -3.915229608181841E-020
  -25.5800000000000        -3.160792810768809E-020
  -25.3900000000000        -1.428217664016853E-020
  -25.2000000000000         8.097793819179036E-021
  -25.0100000000000         2.916429526940736E-020
  -24.8200000000000         4.274137466138383E-020
  -24.6300000000000         4.463693114419790E-020
  -24.4400000000000         3.387325029516519E-020
  -24.2500000000000         1.299713983348418E-020
  -24.0600000000000        -1.262176706432922E-020
  -23.8700000000000        -3.630332579892446E-020
  -23.6800000000000        -5.194496295950005E-020
  -23.4900000000000        -5.574265958156444E-020
  -23.3000000000000        -4.725056370959456E-020
  -23.1100000000000        -2.947597439593924E-020
  -22.9200000000000        -7.984302787769695E-021
  -22.7300000000000         1.072716941469714E-020
  -22.5400000000000         2.111924660974173E-020
  -22.3500000000000         2.022260256860984E-020
  -22.1600000000000         8.507817067354436E-021
  -21.9700000000000        -1.024247366040149E-020
  -21.7800000000000        -3.003399185631490E-020
  -21.5900000000000        -4.442692992515133E-020
  -21.4000000000000        -4.845875221121364E-020
  -21.2100000000000        -4.015644299714903E-020
  -21.0200000000000        -2.118160472626320E-020
  -20.8300000000000         3.596387837799383E-021
  -20.6400000000000         2.748461333639682E-020
  -20.4500000000000         4.390391067842045E-020
  -20.2600000000000         4.830559303758290E-020
  -20.0700000000000         3.949880956654983E-020
  -19.8800000000000         1.999701500349144E-020
  -19.6900000000000        -4.714773883334167E-021
  -19.5000000000000        -2.777161108784326E-020
  -19.3100000000000        -4.291040762629651E-020
  -19.1200000000000        -4.626590960843668E-020
  -18.9300000000000        -3.746443810828598E-020
  -18.7400000000000        -1.970277775435263E-020
  -18.5500000000000         1.210419652966269E-021
  -18.3600000000000         1.857544981240763E-020
  -18.1700000000000         2.678646209704868E-020
  -17.9800000000000         2.300109031142894E-020
  -17.7900000000000         8.002768961706598E-021
  -17.6000000000000        -1.400396670693843E-020
  -17.4100000000000        -3.661380055150932E-020
  -17.2200000000000        -5.310480294663363E-020
  -17.0300000000000        -5.843354152839747E-020
  -16.8400000000000        -5.074826205375119E-020
  -16.6500000000000        -3.196395009763912E-020
  -16.4600000000000        -7.219478574757713E-021
  -16.2700000000000         1.662748681464623E-020
  -16.0800000000000         3.302039565990231E-020
  -15.8900000000000         3.763531998969204E-020
  -15.7000000000000         2.964938907366866E-020
  -15.5100000000000         1.197267005211525E-020
  -15.3200000000000        -9.620039912878931E-021
  -15.1300000000000        -2.819628212203058E-020
  -14.9400000000000        -3.770775325413677E-020
  -14.7500000000000        -3.477178106261031E-020
  -14.5600000000000        -1.967936864283205E-020
  -14.3700000000000         3.658573395513331E-021
  -14.1800000000000         2.881351572304219E-020
  -13.9900000000000         4.867951230050580E-020
  -13.8000000000000         5.752733714579707E-020
  -13.6100000000000         5.267938163549000E-020
  -13.4200000000000         3.531136789529512E-020
  -13.2300000000000         1.013344105734612E-020
  -13.0400000000000        -1.596883252329826E-020
  -12.8500000000000        -3.594056231732797E-020
  -12.6600000000000        -4.461941610824509E-020
  -12.4700000000000        -4.024186707256811E-020
  -12.2800000000000        -2.494697065824718E-020
  -12.0900000000000        -4.129697966096036E-021
  -11.9000000000000         1.516148158351899E-020
  -11.7100000000000         2.630617445792038E-020
  -11.5200000000000         2.506056913469587E-020
  -11.3300000000000         1.080818839106125E-020
  -11.1400000000000        -1.324196673126730E-020
  -10.9500000000000        -4.095837796628974E-020
  -10.7600000000000        -6.502529629788388E-020
  -10.5700000000000        -7.901640503758182E-020
  -10.3800000000000        -7.921357276819872E-020
  -10.1900000000000        -6.565596339213236E-020
  -10.0000000000000        -4.212310371384871E-020
  -9.81000000000000        -1.505628059700386E-020
  -9.62000000000000         8.277092356162347E-021
  -9.42999999999999         2.185553524071244E-020
  -9.23999999999999         2.261999447608219E-020
  -9.05000000000000         1.133731657426524E-020
  -8.86000000000000        -7.647346776775820E-021
  -8.67000000000000        -2.770503007096590E-020
  -8.48000000000000        -4.188884764743523E-020
  -8.28999999999999        -4.499367448000470E-020
  -8.09999999999999        -3.510433084895245E-020
  -7.91000000000000        -1.418138194243048E-020
  -7.72000000000000         1.247970006469717E-020
  -7.53000000000000         3.775033075568125E-020
  -7.34000000000000         5.469216419642219E-020
  -7.15000000000001         5.852275221390522E-020
  -6.95999999999999         4.797114109514742E-020
  -6.77000000000000         2.564917053526582E-020
  -6.58000000000000        -2.659687213807453E-021
  -6.39000000000000        -2.959392901714561E-020
  -6.20000000000000        -4.824867454256649E-020
  -6.01000000000001        -5.408702280634089E-020
  -5.81999999999999        -4.619126979293215E-020
  -5.63000000000000        -2.749343469346487E-020
  -5.44000000000000        -3.909708898137300E-021
  -5.25000000000000         1.738021606534821E-020
  -5.06000000000000         3.001600939397010E-020
  -4.87000000000000         3.029950361434245E-020
  -4.67999999999999         1.826222333279682E-020
  -4.48999999999999        -2.353116822221714E-021
  -4.30000000000000        -2.519127518185414E-020
  -4.11000000000000        -4.314246410935189E-020
  -3.92000000000000        -5.041892241920348E-020
  -3.73000000000000        -4.424822246317224E-020
  -3.53999999999999        -2.569570272717181E-020
  -3.34999999999999         6.163591801072561E-022
  -3.16000000000000         2.780591575909120E-020
  -2.97000000000000         4.866929332240151E-020
  -2.78000000000000         5.770767401111072E-020
  -2.59000000000000         5.266750449526783E-020
  -2.40000000000001         3.515788290785650E-020
  -2.20999999999999         1.016875197892337E-020
  -2.02000000000000        -1.537350275830187E-020
  -1.83000000000000        -3.460055994454942E-020
  -1.64000000000000        -4.267359545285087E-020
  -1.45000000000000        -3.815925202244286E-020
  -1.26000000000001        -2.340437948218373E-020
  -1.06999999999999        -3.794358525651491E-021
 -0.879999999999995         1.388846470690069E-020
 -0.689999999999998         2.351761237213546E-020
 -0.500000000000000         2.147104424993884E-020
 -0.310000000000002         7.720641034997938E-021
 -0.120000000000005        -1.416041649148379E-020
  7.000000000000739E-002   -3.806637597466328E-020
  0.260000000000005        -5.717672884066533E-020
  0.450000000000003        -6.597923401152725E-020
  0.640000000000001        -6.189961119713046E-020
  0.829999999999998        -4.605844678586422E-020
   1.02000000000000        -2.293424690267943E-020
   1.21000000000001         9.655610845020888E-022
   1.40000000000001         1.903172983670222E-020
   1.59000000000000         2.650791585894811E-020
   1.78000000000000         2.189243141501696E-020
   1.97000000000000         7.367930272843973E-021
   2.16000000000000        -1.187143295491707E-020
   2.34999999999999        -2.919579022584237E-020
   2.54000000000001        -3.854745476888667E-020
   2.73000000000000        -3.627925709758057E-020
   2.92000000000000        -2.227126474312472E-020
   3.11000000000000         9.320807788618078E-024
   3.30000000000000         2.452210772196477E-020
   3.48999999999999         4.443713336054471E-020
   3.68000000000001         5.415570851844933E-020
   3.87000000000000         5.096575418751518E-020
   4.06000000000000         3.583773368384226E-020
   4.25000000000000         1.312568484869374E-020
   4.44000000000000        -1.073218283427078E-020
   4.63000000000000        -2.912026073587198E-020
   4.82000000000001        -3.718968410695181E-020
   5.01000000000001        -3.326437087788204E-020
   5.20000000000000        -1.929842236539026E-020
   5.39000000000000        -2.587091230124218E-022
   5.58000000000000         1.737668968700917E-020
   5.77000000000000         2.755784488831498E-020
   5.96000000000001         2.647026614284048E-020
   6.15000000000001         1.368173004617161E-020
   6.34000000000000        -7.704833769425592E-021
   6.53000000000000        -3.193411322559603E-020