  -105.000000000000        -7.578627272927483E-020
  -104.810000000000        -5.740297996394921E-020
  -104.620000000000        -2.681569968370344E-020
  -104.430000000000         7.404614393118010E-021
  -104.240000000000         3.573133950853271E-020
  -104.050000000000         5.042597196519637E-020
  -103.860000000000         4.776174380398875E-020
  -103.670000000000         2.908064290240059E-020
  -103.480000000000         3.765499998282521E-022
  -103.290000000000        -2.947244244698318E-020
  -103.100000000000        -5.130482595056856E-020
  -102.910000000000        -5.835032115296519E-020
  -102.720000000000        -4.820163799881500E-020
  -102.530000000000        -2.351515431393933E-020
  -102.340000000000         8.758558183861485E-021
  -102.150000000000         3.939106877171073E-020
  -101.960000000000         5.955720516439574E-020
  -101.770000000000         6.340394835150311E-020
  -101.580000000000         4.975933994328179E-020
  -101.390000000000         2.248365124068231E-020
  -101.200000000000        -1.063829473409351E-020
  -101.010000000000        -4.014160248196033E-020
  -100.820000000000        -5.761390248704413E-020
  -100.630000000000        -5.812756500163503E-020
  -100.440000000000        -4.166756863509024E-020
  -100.250000000000        -1.313692899953686E-020
  -100.060000000000         1.906917532215207E-020
  -99.8700000000000         4.551078047801898E-020
  -99.6800000000000         5.845740398985927E-020
  -99.4900000000000         5.414127183880976E-020
  -99.3000000000000         3.385183015538448E-020
  -99.1100000000000         3.556089679301460E-021
  -98.9200000000000        -2.784501492760615E-020
  -98.7300000000000        -5.112300338615357E-020
  -98.5400000000000        -5.943407735084540E-020
  -98.3500000000000        -5.033566399726807E-020
  -98.1600000000000        -2.650116033383056E-020
  -97.9700000000000         5.084170584105598E-021
  -97.7800000000000         3.520102623018384E-020
  -97.5900000000000         5.511873537901586E-020
  -97.4000000000000         5.915163391510770E-020
  -97.2100000000000         4.630522771748002E-020
  -97.0200000000000         2.054628191783520E-020
  -96.8300000000000        -1.037389502620888E-020
  -96.6400000000000        -3.720555037479388E-020
  -96.4500000000000        -5.193555698843730E-020
  -96.2600000000000        -5.016695798228609E-020
  -96.0700000000000        -3.243457266807336E-020
  -95.8800000000000        -4.064729279597551E-021
  -95.6900000000000         2.638133153065341E-020
  -95.5000000000000         4.963059473019158E-020
  -95.3100000000000         5.846010163621189E-020
  -95.1200000000000         4.989126779943865E-020
  -94.9300000000000         2.615542025636845E-020
  -94.7400000000000        -5.888572561546824E-021
  -94.5500000000000        -3.674598173581724E-020
  -94.3600000000000        -5.710757490189625E-020
  -94.1700000000000        -6.064914237664956E-020
  -93.9800000000000        -4.596055743370323E-020
  -93.7900000000000        -1.702751087376565E-020
  -93.6000000000000         1.787879869249570E-020
  -93.4100000000000         4.859126197005081E-020
  -93.2200000000000         6.602988276322619E-020
  -93.0300000000000         6.489780592332716E-020
  -92.8400000000000         4.527293930400880E-020
  -92.6500000000000         1.260835886119170E-020
  -92.4600000000000        -2.384956491911185E-020
  -92.2700000000000        -5.373428942065650E-020
  -92.0800000000000        -6.852863781764072E-020
  -91.8900000000000        -6.398688474141405E-020
  -91.7000000000000        -4.134584704881963E-020
  -91.5100000000000        -6.991506631534053E-021
  -91.3200000000000         2.934674111986934E-020
  -91.1300000000000         5.738846686210629E-020
  -90.9400000000000         6.927946673265692E-020
  -90.7500000000000         6.186685975420068E-020
  -90.5600000000000         3.759243453402882E-020
  -90.3700000000000         3.748381383794115E-021
  -90.1800000000000        -2.967933693742133E-020
  -89.9900000000000        -5.295512876778237E-020
  -89.8000000000000        -5.946935213618264E-020
  -89.6100000000000        -4.768532739061078E-020
  -89.4200000000000        -2.155015849918151E-020
  -89.2300000000000         1.077116905505197E-020
  -89.0400000000000         3.943585561200299E-020
  -88.8500000000000         5.591901143683359E-020
  -88.6600000000000         5.552597770809003E-020
  -88.4700000000000         3.868432661559468E-020
  -88.2800000000000         1.068408071273903E-020
  -88.0900000000000        -2.001204131753498E-020
  -87.9000000000000        -4.436659573413073E-020
  -87.7100000000000        -5.548031248066108E-020
  -87.5200000000000        -5.058106098594523E-020
  -87.3300000000000        -3.169125487015854E-020
  -87.1400000000000        -4.829350116942536E-021
  -86.9500000000000         2.192706612943565E-020
  -86.7600000000000         4.088026099125620E-020
  -86.5700000000000         4.693747650046953E-020
  -86.3800000000000         3.901417683918677E-020
  -86.1900000000000         2.023373981408975E-020
  -86.0000000000000        -3.146550058487067E-021
  -85.8100000000000        -2.377827339788750E-020
  -85.6200000000000        -3.558362462541657E-020
  -85.4300000000000        -3.564284652650555E-020
  -85.2400000000000        -2.498323535857173E-020
  -85.0500000000000        -8.052919797070485E-021
  -84.8600000000000         8.892392204220403E-021
  -84.6700000000000         1.993758925272187E-020
  -84.4800000000000         2.149124483915712E-020
  -84.2900000000000         1.344946201829144E-020
  -84.1000000000000        -8.578913265047982E-022
  -83.9100000000000        -1.591392075855023E-020
  -83.7200000000000        -2.598740244464602E-020
  -83.5300000000000        -2.710254685326385E-020
  -83.3400000000000        -1.832310814799959E-020
  -83.1500000000000        -1.979617034370384E-021
  -82.9600000000000         1.713961264462074E-020
  -82.7700000000000         3.331479043320172E-020
  -82.5800000000000         4.165923158802972E-020
  -82.3900000000000         3.959172134141188E-020
  -82.2000000000000         2.756109004002896E-020
  -82.0100000000000         8.811311361034723E-021
  -81.8200000000000        -1.167540557751046E-020
  -81.6300000000000        -2.864492506013802E-020
  -81.4400000000000        -3.796960020598691E-020
  -81.2500000000000        -3.762252207794293E-020
  -81.0600000000000        -2.805100715854355E-020
  -80.8700000000000        -1.191929261699549E-020
  -80.6800000000000         6.691591315398520E-021
  -80.4900000000000         2.340666061412081E-020
  -80.3000000000000         3.465916716865914E-020
  -80.1100000000000         3.842150851073884E-020
  -79.9200000000000         3.438929345481021E-020
  -79.7300000000000         2.370312566218563E-020
  -79.5400000000000         8.450722664423409E-021
  -79.3500000000000        -8.828371826120902E-021
  -79.1600000000000        -2.552225636722005E-020
  -78.9700000000000        -3.918765798488669E-020
  -78.7800000000000        -4.769192457660687E-020
  -78.5900000000000        -4.935407958046501E-020
  -78.4000000000000        -4.320348982904399E-020
  -78.2100000000000        -2.939337790820075E-020
  -78.0200000000000        -9.630087735782361E-021
  -77.8300000000000         1.267841991499745E-020
  -77.6400000000000         3.284242800413044E-020
  -77.4500000000000         4.594331389553747E-020
  -77.2600000000000         4.826864433769370E-020
  -77.0700000000000         3.866369398234569E-020
  -76.8800000000000         1.930864678466902E-020
  -76.6900000000000        -4.445936233037119E-021
  -76.5000000000000        -2.532387327921321E-020
  -76.3100000000000        -3.624367681770426E-020
  -76.1200000000000        -3.271308047556051E-020
  -75.9300000000000        -1.464744144563271E-020
  -75.7400000000000         1.314009348895781E-020
  -75.5500000000000         4.207866201658509E-020
  -75.3600000000000         6.231792029941986E-020
  -75.1700000000000         6.578363498708883E-020
  -74.9800000000000         4.887205082357328E-020
  -74.7900000000000         1.395737139095537E-020
  -74.6000000000000        -3.080401899951673E-020
  -74.4100000000000        -7.345340456633402E-020
  -74.2200000000000        -1.015530173849077E-019
  -74.0300000000000        -1.059262827103811E-019
  -73.8400000000000        -8.365731106776116E-020
  -73.6500000000000        -3.936153536184411E-020
  -73.4600000000000         1.575464882243871E-020
  -73.2700000000000         6.688127889126285E-020
  -73.0800000000000         9.986378019510113E-020
  -72.8900000000000         1.055124337650540E-019
  -72.7000000000000         8.260219906527073E-020
  -72.5100000000000         3.848928673832493E-020
  -72.3200000000000        -1.302166474828605E-020
  -72.1300000000000        -5.599100415726568E-020
  -71.9400000000000        -7.745583211610226E-020
  -71.7500000000000        -7.162146828566893E-020
  -71.5600000000000        -4.170865573232920E-020
  -71.3700000000000         1.178159058487678E-021
  -71.1800000000000         4.181415773559506E-020
  -70.9900000000000         6.602433070283979E-020
  -70.8000000000000         6.551985610091693E-020
  -70.6100000000000         4.072079577259598E-020
  -70.4200000000000         5.717568525319608E-022
  -70.2300000000000        -4.056951667362264E-020
  -70.0400000000000        -6.786672608175933E-020
  -69.8500000000000        -7.107367057462402E-020
  -69.6600000000000        -4.806894235253299E-020
  -69.4700000000000        -5.739114234806516E-021
  -69.2800000000000         4.206435393653575E-020
  -69.0900000000000         7.889560192092523E-020
  -68.9000000000000         9.110431480417412E-020
  -68.7100000000000         7.255298453706415E-020
  -68.5200000000000         2.707403281431690E-020
  -68.3300000000000        -3.226460703842510E-020
  -68.1400000000000        -8.698919686009358E-020
  -67.9500000000000        -1.190176790763085E-019
  -67.7600000000000        -1.166121986382616E-019
  -67.5700000000000        -7.854176222720161E-020
  -67.3800000000000        -1.499243669063688E-020
  -67.1900000000000         5.524075103535286E-020
  -67.0000000000000         1.105223320336590E-019
  -66.8100000000000         1.333033563181967E-019
  -66.6200000000000         1.159220839577047E-019
  -66.4300000000000         6.329224723707773E-020
  -66.2400000000000        -8.483801343767291E-021
  -66.0500000000000        -7.715792872902744E-020
  -65.8600000000000        -1.213965045770968E-019
  -65.6700000000000        -1.275722391095213E-019
  -65.4800000000000        -9.409243979230928E-020
  -65.2900000000000        -3.185786168787095E-020
  -65.1000000000000         3.928632036718099E-020
  -64.9100000000000         9.691447073032293E-020
  -64.7200000000000         1.230986406398069E-019
  -64.5300000000000         1.099354611484095E-019
  -64.3400000000000         6.184350281164858E-020
  -64.1500000000000        -5.965159563670896E-021
  -63.9600000000000        -7.225002359440126E-020
  -63.7700000000000        -1.162386860186033E-019
  -63.5800000000000        -1.239187883825127E-019
  -63.3900000000000        -9.228286996632568E-020
  -63.2000000000000        -3.025919504981090E-020
  -63.0100000000000         4.397757604147653E-020
  -62.8200000000000         1.085140302051989E-019
  -62.6300000000000         1.443361547199108E-019
  -62.4400000000000         1.410570864982901E-019
  -62.2500000000000         9.997216289155723E-020
  -62.0600000000000         3.349521485857030E-020
  -61.8700000000000        -3.884181265348175E-020
  -61.6800000000000        -9.654056772479375E-020
  -61.4900000000000        -1.244461655966185E-019
  -61.3000000000000        -1.171662067854242E-019
  -61.1100000000000        -8.019106165468854E-020
  -60.9200000000000        -2.745659170296562E-020
  -60.7300000000000         2.366183165531312E-020
  -60.5400000000000         5.808874232974122E-020
  -60.3500000000000         6.756590348685162E-020
  -60.1600000000000         5.257199958705356E-020
  -59.9700000000000         2.125808131398266E-020
  -59.7800000000000        -1.395981210212295E-020
  -59.5900000000000        -4.079045415486212E-020
  -59.4000000000000        -5.091173655343055E-020
  -59.2100000000000        -4.213288851509288E-020
  -59.0200000000000        -1.844498473214460E-020
  -58.8300000000000         1.176840803066273E-020
  -58.6400000000000         3.861480591608197E-020
  -58.4500000000000         5.375594476436182E-020
  -58.2600000000000         5.282342128100743E-020
  -58.0700000000000         3.658596215683178E-020
  -57.8800000000000         1.055980398202042E-020
  -57.6900000000000        -1.686322596805585E-020
  -57.5000000000000        -3.722845900584018E-020
  -57.3100000000000        -4.484602548019015E-020
  -57.1200000000000        -3.863206067496427E-020
  -56.9300000000000        -2.228200306300883E-020
  -56.7400000000000        -2.703419937051973E-021
  -56.5500000000000         1.269029733754662E-020
  -56.3600000000000         1.876073613257325E-020
  -56.1700000000000         1.441061707712296E-020
  -55.9800000000000         2.688187082066608E-021
  -55.7900000000000        -1.071938926268938E-020
  -55.6000000000000        -1.990637587059719E-020
  -55.4100000000000        -2.104736486883033E-020
  -55.2200000000000        -1.365414623691870E-020
  -55.0300000000000        -3.940307017024024E-022
  -54.8400000000000         1.426469155596023E-020
  -54.6500000000000         2.586323155435953E-020
  -54.4600000000000         3.144332822031493E-020
  -54.2700000000000         3.022166189727694E-020
  -54.0800000000000         2.338193024025799E-020
  -53.8900000000000         1.329135682966431E-020
  -53.7000000000000         2.591080959721300E-021
  -53.5100000000000        -6.501027197828147E-021
  -53.3200000000000        -1.255664576257422E-020
  -53.1300000000000        -1.502005710177967E-020
  -52.9400000000000        -1.411669172234682E-020
  -52.7500000000000        -1.067558730287201E-020
  -52.5600000000000        -5.890744647028141E-021
  -52.3700000000000        -1.010036179234960E-021
  -52.1800000000000         3.003720067000610E-021
  -51.9900000000000         5.696070153165737E-021
  -51.8000000000000         7.082169957332947E-021
  -51.6100000000000         7.346084983871571E-021
  -51.4200000000000         6.472304419492713E-021
  -51.2300000000000         4.096079788438206E-021
  -51.0400000000000        -2.364205071521219E-022
  -50.8500000000000        -6.472461646043978E-021
  -50.6600000000000        -1.347978410349267E-020
  -50.4700000000000        -1.893790337846529E-020
  -50.2800000000000        -1.992823189520477E-020
  -50.0900000000000        -1.409661727660854E-020
  -49.9000000000000        -9.545000220866604E-022
  -49.7100000000000         1.725911304831220E-020
  -49.5200000000000         3.566867627957822E-020
  -49.3300000000000         4.801098701876320E-020
  -49.1400000000000         4.875356303382174E-020
  -48.9500000000000         3.533558236608417E-020
  -48.7600000000000         9.609886021192446E-021
  -48.5700000000000        -2.220915689564327E-020
  -48.3800000000000        -5.122609999132769E-020
  -48.1900000000000        -6.864508726122737E-020
  -48.0000000000000        -6.867462065466760E-020
  -47.8100000000000        -5.054674473050137E-020
  -47.6200000000000        -1.897379748674845E-020
  -47.4300000000000         1.711939646341835E-020
  -47.2400000000000         4.720469871805914E-020
  -47.0500000000000         6.227886510655431E-020
  -46.8600000000000         5.753164769003653E-020
  -46.6700000000000         3.378312837851930E-020
  -46.4800000000000        -2.645810690901225E-021
  -46.2900000000000        -4.153774226954428E-020
  -46.1000000000000        -7.145549626088387E-020
  -45.9100000000000        -8.287558587051434E-020
  -45.7200000000000        -7.101508032738679E-020
  -45.5300000000000        -3.754326455670272E-020
  -45.3400000000000         9.473836405246540E-021
  -45.1500000000000         5.759605327508346E-020
  -44.9600000000000         9.352715856886897E-020
  -44.7700000000000         1.070690750974645E-019
  -44.5800000000000         9.425699868131826E-020
  -44.3900000000000         5.866752993387484E-020
  -44.2000000000000         1.043046362120157E-020
  -44.0100000000000        -3.683557838114794E-020
  -43.8200000000000        -7.023393208230235E-020
  -43.6300000000000        -8.154062766969870E-020
  -43.4400000000000        -6.952831883422760E-020
  -43.2500000000000        -3.990740863456429E-020
  -43.0600000000000        -3.047309870004668E-021
  -42.8700000000000         2.955735104783373E-020
  -42.6800000000000         4.878074304654616E-020
  -42.4900000000000         5.025146888257705E-020
  -42.3000000000000         3.511229802073082E-020
  -42.1100000000000         9.182573170603934E-021
  -41.9200000000000        -1.906088395549091E-020
  -41.7300000000000        -4.103021931948268E-020
  -41.5400000000000        -5.037963303970146E-020
  -41.3500000000000        -4.459851126051130E-020
  -41.1600000000000        -2.556069648379236E-020
  -40.9700000000000         1.024073208894065E-021
  -40.7800000000000         2.716809937733673E-020
  -40.5900000000000         4.489999419820102E-020
  -40.4000000000000         4.873773081223034E-020
  -40.2100000000000         3.754499860472541E-020
  -40.0200000000000         1.501808042235675E-020
  -39.8300000000000        -1.150830278729204E-020
  -39.6400000000000        -3.355295482056976E-020
  -39.4500000000000        -4.433010471505044E-020
  -39.2600000000000        -4.089874222957717E-020
  -39.0700000000000        -2.494064170053095E-020
  -38.8800000000000        -2.015350962346564E-021
  -38.6900000000000         2.039578870912666E-020
  -38.5000000000000         3.538571833217262E-020
  -38.3100000000000         3.879569248303307E-020
  -38.1200000000000         3.033040685624555E-020
  -37.9300000000000         1.333139556086037E-020
  -37.7400000000000        -6.532051253580653E-021
  -37.5500000000000        -2.306401179951591E-020
  -37.3600000000000        -3.124550544523513E-020
  -37.1700000000000        -2.847764333681308E-020
  -36.9800000000000        -1.522645117342969E-020
  -36.7900000000000         4.997816911341381E-021
  -36.6000000000000         2.639942774998352E-020
  -36.4100000000000         4.235130478869290E-020
  -36.2200000000000         4.724492903835412E-020
  -36.0300000000000         3.823551490459636E-020
  -35.8400000000000         1.637219494164690E-020
  -35.6500000000000        -1.327903110195331E-020
  -35.4600000000000        -4.272519416683423E-020
  -35.2700000000000        -6.323389087454227E-020
  -35.0800000000000        -6.805312628786302E-020
  -34.8900000000000        -5.474358334125873E-020
  -34.7000000000000        -2.621847020080523E-020
  -34.5100000000000         9.961581449676674E-021
  -34.3200000000000         4.380647562295206E-020
  -34.1300000000000         6.583614236759746E-020
  -33.9400000000000         6.979114414332892E-020
  -33.7500000000000         5.438083728157855E-020
  -33.5600000000000         2.367313096490112E-020
  -33.3700000000000        -1.396826382618294E-020
  -33.1800000000000        -4.816060513506307E-020
  -32.9900000000000        -6.937038259740097E-020
  -32.8000000000000        -7.152172669584914E-020
  -32.6100000000000        -5.361161317074106E-020
  -32.4200000000000        -1.997209778611242E-020
  -32.2300000000000         2.080091168386767E-020
  -32.0400000000000         5.797799285872291E-020
  -31.8500000000000         8.144269758576521E-020
  -31.6600000000000         8.445615852040717E-020
  -31.4700000000000         6.570879770344895E-020
  -31.2800000000000         2.995005775067402E-020
  -31.0900000000000        -1.317606745178951E-020
  -30.9000000000000        -5.185268388763417E-020
  -30.7100000000000        -7.555613353318116E-020
  -30.5200000000000        -7.820003619859807E-020
  -30.3300000000000        -5.998436488205276E-020
  -30.1400000000000        -2.731753612383524E-020
  -29.9500000000000         9.258453441427427E-021
  -29.7600000000000         3.850048219872115E-020
  -29.5700000000000         5.205513397985473E-020
  -29.3800000000000         4.693960914921809E-020
  -29.1900000000000         2.612682428255684E-020
  -29.0000000000000        -2.785944315551489E-021
  -28.8100000000000        -3.018297563754372E-020
  -28.6200000000000        -4.737989787303002E-020
  -28.4300000000000        -4.908191105346626E-020
  -28.2400000000000        -3.478118778858840E-020
  -28.0500000000000        -8.786362587503844E-021
  -27.8600000000000         2.112494509631903E-020
  -27.6700000000000         4.604384796865920E-020
  -27.4800000000000         5.853838585242175E-020
  -27.2900000000000         5.477003345261850E-020
  -27.1000000000000         3.558664898691758E-020
  -26.9100000000000         6.352075811702068E-021
  -26.7200000000000        -2.447661489771606E-020
  -26.5300000000000        -4.774355910161588E-020
  -26.3400000000000        -5.636531159361686E-020
  -26.1500000000000        -4.763698454799461E-020
  -25.9600000000000        -2.423224654799846E-020
  -25.7700000000000         6.568959653341346E-021
  -25.5800000000000         3.522102567019065E-020
  -25.3900000000000         5.298762256617582E-020
  -25.2000000000000         5.467715698321255E-020
  -25.0100000000000         4.016656889051885E-020
  -24.8200000000000         1.428322822925818E-020
  -24.6300000000000        -1.486699619396517E-020
  -24.4400000000000        -3.852688191259503E-020
  -24.2500000000000        -4.994507457014858E-020
  -24.0600000000000        -4.620035846892850E-020
  -23.8700000000000        -2.875008682835158E-020
  -23.6800000000000        -2.759543046355228E-021
  -23.4900000000000         2.441107610703464E-020
  -23.3000000000000         4.510969789110334E-020
  -23.1100000000000         5.330099660799501E-020
  -22.9200000000000         4.614658603871768E-020
  -22.7300000000000         2.488983905545908E-020
  -22.5400000000000        -5.299113679005460E-021
  -22.3500000000000        -3.660669500749829E-020
  -22.1600000000000        -6.066338058777397E-020
  -21.9700000000000        -7.082707847745373E-020
  -21.7800000000000        -6.403631250623512E-020
  -21.5900000000000        -4.174382118585551E-020
  -21.4000000000000        -9.632596807556490E-021
  -21.2100000000000         2.389658802372544E-020
  -21.0200000000000         5.009326705436292E-020
  -20.8300000000000         6.237664899793770E-020
  -20.6400000000000         5.819953560944562E-020
  -20.4500000000000         3.965574468586379E-020
  -20.2600000000000         1.268689463798081E-020
  -20.0700000000000        -1.475861282846921E-020
  -19.8800000000000        -3.498218713552293E-020
  -19.6900000000000        -4.258257946545550E-020
  -19.5000000000000        -3.581475568313730E-020
  -19.3100000000000        -1.695144036160202E-020
  -19.1200000000000         8.423341529537074E-021
  -18.9300000000000         3.296113674249632E-020
  -18.7400000000000         4.950001158777865E-020
  -18.5500000000000         5.295039023355641E-020
  -18.3600000000000         4.170212729963222E-020
  -18.1700000000000         1.820166238821324E-020
  -17.9800000000000        -1.153465684890491E-020
  -17.7900000000000        -3.946970269554818E-020
  -17.6000000000000        -5.782693735671933E-020
  -17.4100000000000        -6.145154526204933E-020
  -17.2200000000000        -4.945177687872850E-020
  -17.0300000000000        -2.551400983511673E-020
  -16.8400000000000         3.223647776122212E-021
  -16.6500000000000         2.834914144326469E-020
  -16.4600000000000         4.273285706906545E-020
  -16.2700000000000         4.271830195969800E-020
  -16.0800000000000         2.926890788315169E-020
  -15.8900000000000         7.647754059363631E-021
  -15.7000000000000        -1.432268729041671E-020
  -15.5100000000000        -2.885701550859948E-020
  -15.3200000000000        -3.077641817485713E-020
  -15.1300000000000        -1.917903333949346E-020
  -14.9400000000000         2.323019144423579E-021
  -14.7500000000000         2.680381429871818E-020
  -14.5600000000000         4.619376976523316E-020
  -14.3700000000000         5.373433834511917E-020
  -14.1800000000000         4.603993352436409E-020
  -13.9900000000000         2.420771682012583E-020
  -13.8000000000000        -6.359651101003631E-021
  -13.6100000000000        -3.739798915158426E-020
  -13.4200000000000        -6.010232642759826E-020
  -13.2300000000000        -6.770137589636515E-020
  -13.0400000000000        -5.758331110044116E-020
  -12.8500000000000        -3.231760983159030E-020
  -12.6600000000000         8.518511553127047E-022
  -12.4700000000000         3.202738414562158E-020
  -12.2800000000000         5.165907279004824E-020
  -12.0900000000000         5.360055207316101E-020
  -11.9000000000000         3.718143853979719E-020
  -11.7100000000000         7.534745090180153E-021
  -11.5200000000000        -2.596312357669111E-020
  -11.3300000000000        -5.260032041922466E-020
  -11.1400000000000        -6.363222466106715E-020
  -10.9500000000000        -5.497314090492946E-020
  -10.7600000000000        -2.847691861344875E-020
  -10.5700000000000         8.592851279158184E-021
  -10.3800000000000         4.574241347514295E-020
  -10.1900000000000         7.237259207066777E-020
  -10.0000000000000         8.085731220290517E-020
  -9.81000000000000         6.865148606371195E-020
  -9.62000000000000         3.886019430314989E-020
  -9.42999999999999        -7.874294122750787E-022
  -9.23999999999999        -4.014430659205778E-020
  -9.05000000000000        -6.936798314085931E-020
  -8.86000000000000        -8.147710424724661E-020
  -8.67000000000000        -7.413414973473366E-020
  -8.48000000000000        -5.018206267654796E-020
  -8.28999999999999        -1.674885752377013E-020
  -8.09999999999999         1.684826995027350E-020
  -7.91000000000000         4.179876694002933E-020
  -7.72000000000000         5.230881166808537E-020
  -7.53000000000000         4.716633838269324E-020
  -7.34000000000000         2.986334921943880E-020
  -7.15000000000001         7.254049000281176E-021
  -6.95999999999999        -1.276287092992675E-020
  -6.77000000000000        -2.373998141986764E-020
  -6.58000000000000        -2.254462973019839E-020
  -6.39000000000000        -1.003757971311500E-020
  -6.20000000000000         9.536644828535243E-021
  -6.01000000000001         3.009049932272040E-020
  -5.81999999999999         4.556867042597764E-020
  -5.63000000000000         5.160052235209340E-020
  -5.44000000000000         4.653708260839664E-020
  -5.25000000000000         3.165911039212104E-020
  -5.06000000000000         1.056774636817078E-020
  -4.87000000000000        -1.197760808154311E-020
  -4.67999999999999        -3.136265858586590E-020
  -4.48999999999999        -4.418219688994874E-020
  -4.30000000000000        -4.883109745224846E-020
  -4.11000000000000        -4.557507994234055E-020
  -3.92000000000000        -3.621747642555051E-020
  -3.73000000000000        -2.353545889446724E-020
  -3.53999999999999        -1.060519083920135E-020
  -3.34999999999999        -1.000953802270894E-022
  -3.16000000000000         6.296559981505873E-021
  -2.97000000000000         8.187975047869638E-021
  -2.78000000000000         6.385505619198497E-021
  -2.59000000000000         2.520657839170793E-021
  -2.40000000000001        -1.498263758570040E-021
  -2.20999999999999        -4.005754460050134E-021
  -2.02000000000000        -3.922646135825303E-021
  -1.83000000000000        -8.735682888379107E-022
  -1.64000000000000         4.846702243600526E-021
  -1.45000000000000         1.235342887006743E-020
  -1.26000000000001         2.026662142619559E-020
  -1.06999999999999         2.685757331308439E-020
 -0.879999999999995         3.030331297578450E-020
 -0.689999999999998         2.908908283719658E-020
 -0.500000000000000         2.252067786637402E-020
 -0.310000000000002         1.116947267853754E-020
 -0.120000000000005        -2.997579743623692E-021
  7.000000000000739E-002   -1.695026703141133E-020
  0.260000000000005        -2.734895901184932E-020
  0.450000000000003        -3.153199462854326E-020
  0.640000000000001        -2.845042326789685E-020
  0.829999999999998        -1.920646629541118E-020
   1.02000000000000        -6.914916916272229E-021
   1.21000000000001         4.174277147825579E-021
   1.40000000000001         1.007512424882056E-020
   1.59000000000000         8.539627703103617E-021
   1.78000000000000         4.693300791034889E-023
   1.97000000000000        -1.215116090035150E-020
   2.16000000000000        -2.302778213468667E-020
   2.34999999999999        -2.747814525725312E-020
   2.54000000000001        -2.211661177265800E-020
   2.73000000000000        -6.586789719569355E-021
   2.92000000000000         1.602587872063360E-020
   3.11000000000000         3.983478272783591E-020
   3.30000000000000         5.770808939501990E-020
   3.48999999999999         6.335089308136062E-020
   3.68000000000001         5.337455395285319E-020
   3.87000000000000         2.874509801151693E-020
   4.06000000000000        -4.954659988833499E-021
   4.25000000000000        -3.874234601036832E-020
   4.44000000000000        -6.273203440322070E-020
   4.63000000000000        -6.921381216151053E-020
   4.82000000000001        -5.534549550162138E-020
   5.01000000000001        -2.450518467787515E-020
   5.20000000000000         1.430624534799840E-020
   5.39000000000000         4.899380898969167E-020
   5.58000000000000         6.810549158818250E-020
   5.77000000000000         6.459390391659007E-020
   5.96000000000001         3.836594946928910E-020
   6.15000000000001        -3.283961017557730E-021
   6.34000000000000        -4.762565703200040E-020
   6.53000000000000        -8.031420672404945E-020