  -105.000000000000        -7.199695909281101E-021
  -104.810000000000        -1.985267491513738E-020
  -104.620000000000        -2.785344948166438E-020
  -104.430000000000        -2.969750258427001E-020
  -104.240000000000        -2.559958696361319E-020
  -104.050000000000        -1.741464237360893E-020
  -103.860000000000        -8.086809375536364E-021
  -103.670000000000        -7.867826384293628E-022
  -103.480000000000         2.011650687282370E-021
  -103.290000000000        -7.524590951973579E-022
  -103.100000000000        -8.426299592964772E-021
  -102.910000000000        -1.884353856780048E-020
  -102.720000000000        -2.896597468721960E-020
  -102.530000000000        -3.577906995693126E-020
  -102.340000000000        -3.718094658928865E-020
  -102.150000000000        -3.260673202850931E-020
  -101.960000000000        -2.320664600457919E-020
  -101.770000000000        -1.152533642056881E-020
  -101.580000000000        -7.748240325642448E-022
  -101.390000000000         6.088260129912343E-021
  -101.200000000000         7.213568998038281E-021
  -101.010000000000         2.389478762513175E-021
  -100.820000000000        -6.897294209542250E-021
  -100.630000000000        -1.789273362096678E-020
  -100.440000000000        -2.737327131645566E-020
  -100.250000000000        -3.257969859174524E-020
  -100.060000000000        -3.201613519109680E-020
  -99.8700000000000        -2.588103939008054E-020
  -99.6800000000000        -1.600406186563211E-020
  -99.4900000000000        -5.307187661908547E-021
  -99.3000000000000         3.052157027539907E-021
  -99.1100000000000         6.605909411835076E-021
  -98.9200000000000         4.298461513246123E-021
  -98.7300000000000        -3.203500226561049E-021
  -98.5400000000000        -1.370642289657596E-020
  -98.3500000000000        -2.413454832464674E-020
  -98.1600000000000        -3.143404663610111E-020
  -97.9700000000000        -3.346866066232498E-020
  -97.7800000000000        -2.964156696496749E-020
  -97.5900000000000        -2.106118961209351E-020
  -97.4000000000000        -1.020550452915177E-020
  -97.2100000000000        -1.871026740559403E-022
  -97.0200000000000         6.163790741299009E-021
  -96.8300000000000         7.130167496003519E-021
  -96.6400000000000         2.610120182908252E-021
  -96.4500000000000        -5.858285016598697E-021
  -96.2600000000000        -1.555802393881742E-020
  -96.0700000000000        -2.340516935060158E-020
  -95.8800000000000        -2.687260303563031E-020
  -95.6900000000000        -2.475252582178000E-020
  -95.5000000000000        -1.753139282699973E-020
  -95.3100000000000        -7.262776672191402E-021
  -95.1200000000000         3.030603424195402E-021
  -94.9300000000000         1.025503878949707E-020
  -94.7400000000000         1.218038932050513E-020
  -94.5500000000000         8.130106662255527E-021
  -94.3600000000000        -7.859812183272529E-022
  -94.1700000000000        -1.197286935978910E-020
  -93.9800000000000        -2.210079084177262E-020
  -93.7900000000000        -2.808465733098217E-020
  -93.6000000000000        -2.800378498820281E-020
  -93.4100000000000        -2.168912922526089E-020
  -93.2200000000000        -1.080012047559957E-020
  -93.0300000000000         1.638009949622998E-021
  -92.8400000000000         1.210423074621993E-020
  -92.6500000000000         1.760295407191397E-020
  -92.4600000000000         1.653503949641156E-020
  -92.2700000000000         9.164573334133572E-021
  -92.0800000000000        -2.450404753504659E-021
  -91.8900000000000        -1.503937939661487E-020
  -91.7000000000000        -2.504598891668708E-020
  -91.5100000000000        -2.963803751632067E-020
  -91.3200000000000        -2.751429023992881E-020
  -91.1300000000000        -1.927444548164114E-020
  -90.9400000000000        -7.240991790138640E-021
  -90.7500000000000         5.217909226112844E-021
  -90.5600000000000         1.466654218349465E-020
  -90.3700000000000         1.859391969568783E-020
  -90.1800000000000         1.613047891809325E-020
  -89.9900000000000         8.280204676098896E-021
  -89.8000000000000        -2.400121009777772E-021
  -89.6100000000000        -1.257981556482315E-020
  -89.4200000000000        -1.915718672435342E-020
  -89.2300000000000        -2.018119072154573E-020
  -89.0400000000000        -1.541152337817549E-020
  -88.8500000000000        -6.352811008536033E-021
  -88.6600000000000         4.234462960231711E-021
  -88.4700000000000         1.318444187098175E-020
  -88.2800000000000         1.787444056717346E-020
  -88.0900000000000         1.698828430971784E-020
  -87.9000000000000         1.087231378980960E-020
  -87.7100000000000         1.386857509404383E-021
  -87.5200000000000        -8.688972969923223E-021
  -87.3300000000000        -1.650484297625308E-020
  -87.1400000000000        -1.997430045002768E-020
  -86.9500000000000        -1.835001742884083E-020
  -86.7600000000000        -1.238332135237511E-020
  -86.5700000000000        -4.040636290661157E-021
  -86.3800000000000         4.124770776606186E-021
  -86.1900000000000         9.753322858667452E-021
  -86.0000000000000         1.137660588544970E-020
  -85.8100000000000         8.818747657094123E-021
  -85.6200000000000         3.179367344880235E-021
  -85.4300000000000        -3.587147414552367E-021
  -85.2400000000000        -9.346625193634706E-021
  -85.0500000000000        -1.248505993342071E-020
  -84.8600000000000        -1.240531005474147E-020
  -84.6700000000000        -9.666461816331959E-021
  -84.4800000000000        -5.730722577603448E-021
  -84.2900000000000        -2.411355426145846E-021
  -84.1000000000000        -1.215156210426113E-021
  -83.9100000000000        -2.808478358506349E-021
  -83.7200000000000        -6.789104062809997E-021
  -83.5300000000000        -1.183264924611143E-020
  -83.3400000000000        -1.614808647123144E-020
  -83.1500000000000        -1.807684536355659E-020
  -82.9600000000000        -1.663664578058280E-020
  -82.7700000000000        -1.184347748818967E-020
  -82.5800000000000        -4.720945396172678E-021
  -82.3900000000000         2.997895132124257E-021
  -82.2000000000000         9.377412213361141E-021
  -82.0100000000000         1.283279034646219E-020
  -81.8200000000000         1.256070139589699E-020
  -81.6300000000000         8.730269985320389E-021
  -81.4400000000000         2.401890085038518E-021
  -81.2500000000000        -4.779361531934822E-021
  -81.0600000000000        -1.101834680940104E-020
  -80.8700000000000        -1.481552528807724E-020
  -80.6800000000000        -1.531215691172895E-020
  -80.4900000000000        -1.245282297842462E-020
  -80.3000000000000        -6.936569339060529E-021
  -80.1100000000000         6.094850482283594E-024
  -79.9200000000000         6.923121037209442E-021
  -79.7300000000000         1.244190085332405E-020
  -79.5400000000000         1.549651644435191E-020
  -79.3500000000000         1.546063977399065E-020
  -79.1600000000000         1.219733009562324E-020
  -78.9700000000000         6.049888232173121E-021
  -78.7800000000000        -2.203672111168785E-021
  -78.5900000000000        -1.142304250609062E-020
  -78.4000000000000        -2.021601159999397E-020
  -78.2100000000000        -2.711271403503222E-020
  -78.0200000000000        -3.081994327121063E-020
  -77.8300000000000        -3.053035171418518E-020
  -77.6400000000000        -2.620587116186803E-020
  -77.4500000000000        -1.872122568139958E-020
  -77.2600000000000        -9.771089649242620E-021
  -77.0700000000000        -1.512517508838875E-021
  -76.8800000000000         3.994854864027520E-021
  -76.6900000000000         5.406812366432552E-021
  -76.5000000000000         2.578680462768768E-021
  -76.3100000000000        -3.270236796438396E-021
  -76.1200000000000        -9.821128739298545E-021
  -75.9300000000000        -1.432037832181190E-020
  -75.7400000000000        -1.446357637769602E-020
  -75.5500000000000        -9.217794604669441E-021
  -75.3600000000000         6.998807153510273E-022
  -75.1700000000000         1.286952846756935E-020
  -74.9800000000000         2.376181861958225E-020
  -74.7900000000000         2.973061372996247E-020
  -74.6000000000000         2.813018220714915E-020
  -74.4100000000000         1.822572696839333E-020
  -74.2200000000000         1.600116883025372E-021
  -74.0300000000000        -1.811041662602705E-020
  -73.8400000000000        -3.612085803495057E-020
  -73.6500000000000        -4.780764844576307E-020
  -73.4600000000000        -5.005030266700660E-020
  -73.2700000000000        -4.219988953420495E-020
  -73.0800000000000        -2.635910892100037E-020
  -72.8900000000000        -6.848368594785629E-021
  -72.7000000000000         1.102252152409522E-020
  -72.5100000000000         2.252621267543681E-020
  -72.3200000000000         2.494563676449050E-020
  -72.1300000000000         1.838943321846308E-020
  -71.9400000000000         5.711983772493131E-021
  -71.7500000000000        -8.450359765675127E-021
  -71.5600000000000        -1.921672154738495E-020
  -71.3700000000000        -2.306711873139989E-020
  -71.1800000000000        -1.898284863596203E-020
  -70.9900000000000        -8.738192234310723E-021
  -70.8000000000000         3.758505512046159E-021
  -70.6100000000000         1.385136744002989E-020
  -70.4200000000000         1.777415993941705E-020
  -70.2300000000000         1.397437275641344E-020
  -70.0400000000000         3.672929694652151E-021
  -69.8500000000000        -9.526407987704264E-021
  -69.6600000000000        -2.084495621578418E-020
  -69.4700000000000        -2.595672159158143E-020
  -69.2800000000000        -2.250582381991715E-020
  -69.0900000000000        -1.101462801345836E-020
  -68.9000000000000         5.135364075426077E-021
  -68.7100000000000         2.068280751284371E-020
  -68.5200000000000         3.014737416122490E-020
  -68.3300000000000         2.965426960993463E-020
  -68.1400000000000         1.832515823957536E-020
  -67.9500000000000        -1.245494974382834E-021
  -67.7600000000000        -2.363033335726699E-020
  -67.5700000000000        -4.216995963948600E-020
  -67.3800000000000        -5.105570853668064E-020
  -67.1900000000000        -4.723211867393263E-020
  -67.0000000000000        -3.148462578237651E-020
  -66.8100000000000        -8.321185388950212E-021
  -66.6200000000000         1.535523143726043E-020
  -66.4300000000000         3.238059290076477E-020
  -66.2400000000000         3.758739526062925E-020
  -66.0500000000000         2.945143090371375E-020
  -65.8600000000000         1.058875973963196E-020
  -65.6700000000000        -1.306327091059675E-020
  -65.4800000000000        -3.412141540627067E-020
  -65.2900000000000        -4.608669404688779E-020
  -65.1000000000000        -4.538099047235335E-020
  -64.9100000000000        -3.244191531809048E-020
  -64.7200000000000        -1.154066973792814E-020
  -64.5300000000000         1.059756993195242E-020
  -64.3400000000000         2.691657150815795E-020
  -64.1500000000000         3.222501411671583E-020
  -63.9600000000000         2.479457171669897E-020
  -63.7700000000000         6.888144303463534E-021
  -63.5800000000000        -1.592681576464248E-020
  -63.3900000000000        -3.646597330778211E-020
  -63.2000000000000        -4.810746948431509E-020
  -63.0100000000000        -4.680422329010686E-020
  -62.8200000000000        -3.231752069667269E-020
  -62.6300000000000        -8.296753128787266E-021
  -62.4400000000000         1.881560478694183E-020
  -62.2500000000000         4.171338347897733E-020
  -62.0600000000000         5.439278436523945E-020
  -61.8700000000000         5.388485757472286E-020
  -61.6800000000000         4.102353143878669E-020
  -61.4900000000000         2.002979177325249E-020
  -61.3000000000000        -2.923383603041574E-021
  -61.1100000000000        -2.167232410485229E-020
  -60.9200000000000        -3.189885117382946E-020
  -60.7300000000000        -3.225935337835643E-020
  -60.5400000000000        -2.449304884977627E-020
  -60.3500000000000        -1.255585749719995E-020
  -60.1600000000000        -1.142756705178959E-021
  -59.9700000000000         5.871100980419483E-021
  -59.7800000000000         6.564436555546152E-021
  -59.5900000000000         1.363161261132567E-021
  -59.4000000000000        -7.348546856155241E-021
  -59.2100000000000        -1.618778623766497E-020
  -59.0200000000000        -2.194268419615253E-020
  -58.8300000000000        -2.257695898279331E-020
  -58.6400000000000        -1.779055365785257E-020
  -58.4500000000000        -9.015332343210404E-021
  -58.2600000000000         1.109707431099678E-021
  -58.0700000000000         9.603598857694393E-021
  -57.8800000000000         1.408244664088535E-020
  -57.6900000000000         1.348362155221200E-020
  -57.5000000000000         8.344911479691880E-021
  -57.3100000000000         5.478354535190006E-022
  -57.1200000000000        -7.382582731220661E-021
  -56.9300000000000        -1.316941878632811E-020
  -56.7400000000000        -1.554303397133388E-020
  -56.5500000000000        -1.459428061828689E-020
  -56.3600000000000        -1.160643243862550E-020
  -56.1700000000000        -8.455153883704355E-021
  -55.9800000000000        -6.830767488581357E-021
  -55.7900000000000        -7.593731695740523E-021
  -55.6000000000000        -1.050317938340274E-020
  -55.4100000000000        -1.439378475364836E-020
  -55.2200000000000        -1.769042830869451E-020
  -55.0300000000000        -1.902500511786351E-020
  -54.8400000000000        -1.770729233670901E-020
  -54.6500000000000        -1.389513964122863E-020
  -54.4600000000000        -8.451016462634557E-021
  -54.2700000000000        -2.592842401463326E-021
  -54.0800000000000         2.499498851602494E-021
  -53.8900000000000         5.983461123245104E-021
  -53.7000000000000         7.492292713236744E-021
  -53.5100000000000         7.120847820616590E-021
  -53.3200000000000         5.310368889378362E-021
  -53.1300000000000         2.690582117264743E-021
  -52.9400000000000        -7.740902102727660E-023
  -52.7500000000000        -2.432675528423066E-021
  -52.5600000000000        -4.006477063663572E-021
  -52.3700000000000        -4.662051242158562E-021
  -52.1800000000000        -4.472651272820820E-021
  -51.9900000000000        -3.646171201905014E-021
  -51.8000000000000        -2.432238391407642E-021
  -51.6100000000000        -1.061554171993210E-021
  -51.4200000000000         2.511928213263985E-022
  -51.2300000000000         1.255189321079846E-021
  -51.0400000000000         1.621856952802020E-021
  -50.8500000000000         9.845131482483876E-022
  -50.6600000000000        -9.109501979575968E-022
  -50.4700000000000        -3.990630508743598E-021
  -50.2800000000000        -7.682913359742252E-021
  -50.0900000000000        -1.091527403106451E-020
  -49.9000000000000        -1.234513017444055E-020
  -49.7100000000000        -1.079619193694913E-020
  -49.5200000000000        -5.768051950799543E-021
  -49.3300000000000         2.181516062542893E-021
  -49.1400000000000         1.137414831753846E-020
  -48.9500000000000         1.936261713052952E-020
  -48.7600000000000         2.363243662732080E-020
  -48.5700000000000         2.243550589424798E-020
  -48.3800000000000         1.545915648998574E-020
  -48.1900000000000         4.071393700993008E-021
  -48.0000000000000        -8.973978551017019E-021
  -47.8100000000000        -2.030000826260807E-020
  -47.6200000000000        -2.690445977324680E-020
  -47.4300000000000        -2.708062787046314E-020
  -47.2400000000000        -2.096983882822279E-020
  -47.0500000000000        -1.056890026488451E-020
  -46.8600000000000         8.130984507916241E-022
  -46.6700000000000         9.488002177304427E-021
  -46.4800000000000         1.244604735762814E-020
  -46.2900000000000         8.248609826385827E-021
  -46.1000000000000        -2.485747834004864E-021
  -45.9100000000000        -1.714720063648770E-020
  -45.7200000000000        -3.176681392528831E-020
  -45.5300000000000        -4.207985668927680E-020
  -45.3400000000000        -4.474645236366514E-020
  -45.1500000000000        -3.837481284403379E-020
  -44.9600000000000        -2.401810771885832E-020
  -44.7700000000000        -4.961465520556632E-021
  -44.5800000000000         1.416451148842773E-020
  -44.3900000000000         2.869234170687108E-020
  -44.2000000000000         3.525665109460336E-020
  -44.0100000000000         3.274816519240845E-020
  -43.8200000000000         2.257656169838066E-020
  -43.6300000000000         8.157978521940567E-021
  -43.4400000000000        -6.193571395932436E-021
  -43.2500000000000        -1.658996550546766E-020
  -43.0600000000000        -2.067066376340171E-020
  -42.8700000000000        -1.815220985150795E-020
  -42.6800000000000        -1.071009091254186E-020
  -42.4900000000000        -1.302030779275150E-021
  -42.3000000000000         6.807527076539099E-021
  -42.1100000000000         1.101553983971590E-020
  -41.9200000000000         1.007710031515164E-020
  -41.7300000000000         4.368445504029143E-021
  -41.5400000000000        -4.315490470093345E-021
  -41.3500000000000        -1.333841417861356E-020
  -41.1600000000000        -2.000353891432240E-020
  -40.9700000000000        -2.233451812543774E-020
  -40.7800000000000        -1.965626172974581E-020
  -40.5900000000000        -1.280979284006972E-020
  -40.4000000000000        -3.914208964078747E-021
  -40.2100000000000         4.282650330532051E-021
  -40.0200000000000         9.276142838104855E-021
  -39.8300000000000         9.609571713436004E-021
  -39.6400000000000         5.328752240689129E-021
  -39.4500000000000        -2.070138415194786E-021
  -39.2600000000000        -1.016687887493441E-020
  -39.0700000000000        -1.642162034829468E-020
  -38.8800000000000        -1.898243965126804E-020
  -38.6900000000000        -1.723629806532395E-020
  -38.5000000000000        -1.193705489640051E-020
  -38.3100000000000        -4.889820868955967E-021
  -38.1200000000000         1.677158568275503E-021
  -37.9300000000000         5.825029797900562E-021
  -37.7400000000000         6.470967507092143E-021
  -37.5500000000000         3.659341517047969E-021
  -37.3600000000000        -1.500062621203379E-021
  -37.1700000000000        -7.173761755497959E-021
  -36.9800000000000        -1.132565073397103E-020
  -36.7900000000000        -1.229737098886942E-020
  -36.6000000000000        -9.314632746043549E-021
  -36.4100000000000        -2.783313154869288E-021
  -36.2200000000000         5.728329058700175E-021
  -36.0300000000000         1.384897123328047E-020
  -35.8400000000000         1.903670366867358E-020
  -35.6500000000000         1.933055423344447E-020
  -35.4600000000000         1.401015283290965E-020
  -35.2700000000000         3.944039753978888E-021
  -35.0800000000000        -8.528226876449616E-021
  -34.8900000000000        -2.019391429121618E-020
  -34.7000000000000        -2.788530937771226E-020
  -34.5100000000000        -2.942971380906946E-020
  -34.3200000000000        -2.432174838716974E-020
  -34.1300000000000        -1.390569967806754E-020
  -33.9400000000000        -1.021107459529535E-021
  -33.7500000000000         1.077523077583668E-020
  -33.5600000000000         1.819035775925225E-020
  -33.3700000000000         1.911232013743048E-020
  -33.1800000000000         1.321007758611211E-020
  -32.9900000000000         2.044633751528020E-021
  -32.8000000000000        -1.134011663133074E-020
  -32.6100000000000        -2.322778391865680E-020
  -32.4200000000000        -3.021823645955788E-020
  -32.2300000000000        -3.013949913927113E-020
  -32.0400000000000        -2.265550320772502E-020
  -31.8500000000000        -9.410537615498641E-021
  -31.6600000000000         6.349853714587733E-021
  -31.4700000000000         2.061552455585406E-020
  -31.2800000000000         2.970311582399574E-020
  -31.0900000000000         3.129664490238977E-020
  -30.9000000000000         2.511891352514452E-020
  -30.7100000000000         1.301507587016705E-020
  -30.5200000000000        -1.591760254351981E-021
  -30.3300000000000        -1.471927835701381E-020
  -30.1400000000000        -2.301295895257317E-020
  -29.9500000000000        -2.472857180740193E-020
  -29.7600000000000        -2.019147292158782E-020
  -29.5700000000000        -1.158868938462311E-020
  -29.3800000000000        -2.184188787361192E-021
  -29.1900000000000         4.757122388657419E-021
  -29.0000000000000         6.974505985522929E-021
  -28.8100000000000         3.842458589978883E-021
  -28.6200000000000        -3.526014393525632E-021
  -28.4300000000000        -1.268988624154278E-020
  -28.2400000000000        -2.065688063153797E-020
  -28.0500000000000        -2.479579791726674E-020
  -27.8600000000000        -2.362363257892930E-020
  -27.6700000000000        -1.724259723775637E-020
  -27.4800000000000        -7.307285024753677E-021
  -27.2900000000000         3.457014809225142E-021
  -27.1000000000000         1.204089964098107E-020
  -26.9100000000000         1.602507849684993E-020
  -26.7200000000000         1.430324728367860E-020
  -26.5300000000000         7.442330753742070E-021
  -26.3400000000000        -2.448011962305040E-021
  -26.1500000000000        -1.232823009575813E-020
  -25.9600000000000        -1.915580704987746E-020
  -25.7700000000000        -2.083381930486990E-020
  -25.5800000000000        -1.686377069913435E-020
  -25.3900000000000        -8.483949116679537E-021
  -25.2000000000000         1.744204940512358E-021
  -25.0100000000000         1.075435889851683E-020
  -24.8200000000000         1.592708962489566E-020
  -24.6300000000000         1.587163166824850E-020
  -24.4400000000000         1.079921324812528E-020
  -24.2500000000000         2.394377382264638E-021
  -24.0600000000000        -6.739438756447686E-021
  -23.8700000000000        -1.385973105968929E-020
  -23.6800000000000        -1.685314589778644E-020
  -23.4900000000000        -1.479625025702190E-020
  -23.3000000000000        -8.191776727198794E-021
  -23.1100000000000         1.157239250215548E-021
  -22.9200000000000         1.060475960165325E-020
  -22.7300000000000         1.735321998560004E-020
  -22.5400000000000         1.921433889636315E-020
  -22.3500000000000         1.523328707114529E-020
  -22.1600000000000         5.992629889594431E-021
  -21.9700000000000        -6.498963721602207E-021
  -21.7800000000000        -1.931098586505265E-020
  -21.5900000000000        -2.936009856580125E-020
  -21.4000000000000        -3.424085827517541E-020
  -21.2100000000000        -3.288577910963936E-020
  -21.0200000000000        -2.585674287722098E-020
  -20.8300000000000        -1.517210085225242E-020
  -20.6400000000000        -3.717363314551010E-021
  -20.4500000000000         5.578888313503384E-021
  -20.2600000000000         1.055143904926863E-020
  -20.0700000000000         1.035462582117223E-020
  -19.8800000000000         5.629249824592975E-021
  -19.6900000000000        -1.739403002499968E-021
  -19.5000000000000        -9.187149841616282E-021
  -19.3100000000000        -1.419993846586653E-020
  -19.1200000000000        -1.501010785491270E-020
  -18.9300000000000        -1.107858241906952E-020
  -18.7400000000000        -3.244773327693392E-021
  -18.5500000000000         6.488014845333425E-021
  -18.3600000000000         1.548000401098635E-020
  -18.1700000000000         2.117086403133166E-020
  -17.9800000000000         2.180422955756594E-020
  -17.7900000000000         1.695881540084290E-020
  -17.6000000000000         7.715634595877484E-021
  -17.4100000000000        -3.615821252905540E-021
  -17.2200000000000        -1.415163685627943E-020
  -17.0300000000000        -2.127338659409473E-020
  -16.8400000000000        -2.339097098969921E-020
  -16.6500000000000        -2.039155601385745E-020
  -16.4600000000000        -1.363876615518609E-020
  -16.2700000000000        -5.520906047453553E-021
  -16.0800000000000         1.317878887617178E-021
  -15.8900000000000         4.824961772156116E-021
  -15.7000000000000         4.190843115206077E-021
  -15.5100000000000         8.877134929954123E-023
  -15.3200000000000        -5.576404850628838E-021
  -15.1300000000000        -1.032217274449214E-020
  -14.9400000000000        -1.192349409302379E-020
  -14.7500000000000        -9.156444915925323E-021
  -14.5600000000000        -2.221674429849943E-021
  -14.3700000000000         7.271495840633526E-021
  -14.1800000000000         1.675005166823443E-020
  -13.9900000000000         2.342357845096098E-020
  -13.8000000000000         2.511914469427758E-020
  -13.6100000000000         2.096216887028173E-020
  -13.4200000000000         1.169963889025939E-020
  -13.2300000000000        -4.417128305171393E-022
  -13.0400000000000        -1.234375809521374E-020
  -12.8500000000000        -2.088434558375672E-020
  -12.6600000000000        -2.387359265800311E-020
  -12.4700000000000        -2.075006530441435E-020
  -12.2800000000000        -1.279985189552573E-020
  -12.0900000000000        -2.800187533520847E-021
  -11.9000000000000         5.824101574710178E-021
  -11.7100000000000         1.007213901955802E-020
  -11.5200000000000         8.321443063339479E-021
  -11.3300000000000         8.579158837274716E-022
  -11.1400000000000        -1.018417589890025E-020
  -10.9500000000000        -2.145168562766993E-020
  -10.7600000000000        -2.937944128191586E-020
  -10.5700000000000        -3.126842767867345E-020
  -10.3800000000000        -2.610657752701485E-020
  -10.1900000000000        -1.488565200016283E-020
  -10.0000000000000        -3.288110941734009E-022
  -9.81000000000000         1.387452474115523E-020
  -9.62000000000000         2.408813437600710E-020
  -9.42999999999999         2.770504704064020E-020
  -9.23999999999999         2.381653212022858E-020
  -9.05000000000000         1.341286459560144E-020
  -8.86000000000000        -9.174187062685977E-022
  -8.67000000000000        -1.570048783455673E-020
  -8.48000000000000        -2.751052801362848E-020
  -8.28999999999999        -3.386896543265869E-020
  -8.09999999999999        -3.385952125214088E-020
  -7.91000000000000        -2.828805274756211E-020
  -7.72000000000000        -1.934783277979121E-020
  -7.53000000000000        -9.897693524967254E-021
  -7.34000000000000        -2.579873202764714E-021
  -7.15000000000001         9.462796281086834E-022
  -6.95999999999999         4.229415447923581E-022
  -6.77000000000000        -3.044829428438118E-021
  -6.58000000000000        -7.441867487694388E-021
  -6.39000000000000        -1.053717738480916E-020
  -6.20000000000000        -1.058476619884424E-020
  -6.01000000000001        -6.820187504474958E-021
  -5.81999999999999         3.674336216513566E-022
  -5.63000000000000         9.598506935568098E-021
  -5.44000000000000         1.892157940681465E-020
  -5.25000000000000         2.635021774186383E-020
  -5.06000000000000         3.036176913409154E-020
  -4.87000000000000         3.022783227132117E-020
  -4.67999999999999         2.611050693791732E-020
  -4.48999999999999         1.893374566771493E-020
  -4.30000000000000         1.009748270520619E-020
  -4.11000000000000         1.128895852720232E-021
  -3.92000000000000        -6.641397002229420E-021
  -3.73000000000000        -1.231792585763110E-020
  -3.53999999999999        -1.556128758232963E-020
  -3.34999999999999        -1.657828977317532E-020
  -3.16000000000000        -1.598962563605384E-020
  -2.97000000000000        -1.461359480826317E-020
  -2.78000000000000        -1.322911414489170E-020
  -2.59000000000000        -1.238302861634662E-020
  -2.40000000000001        -1.228590117868954E-020
  -2.20999999999999        -1.280878290945846E-020
  -2.02000000000000        -1.356198096606664E-020
  -1.83000000000000        -1.401762133640964E-020
  -1.64000000000000        -1.364017361070718E-020
  -1.45000000000000        -1.200616115490872E-020
  -1.26000000000001        -8.907256376763736E-021
  -1.06999999999999        -4.430457876532140E-021
 -0.879999999999995         9.998263209103954E-022
 -0.689999999999998         6.642103923143607E-021
 -0.500000000000000         1.154503118998280E-020
 -0.310000000000002         1.474559549174940E-020
 -0.120000000000005         1.552192532056622E-020
  7.000000000000739E-002    1.362687987693789E-020
  0.260000000000005         9.418453402828128E-021
  0.450000000000003         3.824762806990831E-021
  0.640000000000001        -1.873566893170983E-021
  0.829999999999998        -6.400971401685242E-021
   1.02000000000000        -8.882502806795167E-021
   1.21000000000001        -9.142863584797598E-021
   1.40000000000001        -7.789170452116208E-021
   1.59000000000000        -6.020769016683397E-021
   1.78000000000000        -5.205045749137073E-021
   1.97000000000000        -6.354947398918983E-021
   2.16000000000000        -9.696946987247612E-021
   2.34999999999999        -1.449501008948189E-020
   2.54000000000001        -1.920651200732345E-020
   2.73000000000000        -2.193333514908505E-020
   2.92000000000000        -2.103662169398395E-020
   3.11000000000000        -1.572985885637935E-020
   3.30000000000000        -6.463286004708039E-021
   3.48999999999999         5.037317330548097E-021
   3.68000000000001         1.612623479879842E-020
   3.87000000000000         2.392760173541358E-020
   4.06000000000000         2.618769334756851E-020
   4.25000000000000         2.203647777764434E-020
   4.44000000000000         1.239641163835337E-020
   4.63000000000000        -1.384437852960968E-022
   4.82000000000001        -1.197157801329362E-020
   5.01000000000001        -1.955739263034579E-020
   5.20000000000000        -2.052629186668407E-020
   5.39000000000000        -1.451278670460351E-020
   5.58000000000000        -3.388353149705463E-021
   5.77000000000000         9.218089423247929E-021
   5.96000000000001         1.899927549490646E-020
   6.15000000000001         2.233206439782094E-020
   6.34000000000000         1.749565068311292E-020
   6.53000000000000         5.341363626288175E-021