  -105.000000000000         0.000000000000000E+000
  -104.810000000000         1.857421418834551E-020
  -104.620000000000         4.145576864397167E-020
  -104.430000000000         5.360434244806742E-020
  -104.240000000000         5.291339902397921E-020
  -104.050000000000         5.141328568149390E-020
  -103.860000000000         6.296176168546999E-020
  -103.670000000000         8.928913092080596E-020
  -103.480000000000         1.177926957745247E-019
  -103.290000000000         1.332224434752199E-019
  -103.100000000000         1.321001353006162E-019
  -102.910000000000         1.260663442406297E-019
  -102.720000000000         1.309066200175407E-019
  -102.530000000000         1.516863315055220E-019
  -102.340000000000         1.781368129810323E-019
  -102.150000000000         1.946438348728932E-019
  -101.960000000000         1.952676288092100E-019
  -101.770000000000         1.894510924723868E-019
  -101.580000000000         1.929758737335197E-019
  -101.390000000000         2.128133225314375E-019
  -101.200000000000         2.403594156617399E-019
  -101.010000000000         2.595444501825262E-019
  -100.820000000000         2.620871665715524E-019
  -100.630000000000         2.553208859749746E-019
  -100.440000000000         2.551125355054298E-019
  -100.250000000000         2.706359641405741E-019
  -100.060000000000         2.955401323996966E-019
  -99.8700000000000         3.139585920014886E-019
  -99.6800000000000         3.156529170764641E-019
  -99.4900000000000         3.058514122636995E-019
  -99.3000000000000         3.003742620951468E-019
  -99.1100000000000         3.106629753097463E-019
  -98.9200000000000         3.329717782068487E-019
  -98.7300000000000         3.520067042531555E-019
  -98.5400000000000         3.555127087259225E-019
  -98.3500000000000         3.458909162092964E-019
  -98.1600000000000         3.378017824830923E-019
  -97.9700000000000         3.440959896059640E-019
  -97.7800000000000         3.635406458171986E-019
  -97.5900000000000         3.820754488735293E-019
  -97.4000000000000         3.863903699467607E-019
  -97.2100000000000         3.768169568692648E-019
  -97.0200000000000         3.671634096057872E-019
  -96.8300000000000         3.716021137591602E-019
  -96.6400000000000         3.910958406562732E-019
  -96.4500000000000         4.122976566474474E-019
  -96.2600000000000         4.199769305705902E-019
  -96.0700000000000         4.111559048808331E-019
  -95.8800000000000         3.975392406271757E-019
  -95.6900000000000         3.940032874043673E-019
  -95.5000000000000         4.042244512937044E-019
  -95.3100000000000         4.172489125608302E-019
  -95.1200000000000         4.183134747803893E-019
  -94.9300000000000         4.035510759209723E-019
  -94.7400000000000         3.844487599065112E-019
  -94.5500000000000         3.776724308118069E-019
  -94.3600000000000         3.898226886296363E-019
  -94.1700000000000         4.115440121289975E-019
  -93.9800000000000         4.265455657503682E-019
  -93.7900000000000         4.269280559229935E-019
  -93.6000000000000         4.202365231995655E-019
  -93.4100000000000         4.215905162116489E-019
  -93.2200000000000         4.385160545541830E-019
  -93.0300000000000         4.630679815522079E-019
  -92.8400000000000         4.788374896372318E-019
  -92.6500000000000         4.762008744030654E-019
  -92.4600000000000         4.612865151202011E-019
  -92.2700000000000         4.501156020976163E-019
  -92.0800000000000         4.534986932160024E-019
  -91.8900000000000         4.670790740634359E-019
  -91.7000000000000         4.759892812379470E-019
  -91.5100000000000         4.696137741129351E-019
  -91.3200000000000         4.522878449323467E-019
  -91.1300000000000         4.396575823693714E-019
  -90.9400000000000         4.441368123380795E-019
  -90.7500000000000         4.633086287181485E-019
  -90.5600000000000         4.823109930946848E-019
  -90.3700000000000         4.879193880320333E-019
  -90.1800000000000         4.808976149603702E-019
  -89.9900000000000         4.748541305936872E-019
  -89.8000000000000         4.827465704634548E-019
  -89.6100000000000         5.040041575807614E-019
  -89.4200000000000         5.246608413463350E-019
  -89.2300000000000         5.304476066777799E-019
  -89.0400000000000         5.203823266903151E-019
  -88.8500000000000         5.078746525933922E-019
  -88.6600000000000         5.082235934242233E-019
  -88.4700000000000         5.243325628733584E-019
  -88.2800000000000         5.441774699258911E-019
  -88.0900000000000         5.523898531946015E-019
  -87.9000000000000         5.448873023371078E-019
  -87.7100000000000         5.326156160677977E-019
  -87.5200000000000         5.309056468395945E-019
  -87.3300000000000         5.446985990899886E-019
  -87.1400000000000         5.638077685822314E-019
  -86.9500000000000         5.727542616375023E-019
  -86.7600000000000         5.657638731765587E-019
  -86.5700000000000         5.525531181734183E-019
  -86.3800000000000         5.492970948624476E-019
  -86.1900000000000         5.633179136392720E-019
  -86.0000000000000         5.860574904298321E-019
  -85.8100000000000         6.010233453566058E-019
  -85.6200000000000         5.991366338079177E-019
  -85.4300000000000         5.868991705746313E-019
  -85.2400000000000         5.797046504352088E-019
  -85.0500000000000         5.868101094975200E-019
  -84.8600000000000         6.024103562872231E-019
  -84.6700000000000         6.113837542094026E-019
  -84.4800000000000         6.042126666209720E-019
  -84.2900000000000         5.867493382822240E-019
  -84.1000000000000         5.753643221172854E-019
  -83.9100000000000         5.819667181608921E-019
  -83.7200000000000         6.030870841245825E-019
  -83.5300000000000         6.233769633044220E-019
  -83.3400000000000         6.301692972536896E-019
  -83.1500000000000         6.252421524261387E-019
  -82.9600000000000         6.226257343418154E-019
  -82.7700000000000         6.346093253427709E-019
  -82.5800000000000         6.593623361734627E-019
  -82.3900000000000         6.820459768735403E-019
  -82.2000000000000         6.884061199267001E-019
  -82.0100000000000         6.779105853727934E-019
  -81.8200000000000         6.639371857733705E-019
  -81.6300000000000         6.608952266828101E-019
  -81.4400000000000         6.706210263393075E-019
  -81.2500000000000         6.810389022292153E-019
  -81.0600000000000         6.783299360618446E-019
  -80.8700000000000         6.609175661451110E-019
  -80.6800000000000         6.418031750493308E-019
  -80.4900000000000         6.368886646341879E-019
  -80.3000000000000         6.503234457036028E-019
  -80.1100000000000         6.707914211949347E-019
  -79.9200000000000         6.822437969000215E-019
  -79.7300000000000         6.788431461376664E-019
  -79.5400000000000         6.699321448330412E-019
  -79.3500000000000         6.704124585274083E-019
  -79.1600000000000         6.858602127316840E-019
  -78.9700000000000         7.067225214047553E-019
  -78.7800000000000         7.172408241708155E-019
  -78.5900000000000         7.106149502608698E-019
  -78.4000000000000         6.958698211242777E-019
  -78.2100000000000         6.897432846966625E-019
  -78.0200000000000         7.011933339134534E-019
  -77.8300000000000         7.231810399705955E-019
  -77.6400000000000         7.394899095134245E-019
  -77.4500000000000         7.400738495109030E-019
  -77.2600000000000         7.303590636896263E-019
  -77.0700000000000         7.257205178213811E-019
  -76.8800000000000         7.364937184991447E-019
  -76.6900000000000         7.578937830428629E-019
  -76.5000000000000         7.744884923405955E-019
  -76.3100000000000         7.749278663711879E-019
  -76.1200000000000         7.628175610931677E-019
  -75.9300000000000         7.533151349543706E-019
  -75.7400000000000         7.586704950850520E-019
  -75.5500000000000         7.764915475802511E-019
  -75.3600000000000         7.919342076916590E-019
  -75.1700000000000         7.917527691392601E-019
  -74.9800000000000         7.768366866518091E-019
  -74.7900000000000         7.613043198522384E-019
  -74.6000000000000         7.590626673361875E-019
  -74.4100000000000         7.707005482106964E-019
  -74.2200000000000         7.832233694035937E-019
  -74.0300000000000         7.828314571032434E-019
  -73.8400000000000         7.684765111054673E-019
  -73.6500000000000         7.531963482105376E-019
  -73.4600000000000         7.519093553772515E-019
  -73.2700000000000         7.673041878503570E-019
  -73.0800000000000         7.873166525112002E-019
  -72.8900000000000         7.966371153787814E-019
  -72.7000000000000         7.912770384457465E-019
  -72.5100000000000         7.822825819375510E-019
  -72.3200000000000         7.850384662511346E-019
  -72.1300000000000         8.043538545137831E-019
  -71.9400000000000         8.295457579052685E-019
  -71.7500000000000         8.442189525496840E-019
  -71.5600000000000         8.414551438456614E-019
  -71.3700000000000         8.299814432274461E-019
  -71.1800000000000         8.254985128909769E-019
  -70.9900000000000         8.355127299903547E-019
  -70.8000000000000         8.522008615515486E-019
  -70.6100000000000         8.601206130349112E-019
  -70.4200000000000         8.513576451526801E-019
  -70.2300000000000         8.335760234176451E-019
  -70.0400000000000         8.232044004351545E-019
  -69.8500000000000         8.301764671758533E-019
  -69.6600000000000         8.487278854761253E-019
  -69.4700000000000         8.630149973856969E-019
  -69.2800000000000         8.622040061793269E-019
  -69.0900000000000         8.506501948409423E-019
  -68.9000000000000         8.434921454638366E-019
  -68.7100000000000         8.519332614886611E-019
  -68.5200000000000         8.723249995234896E-019
  -68.3300000000000         8.895073813863127E-019
  -68.1400000000000         8.912255452753364E-019
  -67.9500000000000         8.798467580349842E-019
  -67.7600000000000         8.701508432800183E-019
  -67.5700000000000         8.752455578601851E-019
  -67.3800000000000         8.940153022968859E-019
  -67.1900000000000         9.120847493042440E-019
  -67.0000000000000         9.154015982799666E-019
  -66.8100000000000         9.035138979140768E-019
  -66.6200000000000         8.899230121031698E-019
  -66.4300000000000         8.892150712872452E-019
  -66.2400000000000         9.032480097268296E-019
  -66.0500000000000         9.195388948783500E-019
  -65.8600000000000         9.233509333245454E-019
  -65.6700000000000         9.119122442570086E-019
  -65.4800000000000         8.971701458369441E-019
  -65.2900000000000         8.944466042879689E-019
  -65.1000000000000         9.078399248356547E-019
  -64.9100000000000         9.263206520989766E-019
  -64.7200000000000         9.342452490084761E-019
  -64.5300000000000         9.262512408466427E-019
  -64.3400000000000         9.123298061387704E-019
  -64.1500000000000         9.082489489701285E-019
  -63.9600000000000         9.204783944843380E-019
  -63.7700000000000         9.400159994221666E-019
  -63.5800000000000         9.510063000133874E-019
  -63.3900000000000         9.458927108126868E-019
  -63.2000000000000         9.326009590762912E-019
  -63.0100000000000         9.268924318538812E-019
  -62.8200000000000         9.372215116989690E-019
  -62.6300000000000         9.565985773184721E-019
  -62.4400000000000         9.692685343912631E-019
  -62.2500000000000         9.658567692328540E-019
  -62.0600000000000         9.525122172432765E-019
  -61.8700000000000         9.452611286074426E-019
  -61.6800000000000         9.548878279609876E-019
  -61.4900000000000         9.767168250077184E-019
  -61.3000000000000         9.950086151845168E-019
  -61.1100000000000         9.977528388671356E-019
  -60.9200000000000         9.877594202807951E-019
  -60.7300000000000         9.795231027796597E-019
  -60.5400000000000         9.849295742340421E-019
  -60.3500000000000         1.001522714778781E-018
  -60.1600000000000         1.014613206766830E-018
  -59.9700000000000         1.011284400568050E-018
  -59.7800000000000         9.929493734134419E-019
  -59.5900000000000         9.744460710188630E-019
  -59.4000000000000         9.704752518991309E-019
  -59.2100000000000         9.822400396510524E-019
  -59.0200000000000         9.969308126478977E-019
  -58.8300000000000         1.000447482443964E-018
  -58.6400000000000         9.911551013608097E-019
  -58.4500000000000         9.815180585744341E-019
  -58.2600000000000         9.860556234321555E-019
  -58.0700000000000         1.007154531920521E-018
  -57.8800000000000         1.032348696590207E-018
  -57.6900000000000         1.045723655873257E-018
  -57.5000000000000         1.042597040578040E-018
  -57.3100000000000         1.033493334018024E-018
  -57.1200000000000         1.033654221732039E-018
  -56.9300000000000         1.048126074396808E-018
  -56.7400000000000         1.066684507060668E-018
  -56.5500000000000         1.073476794582065E-018
  -56.3600000000000         1.062213052824266E-018
  -56.1700000000000         1.042413379618779E-018
  -55.9800000000000         1.030726595122230E-018
  -55.7900000000000         1.035565643276178E-018
  -55.6000000000000         1.049654105928433E-018
  -55.4100000000000         1.057496413014679E-018
  -55.2200000000000         1.050546569943487E-018
  -55.0300000000000         1.035546050988673E-018
  -54.8400000000000         1.028064216264285E-018
  -54.6500000000000         1.037430196620366E-018
  -54.4600000000000         1.057497372309763E-018
  -54.2700000000000         1.072139953735996E-018
  -54.0800000000000         1.070312120271941E-018
  -53.8900000000000         1.056349382787798E-018
  -53.7000000000000         1.045717775492046E-018
  -53.5100000000000         1.050284255594825E-018
  -53.3200000000000         1.067141629812182E-018
  -53.1300000000000         1.081595586745771E-018
  -52.9400000000000         1.081402253433390E-018
  -52.7500000000000         1.068618348425925E-018
  -52.5600000000000         1.057721744272999E-018
  -52.3700000000000         1.061803989908383E-018
  -52.1800000000000         1.080068571425918E-018
  -51.9900000000000         1.098629662719913E-018
  -51.8000000000000         1.103870850178290E-018
  -51.6100000000000         1.095588848129449E-018
  -51.4200000000000         1.087322137871962E-018
  -51.2300000000000         1.093475336752594E-018
  -51.0400000000000         1.115454714248568E-018
  -50.8500000000000         1.140014416660278E-018
  -50.6600000000000         1.151412888767736E-018
  -50.4700000000000         1.145835027835778E-018
  -50.2800000000000         1.134402033521650E-018
  -50.0900000000000         1.132013170947058E-018
  -49.9000000000000         1.142786489644494E-018
  -49.7100000000000         1.156064773053564E-018
  -49.5200000000000         1.156809188920201E-018
  -49.3300000000000         1.140426250689866E-018
  -49.1400000000000         1.117800889161707E-018
  -48.9500000000000         1.105618297916244E-018
  -48.7600000000000         1.111095278189280E-018
  -48.5700000000000         1.125612693538033E-018
  -48.3800000000000         1.133284106067085E-018
  -48.1900000000000         1.126271515339660E-018
  -48.0000000000000         1.112256238945105E-018
  -47.8100000000000         1.106987997377011E-018
  -47.6200000000000         1.119070655119087E-018
  -47.4300000000000         1.141529055101930E-018
  -47.2400000000000         1.158218297827383E-018
  -47.0500000000000         1.158963087047985E-018
  -46.8600000000000         1.148965879712815E-018
  -46.6700000000000         1.143494178760154E-018
  -46.4800000000000         1.152943491644631E-018
  -46.2900000000000         1.172592586385743E-018
  -46.1000000000000         1.186890271659931E-018
  -45.9100000000000         1.184228058688941E-018
  -45.7200000000000         1.168127621771986E-018
  -45.5300000000000         1.154159183128279E-018
  -45.3400000000000         1.155477560633940E-018
  -45.1500000000000         1.170697134919290E-018
  -44.9600000000000         1.185592070553341E-018
  -44.7700000000000         1.186919465902799E-018
  -44.5800000000000         1.175117106775112E-018
  -44.3900000000000         1.163759513633907E-018
  -44.2000000000000         1.166353434615025E-018
  -44.0100000000000         1.183154086770641E-018
  -43.8200000000000         1.200648283806199E-018
  -43.6300000000000         1.204246775935989E-018
  -43.4400000000000         1.192103092547340E-018
  -43.2500000000000         1.176868066873349E-018
  -43.0600000000000         1.173680075061909E-018
  -42.8700000000000         1.185830921235135E-018
  -42.6800000000000         1.201771494819634E-018
  -42.4900000000000         1.206293250068774E-018
  -42.3000000000000         1.195197710875271E-018
  -42.1100000000000         1.179457887442368E-018
  -41.9200000000000         1.174911688898435E-018
  -41.7300000000000         1.187324515191920E-018
  -41.5400000000000         1.207069861840212E-018
  -41.3500000000000         1.218487076985924E-018
  -41.1600000000000         1.214937376982094E-018
  -40.9700000000000         1.205118077782402E-018
  -40.7800000000000         1.204563435147750E-018
  -40.5900000000000         1.220455133220168E-018
  -40.4000000000000         1.244293871800978E-018
  -40.2100000000000         1.259504709862267E-018
  -40.0200000000000         1.256812711248606E-018
  -39.8300000000000         1.242803237033179E-018
  -39.6400000000000         1.233546541374922E-018
  -39.4500000000000         1.239375468846100E-018
  -39.2600000000000         1.255314307005142E-018
  -39.0700000000000         1.266226077766532E-018
  -38.8800000000000         1.261664434648126E-018
  -38.6900000000000         1.246159710729227E-018
  -38.5000000000000         1.235070721784271E-018
  -38.3100000000000         1.239952540116036E-018
  -38.1200000000000         1.257425046719241E-018
  -37.9300000000000         1.272219059092279E-018
  -37.7400000000000         1.271571015379335E-018
  -37.5500000000000         1.257293183641760E-018
  -37.3600000000000         1.244026748585211E-018
  -37.1700000000000         1.245343893995367E-018
  -36.9800000000000         1.260941267722075E-018
  -36.7900000000000         1.277098134478174E-018
  -36.6000000000000         1.279897729028136E-018
  -36.4100000000000         1.268543850324680E-018
  -36.2200000000000         1.256037027641901E-018
  -36.0300000000000         1.256555980256194E-018
  -35.8400000000000         1.271608916585056E-018
  -35.6500000000000         1.288234802164758E-018
  -35.4600000000000         1.291050209192958E-018
  -35.2700000000000         1.276707263466594E-018
  -35.0800000000000         1.257013081163449E-018
  -34.8900000000000         1.247775055523665E-018
  -34.7000000000000         1.254029104588627E-018
  -34.5100000000000         1.265710870301490E-018
  -34.3200000000000         1.267831552686033E-018
  -34.1300000000000         1.255368528171297E-018
  -33.9400000000000         1.238577744496778E-018
  -33.7500000000000         1.233584668648120E-018
  -33.5600000000000         1.247190425594025E-018
  -33.3700000000000         1.270377145619707E-018
  -33.1800000000000         1.286701016569398E-018
  -32.9900000000000         1.287569422786823E-018
  -32.8000000000000         1.279872176791361E-018
  -32.6100000000000         1.278771986613909E-018
  -32.4200000000000         1.292630456705636E-018
  -32.2300000000000         1.314545887377423E-018
  -32.0400000000000         1.328656559557801E-018
  -31.8500000000000         1.325230795058436E-018
  -31.6600000000000         1.310119707823761E-018
  -31.4700000000000         1.299492544975282E-018
  -31.2800000000000         1.304815008666309E-018
  -31.0900000000000         1.322339091138078E-018
  -30.9000000000000         1.337062451237328E-018
  -30.7100000000000         1.337318384715899E-018
  -30.5200000000000         1.326031734898717E-018
  -30.3300000000000         1.317869670878412E-018
  -30.1400000000000         1.325000935452166E-018
  -29.9500000000000         1.345096783461231E-018
  -29.7600000000000         1.363105594352988E-018
  -29.5700000000000         1.365189159188873E-018
  -29.3800000000000         1.351590193226993E-018
  -29.1900000000000         1.336215263280165E-018
  -29.0000000000000         1.333373097899682E-018
  -28.8100000000000         1.344317059226454E-018
  -28.6200000000000         1.356383233907954E-018
  -28.4300000000000         1.355474652698591E-018
  -28.2400000000000         1.339895588600959E-018
  -28.0500000000000         1.322256734001341E-018
  -27.8600000000000         1.317595469601351E-018
  -27.6700000000000         1.329063074317164E-018
  -27.4800000000000         1.344879180251169E-018
  -27.2900000000000         1.349506734106474E-018
  -27.1000000000000         1.338438696333691E-018
  -26.9100000000000         1.322539064860176E-018
  -26.7200000000000         1.317815613752876E-018
  -26.5300000000000         1.330361960885053E-018
  -26.3400000000000         1.350791455855142E-018
  -26.1500000000000         1.363405337743694E-018
  -25.9600000000000         1.361251153861214E-018
  -25.7700000000000         1.352612046831106E-018
  -25.5800000000000         1.352699286773811E-018
  -25.3900000000000         1.368510775221457E-018
  -25.2000000000000         1.391397674187441E-018
  -25.0100000000000         1.404572394766770E-018
  -24.8200000000000         1.398553283382466E-018
  -24.6300000000000         1.379933420807516E-018
  -24.4400000000000         1.365159149036887E-018
  -24.2500000000000         1.365241328550506E-018
  -24.0600000000000         1.375918393413323E-018
  -23.8700000000000         1.382530048054857E-018
  -23.6800000000000         1.374790967116621E-018
  -23.4900000000000         1.357232826370455E-018
  -23.3000000000000         1.345275591750424E-018
  -23.1100000000000         1.350651198387805E-018
  -22.9200000000000         1.370100250689570E-018
  -22.7300000000000         1.388173733825581E-018
  -22.5400000000000         1.391528558638795E-018
  -22.3500000000000         1.381134742781750E-018
  -22.1600000000000         1.370811431525255E-018
  -21.9700000000000         1.373572704697536E-018
  -21.7800000000000         1.388890277779913E-018
  -21.5900000000000         1.403069193900024E-018
  -21.4000000000000         1.402388347107581E-018
  -21.2100000000000         1.386458918578700E-018
  -21.0200000000000         1.369020356904322E-018
  -20.8300000000000         1.365355635970869E-018
  -20.6400000000000         1.378272598659035E-018
  -20.4500000000000         1.395967412255162E-018
  -20.2600000000000         1.403726158147279E-018
  -20.0700000000000         1.398195961249096E-018
  -19.8800000000000         1.390526382459856E-018
  -19.6900000000000         1.395356594497820E-018
  -19.5000000000000         1.416192052232168E-018
  -19.3100000000000         1.441226426196335E-018
  -19.1200000000000         1.453755806581459E-018
  -18.9300000000000         1.447417268696600E-018
  -18.7400000000000         1.431832775819656E-018
  -18.5500000000000         1.423330315921204E-018
  -18.3600000000000         1.429592925142534E-018
  -18.1700000000000         1.442810396256756E-018
  -17.9800000000000         1.447733046638781E-018
  -17.7900000000000         1.436798059963824E-018
  -17.6000000000000         1.417794703399877E-018
  -17.4100000000000         1.406710668136174E-018
  -17.2200000000000         1.412592366586116E-018
  -17.0300000000000         1.428918472042176E-018
  -16.8400000000000         1.439791339543530E-018
  -16.6500000000000         1.435090065089564E-018
  -16.4600000000000         1.420144555906544E-018
  -16.2700000000000         1.410702530666241E-018
  -16.0800000000000         1.417979342706424E-018
  -15.8900000000000         1.438013771432319E-018
  -15.7000000000000         1.455428819605165E-018
  -15.5100000000000         1.457968189237936E-018
  -15.3200000000000         1.447923309958622E-018
  -15.1300000000000         1.439559113941125E-018
  -14.9400000000000         1.445050544374810E-018
  -14.7500000000000         1.462451010875285E-018
  -14.5600000000000         1.477277120472272E-018
  -14.3700000000000         1.476254755173882E-018
  -14.1800000000000         1.460112128984444E-018
  -13.9900000000000         1.443169714693826E-018
  -13.8000000000000         1.440036946621561E-018
  -13.6100000000000         1.452016601788242E-018
  -13.4200000000000         1.466128513038387E-018
  -13.2300000000000         1.467667992263650E-018
  -13.0400000000000         1.454324507999308E-018
  -12.8500000000000         1.438414053452684E-018
  -12.6600000000000         1.435139576652990E-018
  -12.4700000000000         1.448118891463883E-018
  -12.2800000000000         1.465984196946472E-018
  -12.0900000000000         1.473256930003380E-018
  -11.9000000000000         1.465080808838679E-018
  -11.7100000000000         1.451732831760454E-018
  -11.5200000000000         1.448607399341611E-018
  -11.3300000000000         1.461262878620111E-018
  -11.1400000000000         1.479859408266693E-018
  -10.9500000000000         1.488349593204019E-018
  -10.7600000000000         1.479680854340133E-018
  -10.5700000000000         1.462522951471032E-018
  -10.3800000000000         1.453120143078280E-018
  -10.1900000000000         1.460038620378051E-018
  -10.0000000000000         1.476324758841032E-018
  -9.81000000000000         1.486498561348356E-018
  -9.62000000000000         1.481638319907527E-018
  -9.42999999999999         1.468080839863370E-018
  -9.23999999999999         1.461374674690517E-018
  -9.05000000000000         1.471259029518508E-018
  -8.86000000000000         1.492065319187388E-018
  -8.67000000000000         1.507785849316649E-018
  -8.48000000000000         1.507053722736216E-018
  -8.28999999999999         1.493800955983240E-018
  -8.09999999999999         1.483442592489868E-018
  -7.91000000000000         1.488197577476756E-018
  -7.72000000000000         1.505507393523160E-018
  -7.53000000000000         1.520570234945410E-018
  -7.34000000000000         1.520547592802435E-018
  -7.15000000000001         1.506870038296822E-018
  -6.95999999999999         1.493910727858471E-018
  -6.77000000000000         1.495328209618226E-018
  -6.58000000000000         1.511134017497523E-018
  -6.39000000000000         1.527816550034272E-018
  -6.20000000000000         1.531375924951907E-018
  -6.01000000000001         1.520796831805492E-018
  -5.81999999999999         1.509061566521082E-018
  -5.63000000000000         1.510706613335066E-018
  -5.44000000000000         1.527797855909118E-018
  -5.25000000000000         1.547725827748760E-018
  -5.06000000000000         1.554940562056415E-018
  -4.87000000000000         1.545454803704603E-018
  -4.67999999999999         1.530331524487295E-018
  -4.48999999999999         1.524894008927436E-018
  -4.30000000000000         1.534004022628561E-018
  -4.11000000000000         1.547483516221043E-018
  -3.92000000000000         1.550046063316587E-018
  -3.73000000000000         1.536206936845811E-018
  -3.53999999999999         1.515846872799975E-018
  -3.34999999999999         1.505030081103953E-018
  -3.16000000000000         1.510792445262024E-018
  -2.97000000000000         1.524415059762226E-018
  -2.78000000000000         1.529643241523694E-018
  -2.59000000000000         1.518088150532781E-018
  -2.40000000000001         1.497200610094904E-018
  -2.20999999999999         1.483259337401969E-018
  -2.02000000000000         1.486073287055153E-018
  -1.83000000000000         1.499973727922061E-018
  -1.64000000000000         1.509632195061683E-018
  -1.45000000000000         1.505055572723194E-018
  -1.26000000000001         1.491354908816616E-018
  -1.06999999999999         1.483915290938164E-018
 -0.879999999999995         1.493567116829200E-018
 -0.689999999999998         1.515926501340609E-018
 -0.500000000000000         1.535123566134559E-018
 -0.310000000000002         1.538434845688525E-018
 -0.120000000000005         1.527935798286470E-018
  7.000000000000739E-002    1.518127744088625E-018
  0.260000000000005         1.521875786783423E-018
  0.450000000000003         1.538124952802306E-018
  0.640000000000001         1.553103898235585E-018
  0.829999999999998         1.553795787151586E-018
   1.02000000000000         1.540729605803911E-018
   1.21000000000001         1.527798900539794E-018
   1.40000000000001         1.529209882553940E-018
   1.59000000000000         1.545981928647428E-018
   1.78000000000000         1.564902263921687E-018
   1.97000000000000         1.570973129854044E-018
   2.16000000000000         1.561499381068398E-018
   2.34999999999999         1.548388041022759E-018
   2.54000000000001         1.546487478060502E-018
   2.73000000000000         1.559121119925404E-018
   2.92000000000000         1.574652641354939E-018
   3.11000000000000         1.577410763716131E-018
   3.30000000000000         1.562608864655148E-018
   3.48999999999999         1.541058422847067E-018
   3.68000000000001         1.529177381750782E-018
   3.87000000000000         1.533802837653694E-018
   4.06000000000000         1.546248351756328E-018
   4.25000000000000         1.551184077140446E-018
   4.44000000000000         1.541755521742473E-018
   4.63000000000000         1.526431356939602E-018
   4.82000000000001         1.521005803687536E-018
   5.01000000000001         1.533379210635063E-018
   5.20000000000000         1.555666375596445E-018
   5.39000000000000         1.571228109486124E-018
   5.58000000000000         1.569999017225653E-018
   5.77000000000000         1.557567579415546E-018
   5.96000000000001         1.549430700278335E-018
   6.15000000000001         1.555985499746265E-018
   6.34000000000000         1.572610852504134E-018
   6.53000000000000         1.584262163486371E-018