  -105.000000000000         0.000000000000000E+000
  -104.810000000000         2.022538457718337E-010
  -104.620000000000         4.423486676934618E-010
  -104.430000000000         6.837137023951638E-010
  -104.240000000000         1.032677556735007E-009
  -104.050000000000         1.487740647840658E-009
  -103.860000000000         1.845057156546491E-009
  -103.670000000000         2.033964731680686E-009
  -103.480000000000         2.084523592994955E-009
  -103.290000000000         2.596243727287261E-009
  -103.100000000000         3.272381780928644E-009
  -102.910000000000         4.317857503987740E-009
  -102.720000000000         5.378739667036461E-009
  -102.530000000000         6.266294130681210E-009
  -102.340000000000         7.000630369752742E-009
  -102.150000000000         7.524478022301653E-009
  -101.960000000000         7.871676489541299E-009
  -101.770000000000         7.902666804035428E-009
  -101.580000000000         8.079557118776341E-009
  -101.390000000000         8.457937483484772E-009
  -101.200000000000         8.608598641394026E-009
  -101.010000000000         8.650818319388216E-009
  -100.820000000000         8.326787107969906E-009
  -100.630000000000         7.770656372785548E-009
  -100.440000000000         7.307486841822261E-009
  -100.250000000000         6.964818806653175E-009
  -100.060000000000         6.712038806637438E-009
  -99.8700000000000         6.656083090063800E-009
  -99.6800000000000         6.619237494410995E-009
  -99.4900000000000         6.215477367535226E-009
  -99.3000000000000         5.296826990362521E-009
  -99.1100000000000         4.360328050452753E-009
  -98.9200000000000         3.350111857514776E-009
  -98.7300000000000         2.507408426906517E-009
  -98.5400000000000         2.300417592718477E-009
  -98.3500000000000         1.773742950105109E-009
  -98.1600000000000         1.626772828186840E-009
  -97.9700000000000         1.428366275710471E-009
  -97.7800000000000         1.400004637116908E-009
  -97.5900000000000         1.367459100123860E-009
  -97.4000000000000         1.246139724383016E-009
  -97.2100000000000         1.142771285614409E-009
  -97.0200000000000         1.096930357264377E-009
  -96.8300000000000         1.419010188419308E-009
  -96.6400000000000         1.970790713827212E-009
  -96.4500000000000         2.582018254308328E-009
  -96.2600000000000         3.353454110487393E-009
  -96.0700000000000         3.882744436417914E-009
  -95.8800000000000         4.183092240514700E-009
  -95.6900000000000         4.314971868326389E-009
  -95.5000000000000         4.435332406300160E-009
  -95.3100000000000         4.722984299188692E-009
  -95.1200000000000         5.040807653308687E-009
  -94.9300000000000         5.363529735068009E-009
  -94.7400000000000         5.567551410530585E-009
  -94.5500000000000         5.808044865477046E-009
  -94.3600000000000         6.066310908888336E-009
  -94.1700000000000         6.218788725086021E-009
  -93.9800000000000         6.489048831722990E-009
  -93.7900000000000         6.571639556192563E-009
  -93.6000000000000         7.107847040249550E-009
  -93.4100000000000         7.482733395063246E-009
  -93.2200000000000         7.713072951501924E-009
  -93.0300000000000         7.893762908210069E-009
  -92.8400000000000         7.813054459804244E-009
  -92.6500000000000         7.231394132563149E-009
  -92.4600000000000         6.193601379920815E-009
  -92.2700000000000         4.947960701645796E-009
  -92.0800000000000         3.789718960769519E-009
  -91.8900000000000         2.915733050588185E-009
  -91.7000000000000         2.565442237353906E-009
  -91.5100000000000         2.318858313466130E-009
  -91.3200000000000         2.169417692159297E-009
  -91.1300000000000         1.615852952766932E-009
  -90.9400000000000         9.246325897025058E-010
  -90.7500000000000         5.647590634390801E-010
  -90.5600000000000         6.031701708501091E-010
  -90.3700000000000         1.123465432853436E-009
  -90.1800000000000         2.082694472807512E-009
  -89.9900000000000         3.170443249345675E-009
  -89.8000000000000         4.050528219229417E-009
  -89.6100000000000         4.178397815569818E-009
  -89.4200000000000         4.377025381664808E-009
  -89.2300000000000         4.616981245767620E-009
  -89.0400000000000         5.540317537073409E-009
  -88.8500000000000         5.653770488965273E-009
  -88.6600000000000         6.418988855763660E-009
  -88.4700000000000         7.013145621921676E-009
  -88.2800000000000         7.395148363337583E-009
  -88.0900000000000         7.580423166384447E-009
  -87.9000000000000         7.505797945879137E-009
  -87.7100000000000         7.322455465716565E-009
  -87.5200000000000         7.211456036940324E-009
  -87.3300000000000         7.139563635434974E-009
  -87.1400000000000         6.998735715090239E-009
  -86.9500000000000         6.975934068648135E-009
  -86.7600000000000         6.934480452246104E-009
  -86.5700000000000         6.860610367279119E-009
  -86.3800000000000         6.892943838190836E-009
  -86.1900000000000         7.087337789763035E-009
  -86.0000000000000         7.443186668862303E-009
  -85.8100000000000         8.011275369065093E-009
  -85.6200000000000         8.951299569682283E-009
  -85.4300000000000         1.012008385705549E-008
  -85.2400000000000         1.130270248267680E-008
  -85.0500000000000         1.272980267706014E-008
  -84.8600000000000         1.396412586155386E-008
  -84.6700000000000         1.501150818577937E-008
  -84.4800000000000         1.598060310286895E-008
  -84.2900000000000         1.707051724512937E-008
  -84.1000000000000         1.842764015566176E-008
  -83.9100000000000         2.011539633738967E-008
  -83.7200000000000         2.019752779773041E-008
  -83.5300000000000         2.311291649705838E-008
  -83.3400000000000         2.295212651390042E-008
  -83.1500000000000         2.326216385021750E-008
  -82.9600000000000         2.321599474876968E-008
  -82.7700000000000         2.291454348835688E-008
  -82.5800000000000         2.241649999830595E-008
  -82.3900000000000         2.188354599671576E-008
  -82.2000000000000         2.148187498830775E-008
  -82.0100000000000         2.096675482621803E-008
  -81.8200000000000         2.019937901725597E-008
  -81.6300000000000         1.914715060337906E-008
  -81.4400000000000         1.798012041518184E-008
  -81.2500000000000         1.701202806110368E-008
  -81.0600000000000         1.622953220854767E-008
  -80.8700000000000         1.556535037022485E-008
  -80.6800000000000         1.535325468966570E-008
  -80.4900000000000         1.538093282012590E-008
  -80.3000000000000         1.543199877841973E-008
  -80.1100000000000         1.540731089747613E-008
  -79.9200000000000         1.541747750590973E-008
  -79.7300000000000         1.552693945927322E-008
  -79.5400000000000         1.587942625120648E-008
  -79.3500000000000         1.673224898548930E-008
  -79.1600000000000         1.779612837121953E-008
  -78.9700000000000         1.869220773917911E-008
  -78.7800000000000         1.940335980660515E-008
  -78.5900000000000         1.999464669814545E-008
  -78.4000000000000         2.031501854956307E-008
  -78.2100000000000         2.032332573605374E-008
  -78.0200000000000         2.026562291116934E-008
  -77.8300000000000         2.005991445112189E-008
  -77.6400000000000         1.975413463385848E-008
  -77.4500000000000         1.939203689618273E-008
  -77.2600000000000         1.908106537321191E-008
  -77.0700000000000         1.892368564899157E-008
  -76.8800000000000         1.893999306899497E-008
  -76.6900000000000         1.904481368963361E-008
  -76.5000000000000         1.950717100529721E-008
  -76.3100000000000         2.037704956585506E-008
  -76.1200000000000         2.060813727035422E-008
  -75.9300000000000         2.104308379862671E-008
  -75.7400000000000         2.116166975385652E-008
  -75.5500000000000         2.137892335291299E-008
  -75.3600000000000         2.149285270087639E-008
  -75.1700000000000         2.158837718398341E-008
  -74.9800000000000         2.175478668311039E-008
  -74.7900000000000         2.182823434588466E-008
  -74.6000000000000         2.177644051135170E-008
  -74.4100000000000         2.169286475763557E-008
  -74.2200000000000         2.172402630072217E-008
  -74.0300000000000         2.192061015247972E-008
  -73.8400000000000         2.236998347773770E-008
  -73.6500000000000         2.295417016061950E-008
  -73.4600000000000         2.350871306908168E-008
  -73.2700000000000         2.420987047178518E-008
  -73.0800000000000         2.500218071740908E-008
  -72.8900000000000         2.635041181333366E-008
  -72.7000000000000         2.767056485834315E-008
  -72.5100000000000         2.914368970161505E-008
  -72.3200000000000         3.059597883117168E-008
  -72.1300000000000         3.161555769085085E-008
  -71.9400000000000         3.200982917994144E-008
  -71.7500000000000         3.446610895901550E-008
  -71.5600000000000         3.470042252868136E-008
  -71.3700000000000         3.518937030594371E-008
  -71.1800000000000         3.610177389024467E-008
  -70.9900000000000         3.651838998284657E-008
  -70.8000000000000         3.992878583531019E-008
  -70.6100000000000         4.027306647277344E-008
  -70.4200000000000         4.070774832338764E-008
  -70.2300000000000         4.526986466451948E-008
  -70.0400000000000         4.551498671921132E-008
  -69.8500000000000         4.605592122375012E-008
  -69.6600000000000         4.826262464955611E-008
  -69.4700000000000         4.838903568491214E-008
  -69.2800000000000         4.920853706867638E-008
  -69.0900000000000         4.939904997040272E-008
  -68.9000000000000         4.959425239520783E-008
  -68.7100000000000         4.966422236816776E-008
  -68.5200000000000         4.950479224287466E-008
  -68.3300000000000         4.913333015496474E-008
  -68.1400000000000         4.870196131826132E-008
  -67.9500000000000         4.853583933312372E-008
  -67.7600000000000         4.857869902807178E-008
  -67.5700000000000         4.883380909960067E-008
  -67.3800000000000         4.990063084634419E-008
  -67.1900000000000         5.185795033945592E-008
  -67.0000000000000         5.294237931356327E-008
  -66.8100000000000         5.584260797656092E-008
  -66.6200000000000         5.632943099527263E-008
  -66.4300000000000         5.754400533316248E-008
  -66.2400000000000         6.179111620781706E-008
  -66.0500000000000         6.196398388964301E-008
  -65.8600000000000         6.259087577925447E-008
  -65.6700000000000         6.340565149498837E-008
  -65.4800000000000         6.397752819610259E-008
  -65.2900000000000         6.467645593872760E-008
  -65.1000000000000         6.542554999304265E-008
  -64.9100000000000         6.621234210396281E-008
  -64.7200000000000         6.695179153182411E-008
  -64.5300000000000         6.778807079175661E-008
  -64.3400000000000         6.846437062404323E-008
  -64.1500000000000         6.909442087654151E-008
  -63.9600000000000         6.968926930093966E-008
  -63.7700000000000         7.023509415875972E-008
  -63.5800000000000         7.085353177106251E-008
  -63.3900000000000         7.137407530136597E-008
  -63.2000000000000         7.179132066722440E-008
  -63.0100000000000         7.199929615981641E-008
  -62.8200000000000         7.220126582678596E-008
  -62.6300000000000         7.238004102054416E-008
  -62.4400000000000         7.261066336226237E-008
  -62.2500000000000         7.277970263543611E-008
  -62.0600000000000         7.288878235396784E-008
  -61.8700000000000         7.300936347277538E-008
  -61.6800000000000         7.308823502363492E-008
  -61.4900000000000         7.316464822713122E-008
  -61.3000000000000         7.340248428843691E-008
  -61.1100000000000         7.405033869287282E-008
  -60.9200000000000         7.518527397098462E-008
  -60.7300000000000         7.668149704804041E-008
  -60.5400000000000         7.804023662202044E-008
  -60.3500000000000         7.915919214059202E-008
  -60.1600000000000         8.016377181176887E-008
  -59.9700000000000         8.111123265752894E-008
  -59.7800000000000         8.215486068172542E-008
  -59.5900000000000         8.331157205507270E-008
  -59.4000000000000         8.438071267795765E-008
  -59.2100000000000         8.540036348579583E-008
  -59.0200000000000         8.638513881632174E-008
  -58.8300000000000         8.741982874778313E-008
  -58.6400000000000         8.850623243844917E-008
  -58.4500000000000         8.983264414493182E-008
  -58.2600000000000         9.148381781898156E-008
  -58.0700000000000         9.296843500485377E-008
  -57.8800000000000         9.462611677967010E-008
  -57.6900000000000         9.578559363495361E-008
  -57.5000000000000         9.710805819947117E-008
  -57.3100000000000         9.781290234762509E-008
  -57.1200000000000         1.003710580179065E-007
  -56.9300000000000         1.009370442775166E-007
  -56.7400000000000         1.026885184031250E-007
  -56.5500000000000         1.045745051929710E-007
  -56.3600000000000         1.056583433834154E-007
  -56.1700000000000         1.073961777489549E-007
  -55.9800000000000         1.080291528659403E-007
  -55.7900000000000         1.093379799677424E-007
  -55.6000000000000         1.100816950641013E-007
  -55.4100000000000         1.109072354024398E-007
  -55.2200000000000         1.112178338176753E-007
  -55.0300000000000         1.112665978797079E-007
  -54.8400000000000         1.111655210360313E-007
  -54.6500000000000         1.111011085759569E-007
  -54.4600000000000         1.111730966330344E-007
  -54.2700000000000         1.114489415857169E-007
  -54.0800000000000         1.119904148083956E-007
  -53.8900000000000         1.127810485799830E-007
  -53.7000000000000         1.138960513198179E-007
  -53.5100000000000         1.154055800386594E-007
  -53.3200000000000         1.173255157780601E-007
  -53.1300000000000         1.197650905523189E-007
  -52.9400000000000         1.223741111180233E-007
  -52.7500000000000         1.249666924845001E-007
  -52.5600000000000         1.272913405219008E-007
  -52.3700000000000         1.298917304091809E-007
  -52.1800000000000         1.309408597639010E-007
  -51.9900000000000         1.378481516289189E-007
  -51.8000000000000         1.378882169094263E-007
  -51.6100000000000         1.397748823718947E-007
  -51.4200000000000         1.422812145598572E-007
  -51.2300000000000         1.447451289167643E-007
  -51.0400000000000         1.458614692827854E-007
  -50.8500000000000         1.481628473733622E-007
  -50.6600000000000         1.491323295806649E-007
  -50.4700000000000         1.540519291119421E-007
  -50.2800000000000         1.548853130522830E-007
  -50.0900000000000         1.568701096678932E-007
  -49.9000000000000         1.597534290133428E-007
  -49.7100000000000         1.607618418091387E-007
  -49.5200000000000         1.633408872939103E-007
  -49.3300000000000         1.642340428315888E-007
  -49.1400000000000         1.667686684468950E-007
  -48.9500000000000         1.676620777168197E-007
  -48.7600000000000         1.697515644589259E-007
  -48.5700000000000         1.710951515947451E-007
  -48.3800000000000         1.730026653606380E-007
  -48.1900000000000         1.746450972409255E-007
  -48.0000000000000         1.764246991591347E-007
  -47.8100000000000         1.786542861869791E-007
  -47.6200000000000         1.812146380360045E-007
  -47.4300000000000         1.840051823438390E-007
  -47.2400000000000         1.870724531640274E-007
  -47.0500000000000         1.897120506128192E-007
  -46.8600000000000         1.925909762240011E-007
  -46.6700000000000         1.951847605241568E-007
  -46.4800000000000         1.976567170261829E-007
  -46.2900000000000         2.000073796360400E-007
  -46.1000000000000         2.020154492906848E-007
  -45.9100000000000         2.042156101440778E-007
  -45.7200000000000         2.060558979986017E-007
  -45.5300000000000         2.077550337720912E-007
  -45.3400000000000         2.091426972111340E-007
  -45.1500000000000         2.102707037350348E-007
  -44.9600000000000         2.114311420803884E-007
  -44.7700000000000         2.125182262415419E-007
  -44.5800000000000         2.138385760660486E-007
  -44.3900000000000         2.149770017816050E-007
  -44.2000000000000         2.165381998620776E-007
  -44.0100000000000         2.178542984147548E-007
  -43.8200000000000         2.194938065963323E-007
  -43.6300000000000         2.207428053671572E-007
  -43.4400000000000         2.226255129701049E-007
  -43.2500000000000         2.240006415401312E-007
  -43.0600000000000         2.261983091095547E-007
  -42.8700000000000         2.278423852492405E-007
  -42.6800000000000         2.300014919704542E-007
  -42.4900000000000         2.313816228727694E-007
  -42.3000000000000         2.334849817841487E-007
  -42.1100000000000         2.345964490686971E-007
  -41.9200000000000         2.365241520530529E-007
  -41.7300000000000         2.376882671033520E-007
  -41.5400000000000         2.394936907874777E-007
  -41.3500000000000         2.404470875215355E-007
  -41.1600000000000         2.424400667942872E-007
  -40.9700000000000         2.432190640478420E-007
  -40.7800000000000         2.458349569861923E-007
  -40.5900000000000         2.470215383031849E-007
  -40.4000000000000         2.509153338726980E-007
  -40.2100000000000         2.523624309511349E-007
  -40.0200000000000         2.565877956705629E-007
  -39.8300000000000         2.580452531986805E-007
  -39.6400000000000         2.629476224505586E-007
  -39.4500000000000         2.645403543985526E-007
  -39.2600000000000         2.690369457196341E-007
  -39.0700000000000         2.708867298991250E-007
  -38.8800000000000         2.754035775655039E-007
  -38.6900000000000         2.771400995843671E-007
  -38.5000000000000         2.815539762334216E-007
  -38.3100000000000         2.833630184439237E-007
  -38.1200000000000         2.878592770407159E-007
  -37.9300000000000         2.896514993692540E-007
  -37.7400000000000         2.941198404847398E-007
  -37.5500000000000         2.957187202672433E-007
  -37.3600000000000         2.997650289599572E-007
  -37.1700000000000         3.012709879814577E-007
  -36.9800000000000         3.052148320173735E-007
  -36.7900000000000         3.067396090203246E-007
  -36.6000000000000         3.109100360892346E-007
  -36.4100000000000         3.122621734668197E-007
  -36.2200000000000         3.163324120401765E-007
  -36.0300000000000         3.175169956152173E-007
  -35.8400000000000         3.213107683990753E-007
  -35.6500000000000         3.224379439219843E-007
  -35.4600000000000         3.262721029092051E-007
  -35.2700000000000         3.275318938079019E-007
  -35.0800000000000         3.318608816626161E-007
  -34.8900000000000         3.332244380547579E-007
  -34.7000000000000         3.382817138627274E-007
  -34.5100000000000         3.398545251266154E-007
  -34.3200000000000         3.451383860531097E-007
  -34.1300000000000         3.469800214102056E-007
  -33.9400000000000         3.529712946037954E-007
  -33.7500000000000         3.550500075065224E-007
  -33.5600000000000         3.607870713784137E-007
  -33.3700000000000         3.626551327455554E-007
  -33.1800000000000         3.685563236052741E-007
  -32.9900000000000         3.701618092276392E-007
  -32.8000000000000         3.752622327560235E-007
  -32.6100000000000         3.767579386089722E-007
  -32.4200000000000         3.822347604997471E-007
  -32.2300000000000         3.837421799520111E-007
  -32.0400000000000         3.891313602798220E-007
  -31.8500000000000         3.907423073084710E-007
  -31.6600000000000         3.964721517362031E-007
  -31.4700000000000         3.980871570513363E-007
  -31.2800000000000         4.039855206544248E-007
  -31.0900000000000         4.057876996706273E-007
  -30.9000000000000         4.118395405931235E-007
  -30.7100000000000         4.136739718123209E-007
  -30.5200000000000         4.193254302355697E-007
  -30.3300000000000         4.209850468399295E-007
  -30.1400000000000         4.265597195422593E-007
  -29.9500000000000         4.281530437036773E-007
  -29.7600000000000         4.338771804100826E-007
  -29.5700000000000         4.354403795595333E-007
  -29.3800000000000         4.405904319140172E-007
  -29.1900000000000         4.421994764750704E-007
  -29.0000000000000         4.470210359821859E-007
  -28.8100000000000         4.486437822530610E-007
  -28.6200000000000         4.526026025133422E-007
  -28.4300000000000         4.543458088762976E-007
  -28.2400000000000         4.579953156260411E-007
  -28.0500000000000         4.594437058127983E-007
  -27.8600000000000         4.623324622660411E-007
  -27.6700000000000         4.647424957347642E-007
  -27.4800000000000         4.670151803025722E-007
  -27.2900000000000         4.696448276091669E-007
  -27.1000000000000         4.722176612329740E-007
  -26.9100000000000         4.746616358502932E-007
  -26.7200000000000         4.769478670615442E-007
  -26.5300000000000         4.795702444879532E-007
  -26.3400000000000         4.820305094457267E-007
  -26.1500000000000         4.846974017272577E-007
  -25.9600000000000         4.873943000532992E-007
  -25.7700000000000         4.901875028293718E-007
  -25.5800000000000         4.930422041694582E-007
  -25.3900000000000         4.957141728930304E-007
  -25.2000000000000         4.983958087927099E-007
  -25.0100000000000         5.016108665135169E-007
  -24.8200000000000         5.047598600541808E-007
  -24.6300000000000         5.083100277111861E-007
  -24.4400000000000         5.121547964323920E-007
  -24.2500000000000         5.155794041591935E-007
  -24.0600000000000         5.193102971546649E-007
  -23.8700000000000         5.227015966441846E-007
  -23.6800000000000         5.258759531001911E-007
  -23.4900000000000         5.294549396263896E-007
  -23.3000000000000         5.331771007898412E-007
  -23.1100000000000         5.367218114179201E-007
  -22.9200000000000         5.402475265692013E-007
  -22.7300000000000         5.437893995462161E-007
  -22.5400000000000         5.470412309401146E-007
  -22.3500000000000         5.503482327498848E-007
  -22.1600000000000         5.540063557916295E-007
  -21.9700000000000         5.576783334730439E-007
  -21.7800000000000         5.611934122744144E-007
  -21.5900000000000         5.650788018453679E-007
  -21.4000000000000         5.686874912572388E-007
  -21.2100000000000         5.719030274123267E-007
  -21.0200000000000         5.761778918321477E-007
  -20.8300000000000         5.778216683421236E-007
  -20.6400000000000         5.833818905175172E-007
  -20.4500000000000         5.844694658942804E-007
  -20.2600000000000         5.918146420415609E-007
  -20.0700000000000         5.929312322758517E-007
  -19.8800000000000         5.967794567906873E-007
  -19.6900000000000         6.031821062438757E-007
  -19.5000000000000         6.043662412155089E-007
  -19.3100000000000         6.125975775790632E-007
  -19.1200000000000         6.137584495097093E-007
  -18.9300000000000         6.187623931702644E-007
  -18.7400000000000         6.202022731317611E-007
  -18.5500000000000         6.277001922667881E-007
  -18.3600000000000         6.284162918148349E-007
  -18.1700000000000         6.326696024690558E-007
  -17.9800000000000         6.380924120753763E-007
  -17.7900000000000         6.389843102036288E-007
  -17.6000000000000         6.444615324273253E-007
  -17.4100000000000         6.452419645162678E-007
  -17.2200000000000         6.503295611954202E-007
  -17.0300000000000         6.510929171538751E-007
  -16.8400000000000         6.564799931875913E-007
  -16.6500000000000         6.574465818161539E-007
  -16.4600000000000         6.634507635494921E-007
  -16.2700000000000         6.643621795776082E-007
  -16.0800000000000         6.705932156625771E-007
  -15.8900000000000         6.716579836688093E-007
  -15.7000000000000         6.785319987006861E-007
  -15.5100000000000         6.798788246659367E-007
  -15.3200000000000         6.882949885368475E-007
  -15.1300000000000         6.895540513427431E-007
  -14.9400000000000         6.963647706922455E-007
  -14.7500000000000         6.976732117455385E-007
  -14.5600000000000         7.058843263792767E-007
  -14.3700000000000         7.068896229672617E-007
  -14.1800000000000         7.129303866881908E-007
  -13.9900000000000         7.143488051473929E-007
  -13.8000000000000         7.219719709859097E-007
  -13.6100000000000         7.227630034759190E-007
  -13.4200000000000         7.283779372680980E-007
  -13.2300000000000         7.293348898920072E-007
  -13.0400000000000         7.363584008932875E-007
  -12.8500000000000         7.370712309016865E-007
  -12.6600000000000         7.429182473009169E-007
  -12.4700000000000         7.440177870603901E-007
  -12.2800000000000         7.516370684043257E-007
  -12.0900000000000         7.524924097374580E-007
  -11.9000000000000         7.593633326878164E-007
  -11.7100000000000         7.604406039841524E-007
  -11.5200000000000         7.685566514508434E-007
  -11.3300000000000         7.695560904133458E-007
  -11.1400000000000         7.764798665366797E-007
  -10.9500000000000         7.776955968066765E-007
  -10.7600000000000         7.865053341165003E-007
  -10.5700000000000         7.876129126657078E-007
  -10.3800000000000         7.944220730590679E-007
  -10.1900000000000         7.958824790316665E-007
  -10.0000000000000         8.050417993456212E-007
  -9.81000000000000         8.059968723999040E-007
  -9.62000000000000         8.118874078964887E-007
  -9.42999999999999         8.132878052969182E-007
  -9.23999999999999         8.211694694883965E-007
  -9.05000000000000         8.219434531836069E-007
  -8.86000000000000         8.282199371874721E-007
  -8.67000000000000         8.292639752767508E-007
  -8.48000000000000         8.367393683935529E-007
  -8.28999999999999         8.375440079554793E-007
  -8.09999999999999         8.437324959158634E-007
  -7.91000000000000         8.448541749753074E-007
  -7.72000000000000         8.524838233213746E-007
  -7.53000000000000         8.533524785229771E-007
  -7.34000000000000         8.598396109326356E-007
  -7.15000000000001         8.609414530007815E-007
  -6.95999999999999         8.682069752326434E-007
  -6.77000000000000         8.691139115151433E-007
  -6.58000000000000         8.750043536449211E-007
  -6.39000000000000         8.760996057184314E-007
  -6.20000000000000         8.833969660224359E-007
  -6.01000000000001         8.841552348145237E-007
  -5.81999999999999         8.875568893968856E-007
  -5.63000000000000         8.938166038864008E-007
  -5.44000000000000         8.948305241429412E-007
  -5.25000000000000         9.000821587039112E-007
  -5.06000000000000         9.011286220222221E-007
  -4.87000000000000         9.080279849942760E-007
  -4.67999999999999         9.086864656005002E-007
  -4.48999999999999         9.107909222820477E-007
  -4.30000000000000         9.169918883204865E-007
  -4.11000000000000         9.179666016596056E-007
  -3.92000000000000         9.206106996483593E-007
  -3.73000000000000         9.278872517123166E-007
  -3.53999999999999         9.285096950013762E-007
  -3.34999999999999         9.306141838447132E-007
  -3.16000000000000         9.359430906661908E-007
  -2.97000000000000         9.371932442460084E-007
  -2.78000000000000         9.444119316171893E-007
  -2.59000000000000         9.450386026747978E-007
  -2.40000000000001         9.475341760154388E-007
  -2.20999999999999         9.544676752468316E-007
  -2.02000000000000         9.552158684535192E-007
  -1.83000000000000         9.576565482273429E-007
  -1.64000000000000         9.639052954382350E-007
  -1.45000000000000         9.649115889993985E-007
  -1.26000000000001         9.681559470173806E-007
  -1.06999999999999         9.754203314507221E-007
 -0.879999999999995         9.762758870475172E-007
 -0.689999999999998         9.786767005925934E-007
 -0.500000000000000         9.819530140067220E-007
 -0.310000000000002         9.883191963998888E-007
 -0.120000000000005         9.894072199085983E-007
  7.000000000000739E-002    9.919911397218164E-007
  0.260000000000005         9.959387919532016E-007
  0.450000000000003         9.973759069176734E-007
  0.640000000000001         1.005229446423310E-006
  0.829999999999998         1.005847767591476E-006
   1.02000000000000         1.008418219083807E-006
   1.21000000000001         1.011812232084089E-006
   1.40000000000001         1.014709326125350E-006
   1.59000000000000         1.017233602011590E-006
   1.78000000000000         1.019462414070062E-006
   1.97000000000000         1.021548987470749E-006
   2.16000000000000         1.023436334095411E-006
   2.34999999999999         1.031896787926991E-006
   2.54000000000001         1.033249926486674E-006
   2.73000000000000         1.036560173367589E-006
   2.92000000000000         1.040400741420825E-006
   3.11000000000000         1.044136647214676E-006
   3.30000000000000         1.047582588326928E-006
   3.48999999999999         1.050945525299189E-006
   3.68000000000001         1.054159209202171E-006
   3.87000000000000         1.057696859436251E-006
   4.06000000000000         1.060504357736854E-006
   4.25000000000000         1.064012066186577E-006
   4.44000000000000         1.066754766762362E-006
   4.63000000000000         1.070348883400766E-006
   4.82000000000001         1.073180498193642E-006
   5.01000000000001         1.077172515257103E-006
   5.20000000000000         1.079935962601864E-006
   5.39000000000000         1.083588458417184E-006
   5.58000000000000         1.086501898358099E-006
   5.77000000000000         1.089596667947050E-006
   5.96000000000001         1.092751799176177E-006
   6.15000000000001         1.095764080141575E-006
   6.34000000000000         1.098884611348165E-006
   6.53000000000000         1.101841716809997E-006