  -105.000000000000         5.145211686522303E-019
  -104.810000000000         1.193169049108215E-019
  -104.620000000000        -2.973124834218953E-019
  -104.430000000000        -3.556652971796111E-019
  -104.240000000000        -2.241467917997494E-020
  -104.050000000000         3.614567686000387E-019
  -103.860000000000         4.093876241373931E-019
  -103.670000000000         6.028242710201647E-020
  -103.480000000000        -3.621555998067464E-019
  -103.290000000000        -4.585057029168694E-019
  -103.100000000000        -1.360521574898264E-019
  -102.910000000000         3.012206880027016E-019
  -102.720000000000         4.415356152651041E-019
  -102.530000000000         1.570850412057882E-019
  -102.340000000000        -2.754420937298978E-019
  -102.150000000000        -4.399786137269854E-019
  -101.960000000000        -1.784025006409983E-019
  -101.770000000000         2.587622603311980E-019
  -101.580000000000         4.518744470023490E-019
  -101.390000000000         2.135358540826771E-019
  -101.200000000000        -2.316082717317491E-019
  -101.010000000000        -4.610060424310257E-019
  -100.820000000000        -2.578669525098058E-019
  -100.630000000000         1.816601143222400E-019
  -100.440000000000         4.357833547005316E-019
  -100.250000000000         2.598542832126905E-019
  -100.060000000000        -1.796595195936398E-019
  -99.8700000000000        -4.632724245655561E-019
  -99.6800000000000        -3.184440412116345E-019
  -99.4900000000000         1.197882172911877E-019
  -99.3000000000000         4.367275175388419E-019
  -99.1100000000000         3.329664731995221E-019
  -98.9200000000000        -9.068910944031528E-020
  -98.7300000000000        -4.301640325080312E-019
  -98.5400000000000        -3.636508861327728E-019
  -98.3500000000000         4.245592217235551E-020
  -98.1600000000000         3.984304944342336E-019
  -97.9700000000000         3.642783680986973E-019
  -97.7800000000000        -2.520368850149802E-020
  -97.5900000000000        -3.939025480082926E-019
  -97.4000000000000        -3.847183975270650E-019
  -97.2100000000000        -2.219783545200270E-021
  -97.0200000000000         3.903670752590153E-019
  -96.8300000000000         4.170366411008341E-019
  -96.6400000000000         4.731548737011471E-020
  -96.4500000000000        -3.745856528540512E-019
  -96.2600000000000        -4.570720114376819E-019
  -96.0700000000000        -1.328431735152360E-019
  -95.8800000000000         2.792440728767080E-019
  -95.6900000000000         3.810835765137208E-019
  -95.5000000000000         7.765366697475490E-020
  -95.3100000000000        -3.312991425918738E-019
  -95.1200000000000        -4.384199744868743E-019
  -94.9300000000000        -1.202193117740719E-019
  -94.7400000000000         3.414400808796882E-019
  -94.5500000000000         5.242821859427640E-019
  -94.3600000000000         2.651264731726207E-019
  -94.1700000000000        -1.861432099166282E-019
  -93.9800000000000        -4.049602063364410E-019
  -93.7900000000000        -1.959563129100628E-019
  -93.6000000000000         2.228677489061349E-019
  -93.4100000000000         4.313447459958602E-019
  -93.2200000000000         2.112573034762057E-019
  -93.0300000000000        -2.432803022992018E-019
  -92.8400000000000        -5.098649118889268E-019
  -92.6500000000000        -3.401037132603282E-019
  -92.4600000000000         1.036965723069074E-019
  -92.2700000000000         4.031580094451846E-019
  -92.0800000000000         2.824733996965951E-019
  -91.8900000000000        -1.293676917706969E-019
  -91.7000000000000        -4.234269889064607E-019
  -91.5100000000000        -3.033357910131930E-019
  -91.3200000000000         1.300738675239066E-019
  -91.1300000000000         4.739471615424738E-019
  -90.9400000000000         4.069968535003053E-019
  -90.7500000000000        -4.693961316699315E-021
  -90.5600000000000        -3.710240841880250E-019
  -90.3700000000000        -3.498661498341140E-019
  -90.1800000000000         2.709941011024927E-020
  -89.9900000000000         3.860366824501516E-019
  -89.8000000000000         3.702256855274027E-019
  -89.6100000000000        -1.664552220867065E-020
  -89.4200000000000        -4.119090978983071E-019
  -89.2300000000000        -4.391148287786589E-019
  -89.0400000000000        -6.765634652238665E-020
  -88.8500000000000         3.561389176663164E-019
  -88.6600000000000         4.365658897037185E-019
  -88.4700000000000         1.034885762713922E-019
  -88.2800000000000        -3.222305757291470E-019
  -88.0900000000000        -4.353167347978948E-019
  -87.9000000000000        -1.321090141777359E-019
  -87.7100000000000         2.925683390888229E-019
  -87.5200000000000         4.294438082714017E-019
  -87.3300000000000         1.472636355082680E-019
  -87.1400000000000        -2.815145827415983E-019
  -86.9500000000000        -4.414648619450061E-019
  -86.7600000000000        -1.723093224985172E-019
  -86.5700000000000         2.757543405033110E-019
  -86.3800000000000         4.785828833184222E-019
  -86.1900000000000         2.415168424857532E-019
  -86.0000000000000        -2.153385557835546E-019
  -85.8100000000000        -4.668300962731801E-019
  -85.6200000000000        -2.867244233960779E-019
  -85.4300000000000         1.396937145114696E-019
  -85.2400000000000         3.961213075272486E-019
  -85.0500000000000         2.353126794291363E-019
  -84.8600000000000        -1.835692207070204E-019
  -84.6700000000000        -4.472156651138589E-019
  -84.4800000000000        -2.851036218924454E-019
  -84.2900000000000         1.683742984434686E-019
  -84.1000000000000         4.982662661646949E-019
  -83.9100000000000         4.021598315812678E-019
  -83.7200000000000        -2.300517406789544E-020
  -83.5300000000000        -3.738932196834286E-019
  -83.3400000000000        -3.246393012969182E-019
  -83.1500000000000         6.400905105894262E-020
  -82.9600000000000         4.044323846337587E-019
  -82.7700000000000         3.537235409899213E-019
  -82.5800000000000        -5.732327231616892E-020
  -82.3900000000000        -4.521744500531464E-019
  -82.2000000000000        -4.669162772040404E-019
  -82.0100000000000        -9.633975195336828E-020
  -81.8200000000000         3.028099863950954E-019
  -81.6300000000000         3.536775276193252E-019
  -81.4400000000000         1.917108679806788E-020
  -81.2500000000000        -3.636244337196242E-019
  -81.0600000000000        -4.072965027524312E-019
  -80.8700000000000        -4.714740108163080E-020
  -80.6800000000000         3.933484953085155E-019
  -80.4900000000000         5.082906228409375E-019
  -80.3000000000000         1.948253302470093E-019
  -80.1100000000000        -2.497396062671802E-019
  -79.9200000000000        -4.114411763834352E-019
  -79.7300000000000        -1.526412892595471E-019
  -79.5400000000000         2.601472298889705E-019
  -79.3500000000000         4.146105404406822E-019
  -79.1600000000000         1.499876584153981E-019
  -78.9700000000000        -2.865375597510052E-019
  -78.7800000000000        -4.749079411635995E-019
  -78.5900000000000        -2.249101170816093E-019
  -78.4000000000000         2.387421803040618E-019
  -78.2100000000000         4.868860289309166E-019
  -78.0200000000000         2.919018515332852E-019
  -77.8300000000000        -1.573084907012118E-019
  -77.6400000000000        -4.355936162146815E-019
  -77.4500000000000        -2.852832636774399E-019
  -77.2600000000000         1.406160651809344E-019
  -77.0700000000000         4.269181868700413E-019
  -76.8800000000000         2.943729602757719E-019
  -76.6900000000000        -1.331123336838295E-019
  -76.5000000000000        -4.475162123861533E-019
  -76.3100000000000        -3.476365459449432E-019
  -76.1200000000000         7.224041936905807E-020
  -75.9300000000000         4.115730268553630E-019
  -75.7400000000000         3.453100377982749E-019
  -75.5500000000000        -6.588344553437629E-020
  -75.3600000000000        -4.328005170029741E-019
  -75.1700000000000        -4.081618818573914E-019
  -74.9800000000000        -1.707158759332977E-020
  -74.7900000000000         3.681638305683936E-019
  -74.6000000000000         3.844746091567902E-019
  -74.4100000000000         2.451358222682536E-020
  -74.2200000000000        -3.577488502284672E-019
  -74.0300000000000        -3.867876370477981E-019
  -73.8400000000000        -2.562927692947009E-020
  -73.6500000000000         3.876224393807119E-019
  -73.4600000000000         4.621004239997630E-019
  -73.2700000000000         1.279122489678052E-019
  -73.0800000000000        -2.961773349934075E-019
  -72.8900000000000        -4.066631523716290E-019
  -72.7000000000000        -1.006753344919960E-019
  -72.5100000000000         3.254942055894585E-019
  -72.3200000000000         4.587120207497189E-019
  -72.1300000000000         1.627843525993542E-019
  -71.9400000000000        -2.913769736030404E-019
  -71.7500000000000        -4.830194833362365E-019
  -71.5600000000000        -2.412712441604670E-019
  -71.3700000000000         1.936501463087684E-019
  -71.1800000000000         4.015830314638919E-019
  -70.9900000000000         1.848729767816166E-019
  -70.8000000000000        -2.428914148983746E-019
  -70.6100000000000        -4.621251901826516E-019
  -70.4200000000000        -2.498242064488658E-019
  -70.2300000000000         2.052631233391835E-019
  -70.0400000000000         4.804346183708989E-019
  -69.8500000000000         3.207576609300067E-019
  -69.6600000000000        -1.181248307673244E-019
  -69.4700000000000        -4.182300032116816E-019
  -69.2800000000000        -2.975850452081467E-019
  -69.0900000000000         1.217662593151927E-019
  -68.9000000000000         4.321098449288136E-019
  -68.7100000000000         3.310421609419383E-019
  -68.5200000000000        -8.890183301953719E-020
  -68.3300000000000        -4.283716890249122E-019
  -68.1400000000000        -3.627964301766212E-019
  -67.9500000000000         4.661696635418347E-020
  -67.7600000000000         4.097127239649109E-019
  -67.5700000000000         3.788096913167168E-019
  -67.3800000000000        -1.939882075740777E-020
  -67.1900000000000        -4.086592252530665E-019
  -67.0000000000000        -4.211786521222184E-019
  -66.8100000000000        -4.717965221655249E-020
  -66.6200000000000         3.568682824094947E-019
  -66.4300000000000         4.083346054157612E-019
  -66.2400000000000         6.254700033062689E-020
  -66.0500000000000        -3.456744239702220E-019
  -65.8600000000000        -4.224578258651460E-019
  -65.6700000000000        -9.150718428055663E-020
  -65.4800000000000         3.329240130495664E-019
  -65.2900000000000         4.464504735917267E-019
  -65.1000000000000         1.409253937849337E-019
  -64.9100000000000        -2.924135832083899E-019
  -64.7200000000000        -4.409585892335950E-019
  -64.5300000000000        -1.641946411645099E-019
  -64.3400000000000         2.725921756019537E-019
  -64.1500000000000         4.518089385831420E-019
  -63.9600000000000         2.024420892969269E-019
  -63.7700000000000        -2.367674334240494E-019
  -63.5800000000000        -4.460911299701167E-019
  -63.3900000000000        -2.265418984956981E-019
  -63.2000000000000         2.100616208860224E-019
  -63.0100000000000         4.442550434209923E-019
  -62.8200000000000         2.506367250530543E-019
  -62.6300000000000        -1.857924805183323E-019
  -62.4400000000000        -4.454770701163487E-019
  -62.2500000000000        -2.751464496168575E-019
  -62.0600000000000         1.687939987186554E-019
  -61.8700000000000         4.675287531683952E-019
  -61.6800000000000         3.380137865148377E-019
  -61.4900000000000        -9.798356980422089E-020
  -61.3000000000000        -4.306805123041392E-019
  -61.1100000000000        -3.528432761484615E-019
  -60.9200000000000         4.867316025499155E-020
  -60.7300000000000         3.779165915655839E-019
  -60.5400000000000         3.098800302038055E-019
  -60.3500000000000        -9.702627580863068E-020
  -60.1600000000000        -4.548282046212715E-019
  -59.9700000000000        -4.156847910201668E-019
  -59.7800000000000        -4.661363988114302E-021
  -59.5900000000000         4.025618635691634E-019
  -59.4000000000000         4.358893870264076E-019
  -59.2100000000000         8.105222285108797E-020
  -59.0200000000000        -3.095319446199142E-019
  -58.8300000000000        -3.548213539950484E-019
  -58.6400000000000        -9.547415601690652E-021
  -58.4500000000000         3.926484111938267E-019
  -58.2600000000000         4.587629814582825E-019
  -58.0700000000000         1.134419994825717E-019
  -57.8800000000000        -3.274018112641942E-019
  -57.6900000000000        -4.571073290378203E-019
  -57.5000000000000        -1.655703951468295E-019
  -57.3100000000000         2.566369604995245E-019
  -57.1200000000000         3.964256219045241E-019
  -56.9300000000000         1.132016620246744E-019
  -56.7400000000000        -3.259319984061996E-019
  -56.5500000000000        -5.001670160441748E-019
  -56.3600000000000        -2.364523946728111E-019
  -56.1700000000000         2.247337592503430E-019
  -55.9800000000000         4.577792977977353E-019
  -55.7900000000000         2.562164680971326E-019
  -55.6000000000000        -1.730236998894498E-019
  -55.4100000000000        -4.097548520065852E-019
  -55.2200000000000        -2.230104122887090E-019
  -55.0300000000000         2.082738013968472E-019
  -54.8400000000000         4.666984786833378E-019
  -54.6500000000000         2.964320036930031E-019
  -54.4600000000000        -1.502657690627577E-019
  -54.2700000000000        -4.562441797863280E-019
  -54.0800000000000        -3.361469257642615E-019
  -53.8900000000000         9.227507447069062E-020
  -53.7000000000000         4.209996509288557E-019
  -53.5100000000000         3.404679810132124E-019
  -53.3200000000000        -6.657665606004403E-020
  -53.1300000000000        -4.057421120767425E-019
  -52.9400000000000        -3.487692990327730E-019
  -52.7500000000000         5.227980206477149E-020
  -52.5600000000000         4.149265869338047E-019
  -52.3700000000000         3.928624898102801E-019
  -52.1800000000000         8.213567214962248E-021
  -51.9900000000000        -3.689724054188047E-019
  -51.8000000000000        -3.746035874575567E-019
  -51.6100000000000         4.235953283797065E-022
  -51.4200000000000         3.994434664298876E-019
  -51.2300000000000         4.383982995939567E-019
  -51.0400000000000         7.147714448022030E-020
  -50.8500000000000        -3.645770167382961E-019
  -50.6600000000000        -4.702585329477835E-019
  -50.4700000000000        -1.621920604479585E-019
  -50.2800000000000         2.505299650841415E-019
  -50.0900000000000         3.646033593359308E-019
  -49.9000000000000         6.938960420039955E-020
  -49.7100000000000        -3.471985468818179E-019
  -49.5200000000000        -4.744419417443761E-019
  -49.3300000000000        -1.729203129590955E-019
  -49.1400000000000         2.892734150331192E-019
  -48.9500000000000         4.891848066066204E-019
  -48.7600000000000         2.504275644243150E-019
  -48.5700000000000        -1.896399673047687E-019
  -48.3800000000000        -4.067590929772057E-019
  -48.1900000000000        -1.939802123858407E-019
  -48.0000000000000         2.423001336969713E-019
  -47.8100000000000         4.806343299215816E-019
  -47.6200000000000         2.874166825697616E-019
  -47.4300000000000        -1.598104503432389E-019
  -47.2400000000000        -4.416746123227451E-019
  -47.0500000000000        -2.975622314618168E-019
  -46.8600000000000         1.253602876041385E-019
  -46.6700000000000         4.133244830231975E-019
  -46.4800000000000         2.825424337017937E-019
  -46.2900000000000        -1.482384893884757E-019
  -46.1000000000000        -4.698032754896698E-019
  -45.9100000000000        -3.722499708023834E-019
  -45.7200000000000         5.905812391271025E-020
  -45.5300000000000         4.234575110628195E-019
  -45.3400000000000         3.850747030384726E-019
  -45.1500000000000        -8.992760423819584E-021
  -44.9600000000000        -3.758321408474129E-019
  -44.7700000000000        -3.637051101702460E-019
  -44.5800000000000         1.232038743717903E-020
  -44.3900000000000         3.864685352444167E-019
  -44.2000000000000         3.935382596813726E-019
  -44.0100000000000         1.921176952748951E-020
  -43.8200000000000        -3.849225735669826E-019
  -43.6300000000000        -4.360713440011056E-019
  -43.4400000000000        -8.563275028645283E-020
  -43.2500000000000         3.337128493781577E-019
  -43.0600000000000         4.248985591319868E-019
  -42.8700000000000         1.049785986502201E-019
  -42.6800000000000        -3.163107572121201E-019
  -42.4900000000000        -4.326120344222835E-019
  -42.3000000000000        -1.286505329473548E-019
  -42.1100000000000         3.100727116058117E-019
  -41.9200000000000         4.697790813689146E-019
  -41.7300000000000         2.031169073353921E-019
  -41.5400000000000        -2.306961635063770E-019
  -41.3500000000000        -4.145959875219285E-019
  -41.1600000000000        -1.736731079186377E-019
  -40.9700000000000         2.566386860122033E-019
  -40.7800000000000         4.555773049050023E-019
  -40.5900000000000         2.201396262712133E-019
  -40.4000000000000        -2.390000143911595E-019
  -40.2100000000000        -4.959234535997170E-019
  -40.0200000000000        -3.135034792732796E-019
  -39.8300000000000         1.316559157110735E-019
  -39.6400000000000         4.178842972142685E-019
  -39.4500000000000         2.800529276416375E-019
  -39.2600000000000        -1.392539445332971E-019
  -39.0700000000000        -4.286264232630282E-019
  -38.8800000000000        -3.031324321466223E-019
  -38.6900000000000         1.223195283640779E-019
  -38.5000000000000         4.424046337041678E-019
  -38.3100000000000         3.487725282947595E-019
  -38.1200000000000        -7.419651607114221E-020
  -37.9300000000000        -4.277577863152768E-019
  -37.7400000000000        -3.775564549758963E-019
  -37.5500000000000         2.801652856023439E-020
  -37.3600000000000         4.039772982467141E-019
  -37.1700000000000         3.955741915942062E-019
  -36.9800000000000         1.549842186680440E-020
  -36.7900000000000        -3.700075403362162E-019
  -36.6000000000000        -3.920629710088231E-019
  -36.4100000000000        -3.193750635239418E-020
  -36.2200000000000         3.608248004728830E-019
  -36.0300000000000         4.026034269963688E-019
  -35.8400000000000         4.357200140829239E-020
  -35.6500000000000        -3.825617327285493E-019
  -35.4600000000000        -4.753006303203726E-019
  -35.2700000000000        -1.482337001878037E-019
  -35.0800000000000         2.896442289019478E-019
  -34.8900000000000         4.291433436217932E-019
  -34.7000000000000         1.503522617146941E-019
  -34.5100000000000        -2.648499536930743E-019
  -34.3200000000000        -4.039808005340426E-019
  -34.1300000000000        -1.198825252017481E-019
  -33.9400000000000         3.268063109656840E-019
  -33.7500000000000         5.152031245031326E-019
  -33.5600000000000         2.654006393290039E-019
  -33.3700000000000        -1.901066226036556E-019
  -33.1800000000000        -4.281292169602448E-019
  -32.9900000000000        -2.372756845675377E-019
  -32.8000000000000         1.827439284767595E-019
  -32.6100000000000         4.143673204758470E-019
  -32.4200000000000         2.231845036027909E-019
  -32.2300000000000        -2.161982961609122E-019
  -32.0400000000000        -4.857738692449788E-019
  -31.8500000000000        -3.236931505625609E-019
  -31.6600000000000         1.242084317505292E-019
  -31.4700000000000         4.418179096816292E-019
  -31.2800000000000         3.379949800759613E-019
  -31.0900000000000        -7.758233718889311E-020
  -30.9000000000000        -4.007597401850233E-019
  -30.7100000000000        -3.197391494668332E-019
  -30.5200000000000         8.655362318218261E-020
  -30.3300000000000         4.236379111927733E-019
  -30.1400000000000         3.591297350501853E-019
  -29.9500000000000        -5.781266252934058E-020
  -29.7600000000000        -4.411425500241460E-019
  -29.5700000000000        -4.344191356721378E-019
  -29.3800000000000        -4.919567825342911E-020
  -29.1900000000000         3.471679935275515E-019
  -29.0000000000000         3.818871664059689E-019
  -28.8100000000000         3.108624251323477E-020
  -28.6200000000000        -3.594115205225239E-019
  -28.4300000000000        -4.063845675420626E-019
  -28.2400000000000        -5.705790864227997E-020
  -28.0500000000000         3.594900332306895E-019
  -27.8600000000000         4.467830780001054E-019
  -27.6700000000000         1.204570974568103E-019
  -27.4800000000000        -3.099321905456729E-019
  -27.2900000000000        -4.347809315259995E-019
  -27.1000000000000        -1.338391606851276E-019
  -26.9100000000000         3.095894838287271E-019
  -26.7200000000000         4.783877628663699E-019
  -26.5300000000000         2.183697462025513E-019
  -26.3400000000000        -2.164989773279125E-019
  -26.1500000000000        -4.090876944884149E-019
  -25.9600000000000        -1.796377603220943E-019
  -25.7700000000000         2.417270629588013E-019
  -25.5800000000000         4.355747508293963E-019
  -25.3900000000000         1.959947512005083E-019
  -25.2000000000000        -2.690354123727245E-019
  -25.0100000000000        -5.316850959454939E-019
  -24.8200000000000        -3.490512795193211E-019
  -24.6300000000000         1.065260610615545E-019
  -24.4400000000000         4.115360466550552E-019
  -24.2500000000000         2.934871287866665E-019
  -24.0600000000000        -1.126152415867967E-019
  -23.8700000000000        -3.975273013786796E-019
  -23.6800000000000        -2.719961165631419E-019
  -23.4900000000000         1.551497541865472E-019
  -23.3000000000000         4.801341068535361E-019
  -23.1100000000000         3.898461402876480E-019
  -22.9200000000000        -3.810440902365785E-020
  -22.7300000000000        -4.077190671134962E-019
  -22.5400000000000        -3.808487720293637E-019
  -22.3500000000000         1.953036026345327E-021
  -22.1600000000000         3.624538622929569E-019
  -21.9700000000000         3.478199421079484E-019
  -21.7800000000000        -3.154174410711576E-020
  -21.5900000000000        -4.116277815111953E-019
  -21.4000000000000        -4.223983860509293E-019
  -21.2100000000000        -4.180424225750303E-020
  -21.0200000000000         3.815468349286519E-019
  -20.8300000000000         4.593264161113600E-019
  -20.6400000000000         1.323504406637028E-019
  -20.4500000000000        -2.752373325210455E-019
  -20.2600000000000        -3.681147587340709E-019
  -20.0700000000000        -5.926265626194556E-020
  -19.8800000000000         3.462545935513382E-019
  -19.6900000000000         4.433586065480278E-019
  -19.5000000000000         1.163134689700613E-019
  -19.3100000000000        -3.463987141009002E-019
  -19.1200000000000        -5.226570157890367E-019
  -18.9300000000000        -2.561206368998360E-019
  -18.7400000000000         1.961781988501947E-019
  -18.5500000000000         4.090046847585168E-019
  -18.3600000000000         1.926554540967060E-019
  -18.1700000000000        -2.297734274846975E-019
  -17.9800000000000        -4.392697245701068E-019
  -17.7900000000000        -2.235005509415513E-019
  -17.6000000000000         2.193717811701793E-019
  -17.4100000000000         4.699649228156655E-019
  -17.2200000000000         2.893187536320682E-019
  -17.0300000000000        -1.510592231220596E-019
  -16.8400000000000        -4.314166746626045E-019
  -16.6500000000000        -2.837738152092359E-019
  -16.4600000000000         1.524510787456515E-019
  -16.2700000000000         4.631256864400152E-019
  -16.0800000000000         3.533965840917422E-019
  -15.8900000000000        -7.255901808998367E-020
  -15.7000000000000        -4.120686576198208E-019
  -15.5100000000000        -3.485941526893190E-019
  -15.3200000000000         4.655632304200994E-020
  -15.1300000000000         3.838123670687823E-019
  -14.9400000000000         3.298901957559222E-019
  -14.7500000000000        -7.131182558138736E-020
  -14.5600000000000        -4.390159250796704E-019
  -14.3700000000000        -4.188437919958000E-019
  -14.1800000000000        -2.215479504656159E-020
  -13.9900000000000         3.825386764086846E-019
  -13.8000000000000         4.186266825192852E-019
  -13.6100000000000         5.906526546991952E-020
  -13.4200000000000        -3.482668150936788E-019
  -13.2300000000000        -4.122704567757745E-019
  -13.0400000000000        -7.110721003552512E-020
  -12.8500000000000         3.500270844025314E-019
  -12.6600000000000         4.502435349193129E-019
  -12.4700000000000         1.353460019859999E-019
  -12.2800000000000        -2.934230588831137E-019
  -12.0900000000000        -4.279461003215956E-019
  -11.9000000000000        -1.432647067457783E-019
  -11.7100000000000         2.831729822542971E-019
  -11.5200000000000         4.371443683474917E-019
  -11.3300000000000         1.645720323568555E-019
  -11.1400000000000        -2.799541470708522E-019
  -10.9500000000000        -4.753164487869869E-019
  -10.7600000000000        -2.351568976514065E-019
  -10.5700000000000         2.148225616716922E-019
  -10.3800000000000         4.521131770782223E-019
  -10.1900000000000         2.594919989808790E-019
  -10.0000000000000        -1.693167854752488E-019
  -9.81000000000000        -4.164555110291879E-019
  -9.62000000000000        -2.409207369342731E-019
  -9.42999999999999         1.897871155485683E-019
  -9.23999999999999         4.595711911591342E-019
  -9.05000000000000         3.025466714927432E-019
  -8.86000000000000        -1.408797656403972E-019
  -8.67000000000000        -4.557522634264182E-019
  -8.48000000000000        -3.468321377436122E-019
  -8.28999999999999         8.017737561233728E-020
  -8.09999999999999         4.186523124725765E-019
  -7.91000000000000         3.477792537261721E-019
  -7.72000000000000        -6.224306438096635E-020
  -7.53000000000000        -4.178804311696532E-019
  -7.34000000000000        -3.782524200176987E-019
  -7.15000000000001         1.989595754189709E-020
  -6.95999999999999         3.982490913602547E-019
  -6.77000000000000         3.985685905690533E-019
  -6.58000000000000         2.428600159144803E-020
  -6.39000000000000        -3.635223717206124E-019
  -6.20000000000000        -3.916473147936173E-019
  -6.01000000000001        -3.202692903033540E-020
  -5.81999999999999         3.706457644984708E-019
  -5.63000000000000         4.278724587276032E-019
  -5.44000000000000         7.857975804964330E-020
  -5.25000000000000        -3.521672446534350E-019
  -5.06000000000000        -4.626175251929737E-019
  -4.87000000000000        -1.561640128946178E-019
  -4.67999999999999         2.683037024223946E-019
  -4.48999999999999         4.029786498887647E-019
  -4.30000000000000         1.210382241373165E-019
  -4.11000000000000        -3.024084902198859E-019
  -3.92000000000000        -4.543399879867251E-019
  -3.73000000000000        -1.806353898908612E-019
  -3.53999999999999         2.643565747871054E-019
  -3.34999999999999         4.592563948502433E-019
  -3.16000000000000         2.177354665409909E-019
  -2.97000000000000        -2.325327628457939E-019
  -2.78000000000000        -4.649106025590672E-019
  -2.59000000000000        -2.585166051790140E-019
  -2.40000000000001         1.924173890565561E-019
  -2.20999999999999         4.641335829949743E-019
  -2.02000000000000         3.071050197707398E-019
  -1.83000000000000        -1.175061974317263E-019
  -1.64000000000000        -3.943238082579389E-019
  -1.45000000000000        -2.527435337420699E-019
  -1.26000000000001         1.734361780644545E-019
  -1.06999999999999         4.734471958306459E-019
 -0.879999999999995         3.520099340823903E-019
 -0.689999999999998        -8.759888414015630E-020
 -0.500000000000000        -4.400494526310843E-019
 -0.310000000000002        -3.825575334078535E-019
 -0.120000000000005         1.914108598921961E-020
  7.000000000000739E-002    3.755151493807021E-019
  0.260000000000005         3.462915048222743E-019
  0.450000000000003        -3.518616580616160E-020
  0.640000000000001        -3.957633384287847E-019
  0.829999999999998        -3.811099796031930E-019
   1.02000000000000         3.752800098533870E-021
   1.21000000000001         3.972766559075724E-019
   1.40000000000001         4.255142404249922E-019
   1.59000000000000         5.950939558920579E-020
   1.78000000000000        -3.559409790000456E-019
   1.97000000000000        -4.305987456510286E-019
   2.16000000000000        -1.007643008308684E-019
   2.34999999999999         3.105478416449534E-019
   2.54000000000001         4.026095519988461E-019
   2.73000000000000         8.027367215052130E-020
   2.92000000000000        -3.538337692061836E-019
   3.11000000000000        -4.864271862098595E-019
   3.30000000000000        -1.869402423018402E-019
   3.48999999999999         2.678504352297793E-019
   3.68000000000001         4.572436841882962E-019
   3.87000000000000         2.166221107956202E-019
   4.06000000000000        -2.080273883245706E-019
   4.25000000000000        -3.979025147393305E-019
   4.44000000000000        -1.633132799140870E-019
   4.63000000000000         2.741997659502525E-019
   4.82000000000001         4.930459889084351E-019
   5.01000000000001         2.746193355638506E-019
   5.20000000000000        -1.863000296870985E-019
   5.39000000000000        -4.651198379542614E-019
   5.58000000000000        -3.103142811533670E-019
   5.77000000000000         1.189628441245503E-019
   5.96000000000001         4.069717065136094E-019
   6.15000000000001         2.789626950121438E-019
   6.34000000000000        -1.377850907377279E-019
   6.53000000000000        -4.378810151917173E-019