  -105.000000000000         0.000000000000000E+000
  -104.810000000000         2.089156430010892E-010
  -104.620000000000         4.568109465799259E-010
  -104.430000000000         7.036977146859804E-010
  -104.240000000000         1.054248537883623E-009
  -104.050000000000         1.501299802603181E-009
  -103.860000000000         1.842683697684193E-009
  -103.670000000000         1.999141578610910E-009
  -103.480000000000         2.018976525243068E-009
  -103.290000000000         2.541623481524815E-009
  -103.100000000000         3.267002787001816E-009
  -102.910000000000         4.376950131355517E-009
  -102.720000000000         5.530985371632601E-009
  -102.530000000000         6.507410777792529E-009
  -102.340000000000         7.299272819544898E-009
  -102.150000000000         7.828728837577242E-009
  -101.960000000000         8.174942888559115E-009
  -101.770000000000         8.209759834029876E-009
  -101.580000000000         8.408223014049418E-009
  -101.390000000000         8.810329592942389E-009
  -101.200000000000         8.999265138492168E-009
  -101.010000000000         9.016387939516956E-009
  -100.820000000000         8.609922121693686E-009
  -100.630000000000         7.993538365976000E-009
  -100.440000000000         7.436314045373945E-009
  -100.250000000000         7.011346191658231E-009
  -100.060000000000         6.756300358815367E-009
  -99.8700000000000         6.742905787785424E-009
  -99.6800000000000         6.726534259216542E-009
  -99.4900000000000         6.305884055040949E-009
  -99.3000000000000         5.378304297602723E-009
  -99.1100000000000         4.370621067162977E-009
  -98.9200000000000         3.272498077561682E-009
  -98.7300000000000         2.341621301183313E-009
  -98.5400000000000         2.066095991752620E-009
  -98.3500000000000         1.599460905660206E-009
  -98.1600000000000         1.491531496916483E-009
  -97.9700000000000         1.318705761236920E-009
  -97.7800000000000         1.292674382763212E-009
  -97.5900000000000         1.268968467034979E-009
  -97.4000000000000         1.138477562160534E-009
  -97.2100000000000         1.040500616512034E-009
  -97.0200000000000         9.954404784973068E-010
  -96.8300000000000         1.414513343123524E-009
  -96.6400000000000         2.070950265031622E-009
  -96.4500000000000         2.770453888118709E-009
  -96.2600000000000         3.552725575203305E-009
  -96.0700000000000         4.148867261578136E-009
  -95.8800000000000         4.478603899951623E-009
  -95.6900000000000         4.632995539651681E-009
  -95.5000000000000         4.694512217244788E-009
  -95.3100000000000         4.988401889575185E-009
  -95.1200000000000         5.313968919189764E-009
  -94.9300000000000         5.662847569166232E-009
  -94.7400000000000         5.853444388712369E-009
  -94.5500000000000         6.067272360742246E-009
  -94.3600000000000         6.252941594480686E-009
  -94.1700000000000         6.373590271528428E-009
  -93.9800000000000         6.654902917021412E-009
  -93.7900000000000         6.668896494338327E-009
  -93.6000000000000         7.269839377220908E-009
  -93.4100000000000         7.709595156060560E-009
  -93.2200000000000         7.942499509724055E-009
  -93.0300000000000         8.140889079163642E-009
  -92.8400000000000         8.048627400399823E-009
  -92.6500000000000         7.381383327536138E-009
  -92.4600000000000         6.235826900677136E-009
  -92.2700000000000         4.885929963558995E-009
  -92.0800000000000         3.644493887426264E-009
  -91.8900000000000         2.752535403904530E-009
  -91.7000000000000         2.381233697422499E-009
  -91.5100000000000         2.148800839332962E-009
  -91.3200000000000         2.021939715294907E-009
  -91.1300000000000         1.330487829197788E-009
  -90.9400000000000         4.497131066857747E-010
  -90.7500000000000        -4.075771649464668E-011
  -90.5600000000000        -4.266990052019118E-011
  -90.3700000000000         5.255743123974321E-010
  -90.1800000000000         1.577166098335382E-009
  -89.9900000000000         2.759212549439347E-009
  -89.8000000000000         3.684896644439813E-009
  -89.6100000000000         3.763544854495235E-009
  -89.4200000000000         3.819072496319950E-009
  -89.2300000000000         3.969461635575976E-009
  -89.0400000000000         4.915720037424232E-009
  -88.8500000000000         5.097911238086418E-009
  -88.6600000000000         6.002789435399652E-009
  -88.4700000000000         6.608321583547502E-009
  -88.2800000000000         6.950860116754292E-009
  -88.0900000000000         7.056375299797878E-009
  -87.9000000000000         6.869124560603086E-009
  -87.7100000000000         6.627546008334097E-009
  -87.5200000000000         6.462977824492906E-009
  -87.3300000000000         6.373569379673851E-009
  -87.1400000000000         6.218680624659765E-009
  -86.9500000000000         6.240885674662173E-009
  -86.7600000000000         6.268627770141962E-009
  -86.5700000000000         6.274387411944460E-009
  -86.3800000000000         6.426303996523124E-009
  -86.1900000000000         6.763613430069390E-009
  -86.0000000000000         7.269851894596379E-009
  -85.8100000000000         7.989382289296019E-009
  -85.6200000000000         9.112136596111075E-009
  -85.4300000000000         1.040530368994859E-008
  -85.2400000000000         1.166807132809460E-008
  -85.0500000000000         1.310939310625617E-008
  -84.8600000000000         1.430843061858724E-008
  -84.6700000000000         1.528276656034374E-008
  -84.4800000000000         1.617329066620721E-008
  -84.2900000000000         1.719146673453486E-008
  -84.1000000000000         1.848616487251082E-008
  -83.9100000000000         2.020036952151878E-008
  -83.7200000000000         2.039747688316252E-008
  -83.5300000000000         2.336926986869828E-008
  -83.3400000000000         2.322984287647704E-008
  -83.1500000000000         2.351855724332978E-008
  -82.9600000000000         2.332493942494633E-008
  -82.7700000000000         2.289772061134702E-008
  -82.5800000000000         2.229831651951722E-008
  -82.3900000000000         2.166168011008700E-008
  -82.2000000000000         2.116994526356401E-008
  -82.0100000000000         2.059755680299830E-008
  -81.8200000000000         1.975312159962519E-008
  -81.6300000000000         1.859055180254222E-008
  -81.4400000000000         1.732921255620745E-008
  -81.2500000000000         1.632044577071199E-008
  -81.0600000000000         1.551961468733801E-008
  -80.8700000000000         1.495111629035465E-008
  -80.6800000000000         1.490788913831621E-008
  -80.4900000000000         1.507744606391480E-008
  -80.3000000000000         1.526429019299650E-008
  -80.1100000000000         1.533793041936883E-008
  -79.9200000000000         1.540255639368285E-008
  -79.7300000000000         1.555762062417434E-008
  -79.5400000000000         1.598754404292238E-008
  -79.3500000000000         1.693458575590634E-008
  -79.1600000000000         1.809369617385065E-008
  -78.9700000000000         1.902857780149817E-008
  -78.7800000000000         1.973391977968529E-008
  -78.5900000000000         2.026881026444560E-008
  -78.4000000000000         2.057606637911569E-008
  -78.2100000000000         2.055707564007277E-008
  -78.0200000000000         2.040739142404767E-008
  -77.8300000000000         2.011946254141226E-008
  -77.6400000000000         1.972119451803189E-008
  -77.4500000000000         1.926894755414146E-008
  -77.2600000000000         1.888495378601769E-008
  -77.0700000000000         1.866236770432194E-008
  -76.8800000000000         1.865815274498368E-008
  -76.6900000000000         1.878862481527745E-008
  -76.5000000000000         1.932180212221326E-008
  -76.3100000000000         2.017637326367342E-008
  -76.1200000000000         2.033758619279581E-008
  -75.9300000000000         2.070064422510445E-008
  -75.7400000000000         2.073256817631238E-008
  -75.5500000000000         2.088742563162595E-008
  -75.3600000000000         2.095515214455519E-008
  -75.1700000000000         2.099708685920191E-008
  -74.9800000000000         2.102527608032777E-008
  -74.7900000000000         2.086045299362890E-008
  -74.6000000000000         2.060677428704990E-008
  -74.4100000000000         2.036354197754622E-008
  -74.2200000000000         2.021868599928622E-008
  -74.0300000000000         2.027165363852373E-008
  -73.8400000000000         2.063250567270174E-008
  -73.6500000000000         2.116651602984371E-008
  -73.4600000000000         2.168426210088090E-008
  -73.2700000000000         2.237175917343522E-008
  -73.0800000000000         2.320546438104950E-008
  -72.8900000000000         2.467643001731769E-008
  -72.7000000000000         2.615291683232227E-008
  -72.5100000000000         2.780335073558922E-008
  -72.3200000000000         2.943029306028756E-008
  -72.1300000000000         3.059027104570550E-008
  -71.9400000000000         3.096491264635393E-008
  -71.7500000000000         3.350947611593282E-008
  -71.5600000000000         3.385102359067922E-008
  -71.3700000000000         3.432736002678382E-008
  -71.1800000000000         3.529898969505253E-008
  -70.9900000000000         3.571813303876153E-008
  -70.8000000000000         3.918462042430191E-008
  -70.6100000000000         3.965893622494326E-008
  -70.4200000000000         4.007502222166759E-008
  -70.2300000000000         4.484604016461540E-008
  -70.0400000000000         4.513894122639214E-008
  -69.8500000000000         4.566135306653173E-008
  -69.6600000000000         4.762052003576493E-008
  -69.4700000000000         4.788024240071557E-008
  -69.2800000000000         4.863348968351868E-008
  -69.0900000000000         4.877439713113670E-008
  -68.9000000000000         4.889198790915798E-008
  -68.7100000000000         4.887051512791094E-008
  -68.5200000000000         4.858731804714609E-008
  -68.3300000000000         4.805196761325768E-008
  -68.1400000000000         4.744528342276895E-008
  -67.9500000000000         4.710766789892316E-008
  -67.7600000000000         4.712922213706990E-008
  -67.5700000000000         4.741515561072926E-008
  -67.3800000000000         4.872719569917092E-008
  -67.1900000000000         5.093170821976678E-008
  -67.0000000000000         5.204268101211767E-008
  -66.8100000000000         5.518986656061471E-008
  -66.6200000000000         5.568592744023894E-008
  -66.4300000000000         5.692570239086337E-008
  -66.2400000000000         6.145381425892172E-008
  -66.0500000000000         6.167238483701861E-008
  -65.8600000000000         6.230595193431052E-008
  -65.6700000000000         6.300831059870247E-008
  -65.4800000000000         6.344980244008842E-008
  -65.2900000000000         6.398795710880004E-008
  -65.1000000000000         6.457368509954244E-008
  -64.9100000000000         6.519164034175893E-008
  -64.7200000000000         6.577966456617877E-008
  -64.5300000000000         6.651165838846281E-008
  -64.3400000000000         6.708210334138594E-008
  -64.1500000000000         6.757508336572167E-008
  -63.9600000000000         6.800844036943751E-008
  -63.7700000000000         6.845260714638183E-008
  -63.5800000000000         6.902281631416074E-008
  -63.3900000000000         6.944253574438776E-008
  -63.2000000000000         6.971648726719900E-008
  -63.0100000000000         6.980410098446056E-008
  -62.8200000000000         6.991448423485162E-008
  -62.6300000000000         7.003560084370433E-008
  -62.4400000000000         7.016420865729268E-008
  -62.2500000000000         7.026080440074415E-008
  -62.0600000000000         7.027459592224173E-008
  -61.8700000000000         7.032260408056168E-008
  -61.6800000000000         7.037477592925382E-008
  -61.4900000000000         7.044269061994464E-008
  -61.3000000000000         7.070008440581051E-008
  -61.1100000000000         7.147543972782101E-008
  -60.9200000000000         7.279897175081531E-008
  -60.7300000000000         7.444183163985800E-008
  -60.5400000000000         7.584986448270497E-008
  -60.3500000000000         7.696694269584306E-008
  -60.1600000000000         7.792968639484286E-008
  -59.9700000000000         7.886382499349142E-008
  -59.7800000000000         7.991495271169345E-008
  -59.5900000000000         8.110751496100006E-008
  -59.4000000000000         8.218552351928314E-008
  -59.2100000000000         8.309893147749837E-008
  -59.0200000000000         8.387682385254011E-008
  -58.8300000000000         8.464935161787550E-008
  -58.6400000000000         8.559693110338483E-008
  -58.4500000000000         8.683836748604676E-008
  -58.2600000000000         8.842935737307078E-008
  -58.0700000000000         8.971534989753337E-008
  -57.8800000000000         9.125683609736255E-008
  -57.6900000000000         9.208306197634660E-008
  -57.5000000000000         9.320632790979495E-008
  -57.3100000000000         9.391537003804209E-008
  -57.1200000000000         9.643421359046505E-008
  -56.9300000000000         9.689311031261987E-008
  -56.7400000000000         9.874272650249318E-008
  -56.5500000000000         1.007185516549947E-007
  -56.3600000000000         1.018448631357243E-007
  -56.1700000000000         1.036121492000177E-007
  -55.9800000000000         1.043103555932074E-007
  -55.7900000000000         1.056452431824102E-007
  -55.6000000000000         1.063756009575652E-007
  -55.4100000000000         1.070988564710847E-007
  -55.2200000000000         1.071763080999889E-007
  -55.0300000000000         1.069799600799388E-007
  -54.8400000000000         1.065927000226074E-007
  -54.6500000000000         1.062811701987425E-007
  -54.4600000000000         1.061359912810036E-007
  -54.2700000000000         1.062544747929099E-007
  -54.0800000000000         1.066815163344922E-007
  -53.8900000000000         1.074029811148879E-007
  -53.7000000000000         1.084750262270835E-007
  -53.5100000000000         1.099906746616726E-007
  -53.3200000000000         1.119618750500362E-007
  -53.1300000000000         1.145084943617437E-007
  -52.9400000000000         1.171798609480002E-007
  -52.7500000000000         1.197388409106282E-007
  -52.5600000000000         1.219854019756375E-007
  -52.3700000000000         1.245175219460051E-007
  -52.1800000000000         1.255936793019423E-007
  -51.9900000000000         1.319896467089835E-007
  -51.8000000000000         1.322514609268815E-007
  -51.6100000000000         1.343469965356250E-007
  -51.4200000000000         1.365626784174088E-007
  -51.2300000000000         1.390637354788564E-007
  -51.0400000000000         1.401578677495096E-007
  -50.8500000000000         1.423920443581889E-007
  -50.6600000000000         1.433687805169967E-007
  -50.4700000000000         1.486055099578126E-007
  -50.2800000000000         1.493037314976354E-007
  -50.0900000000000         1.515136366080158E-007
  -49.9000000000000         1.541628597482302E-007
  -49.7100000000000         1.552418168070046E-007
  -49.5200000000000         1.576942133049096E-007
  -49.3300000000000         1.584984779584037E-007
  -49.1400000000000         1.608751533210140E-007
  -48.9500000000000         1.615337036166687E-007
  -48.7600000000000         1.634082107179572E-007
  -48.5700000000000         1.642654876986935E-007
  -48.3800000000000         1.659424178386798E-007
  -48.1900000000000         1.672689665022487E-007
  -48.0000000000000         1.688251714895688E-007
  -47.8100000000000         1.709595231029403E-007
  -47.6200000000000         1.734873845220900E-007
  -47.4300000000000         1.762882023549466E-007
  -47.2400000000000         1.793576479048733E-007
  -47.0500000000000         1.819907430766833E-007
  -46.8600000000000         1.847987530312933E-007
  -46.6700000000000         1.873038006775505E-007
  -46.4800000000000         1.897314449704671E-007
  -46.2900000000000         1.920490339876471E-007
  -46.1000000000000         1.940708545393979E-007
  -45.9100000000000         1.961305825292028E-007
  -45.7200000000000         1.978108690288746E-007
  -45.5300000000000         1.992847606753087E-007
  -45.3400000000000         2.003046214855674E-007
  -45.1500000000000         2.011152952642989E-007
  -44.9600000000000         2.019967273386933E-007
  -44.7700000000000         2.029388733617126E-007
  -44.5800000000000         2.040037551254089E-007
  -44.3900000000000         2.049979762201481E-007
  -44.2000000000000         2.063023707751365E-007
  -44.0100000000000         2.074509431569276E-007
  -43.8200000000000         2.088047028945435E-007
  -43.6300000000000         2.098932583464935E-007
  -43.4400000000000         2.115026921372167E-007
  -43.2500000000000         2.128467524648378E-007
  -43.0600000000000         2.148505234583865E-007
  -42.8700000000000         2.163456802509076E-007
  -42.6800000000000         2.182962348187758E-007
  -42.4900000000000         2.195752308449486E-007
  -42.3000000000000         2.213832554458835E-007
  -42.1100000000000         2.223605529404886E-007
  -41.9200000000000         2.239832636988031E-007
  -41.7300000000000         2.249532143532077E-007
  -41.5400000000000         2.265190369626823E-007
  -41.3500000000000         2.273982572739753E-007
  -41.1600000000000         2.291651548324935E-007
  -40.9700000000000         2.299070654316551E-007
  -40.7800000000000         2.322786212774795E-007
  -40.5900000000000         2.334784362586026E-007
  -40.4000000000000         2.371912996163789E-007
  -40.2100000000000         2.385804478418755E-007
  -40.0200000000000         2.426564210739667E-007
  -39.8300000000000         2.440537509411809E-007
  -39.6400000000000         2.487450385446457E-007
  -39.4500000000000         2.501636912518548E-007
  -39.2600000000000         2.543585482978009E-007
  -39.0700000000000         2.559291093985585E-007
  -38.8800000000000         2.599157481003142E-007
  -38.6900000000000         2.613150459702128E-007
  -38.5000000000000         2.653705292546005E-007
  -38.3100000000000         2.669354906310480E-007
  -38.1200000000000         2.711811394290469E-007
  -37.9300000000000         2.728814791154819E-007
  -37.7400000000000         2.770888978776489E-007
  -37.5500000000000         2.786251018350570E-007
  -37.3600000000000         2.823972348418633E-007
  -37.1700000000000         2.838822991836047E-007
  -36.9800000000000         2.876472615251755E-007
  -36.7900000000000         2.892093633817476E-007
  -36.6000000000000         2.932395829491080E-007
  -36.4100000000000         2.946469532497223E-007
  -36.2200000000000         2.985857662459507E-007
  -36.0300000000000         2.997616033378175E-007
  -35.8400000000000         3.031872665494381E-007
  -35.6500000000000         3.042587363647233E-007
  -35.4600000000000         3.076246697537023E-007
  -35.2700000000000         3.088670638220973E-007
  -35.0800000000000         3.128105301342945E-007
  -34.8900000000000         3.141937934993924E-007
  -34.7000000000000         3.189297474721005E-007
  -34.5100000000000         3.205285824425160E-007
  -34.3200000000000         3.255142485821258E-007
  -34.1300000000000         3.273112792488277E-007
  -33.9400000000000         3.328573750234672E-007
  -33.7500000000000         3.348285606027365E-007
  -33.5600000000000         3.402878659218724E-007
  -33.3700000000000         3.421078018110654E-007
  -33.1800000000000         3.474477373559380E-007
  -32.9900000000000         3.490312864703123E-007
  -32.8000000000000         3.536656889231812E-007
  -32.6100000000000         3.551430197529013E-007
  -32.4200000000000         3.599462479388707E-007
  -32.2300000000000         3.614438925702178E-007
  -32.0400000000000         3.663460984512776E-007
  -31.8500000000000         3.679811278191658E-007
  -31.6600000000000         3.733042900129737E-007
  -31.4700000000000         3.749660874459708E-007
  -31.2800000000000         3.805623778027383E-007
  -31.0900000000000         3.824006335880296E-007
  -30.9000000000000         3.881443653552613E-007
  -30.7100000000000         3.899739029622945E-007
  -30.5200000000000         3.952357181843136E-007
  -30.3300000000000         3.968796602688945E-007
  -30.1400000000000         4.019746852716359E-007
  -29.9500000000000         4.036045226362268E-007
  -29.7600000000000         4.088681174663470E-007
  -29.5700000000000         4.104282855974335E-007
  -29.3800000000000         4.150844720449250E-007
  -29.1900000000000         4.165534145492550E-007
  -29.0000000000000         4.205265898748285E-007
  -28.8100000000000         4.219231949452936E-007
  -28.6200000000000         4.252455397818650E-007
  -28.4300000000000         4.266594073902152E-007
  -28.2400000000000         4.297434388527479E-007
  -28.0500000000000         4.308897161338657E-007
  -27.8600000000000         4.334094751711550E-007
  -27.6700000000000         4.351745840940218E-007
  -27.4800000000000         4.372950237050345E-007
  -27.2900000000000         4.395755368800179E-007
  -27.1000000000000         4.418161488519040E-007
  -26.9100000000000         4.439703906486399E-007
  -26.7200000000000         4.459996384939223E-007
  -26.5300000000000         4.482951189268257E-007
  -26.3400000000000         4.503830084005923E-007
  -26.1500000000000         4.526619624201903E-007
  -25.9600000000000         4.549176129478312E-007
  -25.7700000000000         4.572726555686701E-007
  -25.5800000000000         4.596772882797938E-007
  -25.3900000000000         4.619535685357793E-007
  -25.2000000000000         4.642692111496472E-007
  -25.0100000000000         4.670854246559301E-007
  -24.8200000000000         4.698847858643590E-007
  -24.6300000000000         4.731165625317830E-007
  -24.4400000000000         4.765293842147856E-007
  -24.2500000000000         4.795700248859793E-007
  -24.0600000000000         4.829049172476353E-007
  -23.8700000000000         4.859075945000674E-007
  -23.6800000000000         4.887760695263334E-007
  -23.4900000000000         4.919823608610124E-007
  -23.3000000000000         4.952853214458111E-007
  -23.1100000000000         4.984399894632405E-007
  -22.9200000000000         5.015324565291323E-007
  -22.7300000000000         5.045381679154086E-007
  -22.5400000000000         5.072658890040703E-007
  -22.3500000000000         5.101113794204130E-007
  -22.1600000000000         5.133148503300416E-007
  -21.9700000000000         5.165806946189966E-007
  -21.7800000000000         5.197322783309120E-007
  -21.5900000000000         5.231755568971221E-007
  -21.4000000000000         5.263095215776358E-007
  -21.2100000000000         5.291142639870381E-007
  -21.0200000000000         5.328730800074358E-007
  -20.8300000000000         5.341947190511374E-007
  -20.6400000000000         5.391907879973965E-007
  -20.4500000000000         5.400888824883301E-007
  -20.2600000000000         5.466710200677738E-007
  -20.0700000000000         5.478851581794435E-007
  -19.8800000000000         5.514899623631867E-007
  -19.6900000000000         5.577245358718696E-007
  -19.5000000000000         5.585831373283962E-007
  -19.3100000000000         5.659896173602780E-007
  -19.1200000000000         5.671609269159428E-007
  -18.9300000000000         5.716827921165588E-007
  -18.7400000000000         5.729885121988691E-007
  -18.5500000000000         5.793050038570858E-007
  -18.3600000000000         5.799908314839006E-007
  -18.1700000000000         5.838704507710150E-007
  -17.9800000000000         5.887774745876502E-007
  -17.7900000000000         5.892956344918627E-007
  -17.6000000000000         5.941273181342802E-007
  -17.4100000000000         5.946317478370381E-007
  -17.2200000000000         5.987206546545357E-007
  -17.0300000000000         5.993141594415561E-007
  -16.8400000000000         6.038944108130286E-007
  -16.6500000000000         6.046623273576635E-007
  -16.4600000000000         6.095773518371121E-007
  -16.2700000000000         6.103472704509797E-007
  -16.0800000000000         6.155472103257002E-007
  -15.8900000000000         6.165674184721274E-007
  -15.7000000000000         6.228088828875925E-007
  -15.5100000000000         6.240664777680300E-007
  -15.3200000000000         6.318094498373651E-007
  -15.1300000000000         6.330390575026542E-007
  -14.9400000000000         6.393561876359067E-007
  -14.7500000000000         6.405045909780313E-007
  -14.5600000000000         6.477377802180247E-007
  -14.3700000000000         6.487046749114073E-007
  -14.1800000000000         6.543689048012381E-007
  -13.9900000000000         6.556434377423652E-007
  -13.8000000000000         6.625210743697181E-007
  -13.6100000000000         6.630878885604487E-007
  -13.4200000000000         6.681145417250607E-007
  -13.2300000000000         6.688856043400435E-007
  -13.0400000000000         6.750322905434997E-007
  -12.8500000000000         6.755590851148627E-007
  -12.6600000000000         6.808910471245786E-007
  -12.4700000000000         6.818295933680995E-007
  -12.2800000000000         6.886964956907355E-007
  -12.0900000000000         6.893360220581771E-007
  -11.9000000000000         6.955288589415977E-007
  -11.7100000000000         6.964227282434259E-007
  -11.5200000000000         7.036610643316656E-007
  -11.3300000000000         7.044845058528136E-007
  -11.1400000000000         7.107942983436472E-007
  -10.9500000000000         7.118288724267973E-007
  -10.7600000000000         7.199509160738547E-007
  -10.5700000000000         7.209200101047554E-007
  -10.3800000000000         7.274131918192905E-007
  -10.1900000000000         7.287131173801076E-007
  -10.0000000000000         7.370791300899185E-007
  -9.81000000000000         7.378123458489466E-007
  -9.62000000000000         7.431772491124919E-007
  -9.42999999999999         7.443624849608251E-007
  -9.23999999999999         7.512886018269926E-007
  -9.05000000000000         7.517629828425667E-007
  -8.86000000000000         7.573930102371975E-007
  -8.67000000000000         7.581904773884363E-007
  -8.48000000000000         7.647167075857604E-007
  -8.28999999999999         7.652448993757384E-007
  -8.09999999999999         7.706888792734231E-007
  -7.91000000000000         7.715407415679194E-007
  -7.72000000000000         7.781471035382893E-007
  -7.53000000000000         7.787369009854393E-007
  -7.34000000000000         7.844783234772017E-007
  -7.15000000000001         7.853013804580635E-007
  -6.95999999999999         7.916015636330828E-007
  -6.77000000000000         7.921414456918960E-007
  -6.58000000000000         7.971453617649364E-007
  -6.39000000000000         7.979020633759839E-007
  -6.20000000000000         8.040527830138905E-007
  -6.01000000000001         8.044746797761179E-007
  -5.81999999999999         8.074798008542997E-007
  -5.63000000000000         8.128830037442663E-007
  -5.44000000000000         8.133702099963970E-007
  -5.25000000000000         8.178411771425962E-007
  -5.06000000000000         8.185231710743701E-007
  -4.87000000000000         8.241348776305761E-007
  -4.67999999999999         8.244768119410005E-007
  -4.48999999999999         8.263927384446730E-007
  -4.30000000000000         8.318453021686521E-007
  -4.11000000000000         8.323580027169669E-007
  -3.92000000000000         8.346437378469244E-007
  -3.73000000000000         8.405780020636191E-007
  -3.53999999999999         8.407522010782517E-007
  -3.34999999999999         8.426906704195047E-007
  -3.16000000000000         8.474027489705582E-007
  -2.97000000000000         8.481970996313324E-007
  -2.78000000000000         8.539330926218385E-007
  -2.59000000000000         8.541404537100985E-007
  -2.40000000000001         8.562886280299579E-007
  -2.20999999999999         8.619993053054624E-007
  -2.02000000000000         8.622919794462628E-007
  -1.83000000000000         8.645149234400703E-007
  -1.64000000000000         8.699700967245262E-007
  -1.45000000000000         8.704949210384543E-007
  -1.26000000000001         8.733444388200933E-007
  -1.06999999999999         8.794886568695510E-007
 -0.879999999999995         8.799733006820099E-007
 -0.689999999999998         8.823442021972515E-007
 -0.500000000000000         8.854063278051561E-007
 -0.310000000000002         8.909078156214953E-007
 -0.120000000000005         8.915265530883742E-007
  7.000000000000739E-002    8.938858169965433E-007
  0.260000000000005         8.972303225962680E-007
  0.450000000000003         8.982450939523769E-007
  0.640000000000001         9.042804525646692E-007
  0.829999999999998         9.048858708018116E-007
   1.02000000000000         9.074720555957862E-007
   1.21000000000001         9.107319230028785E-007
   1.40000000000001         9.132333515758692E-007
   1.59000000000000         9.152437898493847E-007
   1.78000000000000         9.169088423375586E-007
   1.97000000000000         9.184041877949376E-007
   2.16000000000000         9.197461400085863E-007
   2.34999999999999         9.256565804068312E-007
   2.54000000000001         9.275307096801801E-007
   2.73000000000000         9.310411907849703E-007
   2.92000000000000         9.349475663186492E-007
   3.11000000000000         9.384890622836531E-007
   3.30000000000000         9.415702575899657E-007
   3.48999999999999         9.444535198474784E-007
   3.68000000000001         9.471232361275612E-007
   3.87000000000000         9.500300488403035E-007
   4.06000000000000         9.523172078292530E-007
   4.25000000000000         9.552713140105832E-007
   4.44000000000000         9.575488619820098E-007
   4.63000000000000         9.606238069581500E-007
   4.82000000000001         9.629988629500070E-007
   5.01000000000001         9.664363840069010E-007
   5.20000000000000         9.687419935288261E-007
   5.39000000000000         9.719039184002279E-007
   5.58000000000000         9.743587189824177E-007
   5.77000000000000         9.770246330868893E-007
   5.96000000000001         9.797354195986776E-007
   6.15000000000001         9.823191056957906E-007
   6.34000000000000         9.850001310799333E-007
   6.53000000000000         9.875054845453826E-007