  -105.000000000000         0.000000000000000E+000
  -104.810000000000         1.961253251425388E-020
  -104.620000000000         5.408023329862106E-020
  -104.430000000000         9.548749984043949E-020
  -104.240000000000         1.349785458556570E-019
  -104.050000000000         1.652227713014575E-019
  -103.860000000000         1.824173902809359E-019
  -103.670000000000         1.872518715352867E-019
  -103.480000000000         1.845606484046066E-019
  -103.290000000000         1.817719811630417E-019
  -103.100000000000         1.866104184392490E-019
  -102.910000000000         2.047258972983458E-019
  -102.720000000000         2.379416758473544E-019
  -102.530000000000         2.836314161100643E-019
  -102.340000000000         3.354066687859352E-019
  -102.150000000000         3.849154489522243E-019
  -101.960000000000         4.242301877915140E-019
  -101.770000000000         4.481317185144321E-019
  -101.580000000000         4.556247106322885E-019
  -101.390000000000         4.502414744771632E-019
  -101.200000000000         4.390420306009313E-019
  -101.010000000000         4.305972877239970E-019
  -100.820000000000         4.325384452597002E-019
  -100.630000000000         4.493821985030786E-019
  -100.440000000000         4.812607585000982E-019
  -100.250000000000         5.239221159084237E-019
  -100.060000000000         5.699970283129144E-019
  -99.8700000000000         6.111625735959668E-019
  -99.6800000000000         6.405737427038028E-019
  -99.4900000000000         6.548583132793728E-019
  -99.3000000000000         6.550974150242439E-019
  -99.1100000000000         6.465079967626490E-019
  -98.9200000000000         6.369195670558034E-019
  -98.7300000000000         6.344877860998357E-019
  -98.5400000000000         6.453099270227641E-019
  -98.3500000000000         6.716363855785338E-019
  -98.1600000000000         7.111991141221030E-019
  -97.9700000000000         7.578525476230068E-019
  -97.7800000000000         8.033405068130742E-019
  -97.5900000000000         8.396753786952424E-019
  -97.4000000000000         8.614386895674361E-019
  -97.2100000000000         8.673358124054559E-019
  -97.0200000000000         8.605543354217928E-019
  -96.8300000000000         8.478224957167708E-019
  -96.6400000000000         8.374410233701124E-019
  -96.4500000000000         8.368600023572844E-019
  -96.2600000000000         8.505052495471326E-019
  -96.0700000000000         8.784868795636869E-019
  -95.8800000000000         9.165663182153841E-019
  -95.6900000000000         9.573915072795700E-019
  -95.5000000000000         9.926405680349300E-019
  -95.3100000000000         1.015449904284404E-018
  -95.1200000000000         1.022420555447711E-018
  -94.9300000000000         1.014619720388263E-018
  -94.7400000000000         9.972861689767521E-019
  -94.5500000000000         9.783239350355228E-019
  -94.3600000000000         9.660199201236371E-019
  -94.1700000000000         9.666466645019374E-019
  -93.9800000000000         9.826461486953606E-019
  -93.7900000000000         1.011923300485645E-018
  -93.6000000000000         1.048456450464266E-018
  -93.4100000000000         1.084049225906195E-018
  -93.2200000000000         1.110716015972566E-018
  -93.0300000000000         1.123008686725626E-018
  -92.8400000000000         1.119609582656410E-018
  -92.6500000000000         1.103729290552925E-018
  -92.4600000000000         1.082194163424610E-018
  -92.2700000000000         1.063487266146698E-018
  -92.0800000000000         1.055308041156465E-018
  -91.8900000000000         1.062354409493972E-018
  -91.7000000000000         1.084966976521027E-018
  -91.5100000000000         1.119026769598581E-018
  -91.3200000000000         1.157136200233309E-018
  -91.1300000000000         1.190741541708750E-018
  -90.9400000000000         1.212581923608167E-018
  -90.7500000000000         1.218754885981112E-018
  -90.5600000000000         1.209800298848172E-018
  -90.3700000000000         1.190490563715510E-018
  -90.1800000000000         1.168391769559849E-018
  -89.9900000000000         1.151617733097301E-018
  -89.8000000000000         1.146432714723093E-018
  -89.6100000000000         1.155401767963441E-018
  -89.4200000000000         1.176628338371839E-018
  -89.2300000000000         1.204303162787858E-018
  -89.0400000000000         1.230407674031242E-018
  -88.8500000000000         1.247078952263637E-018
  -88.6600000000000         1.248949455706218E-018
  -88.4700000000000         1.234780255648538E-018
  -88.2800000000000         1.207910394428881E-018
  -88.0900000000000         1.175388163263948E-018
  -87.9000000000000         1.146032247430542E-018
  -87.7100000000000         1.127980114345211E-018
  -87.5200000000000         1.126428021345873E-018
  -87.3300000000000         1.142210003841333E-018
  -87.1400000000000         1.171619814587731E-018
  -86.9500000000000         1.207520870081099E-018
  -86.7600000000000         1.241418287861827E-018
  -86.5700000000000         1.265890756660757E-018
  -86.3800000000000         1.276677917534085E-018
  -86.1900000000000         1.273820985817316E-018
  -86.0000000000000         1.261531494400116E-018
  -85.8100000000000         1.246834903195519E-018
  -85.6200000000000         1.237393533002042E-018
  -85.4300000000000         1.239151845178934E-018
  -85.2400000000000         1.254496979793145E-018
  -85.0500000000000         1.281475076775587E-018
  -84.8600000000000         1.314294756034387E-018
  -84.6700000000000         1.344973726778061E-018
  -84.4800000000000         1.365651580140260E-018
  -84.2900000000000         1.370897105222916E-018
  -84.1000000000000         1.359337829753860E-018
  -83.9100000000000         1.334133572386099E-018
  -83.7200000000000         1.302149544510934E-018
  -83.5300000000000         1.272061968356374E-018
  -83.3400000000000         1.251940438054006E-018
  -83.1500000000000         1.247004841614525E-018
  -82.9600000000000         1.258204925886929E-018
  -82.7700000000000         1.282031707143569E-018
  -82.5800000000000         1.311611910141659E-018
  -82.3900000000000         1.338764293909674E-018
  -82.2000000000000         1.356418426195327E-018
  -82.0100000000000         1.360692410498887E-018
  -81.8200000000000         1.352025815888858E-018
  -81.6300000000000         1.335038683658892E-018
  -81.4400000000000         1.317157848034170E-018
  -81.2500000000000         1.306410863335628E-018
  -81.0600000000000         1.309031192143038E-018
  -80.8700000000000         1.327574569652006E-018
  -80.6800000000000         1.360098480139378E-018
  -80.4900000000000         1.400647338208003E-018
  -80.3000000000000         1.440905867523589E-018
  -80.1100000000000         1.472543546104677E-018
  -79.9200000000000         1.489572497622641E-018
  -79.7300000000000         1.490037321869152E-018
  -79.5400000000000         1.476548488841042E-018
  -79.3500000000000         1.455504999515267E-018
  -79.1600000000000         1.435230825269664E-018
  -78.9700000000000         1.423564195539365E-018
  -78.7800000000000         1.425598136886072E-018
  -78.5900000000000         1.442227779256939E-018
  -78.4000000000000         1.469926086544712E-018
  -78.2100000000000         1.501812230463457E-018
  -78.0200000000000         1.529700169778136E-018
  -77.8300000000000         1.546529423245532E-018
  -77.6400000000000         1.548468841404508E-018
  -77.4500000000000         1.536079279941115E-018
  -77.2600000000000         1.514194157531027E-018
  -77.0700000000000         1.490548476767002E-018
  -76.8800000000000         1.473549895152658E-018
  -76.6900000000000         1.469835687182927E-018
  -76.5000000000000         1.482324723732745E-018
  -76.3100000000000         1.509333955836734E-018
  -76.1200000000000         1.545023072187768E-018
  -75.9300000000000         1.581046469420591E-018
  -75.7400000000000         1.608940011437782E-018
  -75.5500000000000         1.622554434307191E-018
  -75.3600000000000         1.619831607314414E-018
  -75.1700000000000         1.603409241648260E-018
  -74.9800000000000         1.579878465181179E-018
  -74.7900000000000         1.557907771849029E-018
  -74.6000000000000         1.545773312588310E-018
  -74.4100000000000         1.549005543855614E-018
  -74.2200000000000         1.568827571337375E-018
  -74.0300000000000         1.601831521387362E-018
  -73.8400000000000         1.640981937866794E-018
  -73.6500000000000         1.677652393148810E-018
  -73.4600000000000         1.704103719316975E-018
  -73.2700000000000         1.715685950032040E-018
  -73.0800000000000         1.712128155645537E-018
  -72.8900000000000         1.697546887221594E-018
  -72.7000000000000         1.679176928376630E-018
  -72.5100000000000         1.665198774062320E-018
  -72.3200000000000         1.662298366644635E-018
  -72.1300000000000         1.673671129692784E-018
  -71.9400000000000         1.698052761309245E-018
  -71.7500000000000         1.730061261992568E-018
  -71.5600000000000         1.761754063025444E-018
  -71.3700000000000         1.784950478965148E-018
  -71.1800000000000         1.793645535252029E-018
  -70.9900000000000         1.785812411417291E-018
  -70.8000000000000         1.764066633562989E-018
  -70.6100000000000         1.734994893213442E-018
  -70.4200000000000         1.707338596836294E-018
  -70.2300000000000         1.689553774275954E-018
  -70.0400000000000         1.687448478416619E-018
  -69.8500000000000         1.702575105799724E-018
  -69.6600000000000         1.731836337642406E-018
  -69.4700000000000         1.768413616968498E-018
  -69.2800000000000         1.803746850847446E-018
  -69.0900000000000         1.829992147222883E-018
  -68.9000000000000         1.842247554425622E-018
  -68.7100000000000         1.839904945911751E-018
  -68.5200000000000         1.826740543671610E-018
  -68.3300000000000         1.809723961495596E-018
  -68.1400000000000         1.796899139904561E-018
  -67.9500000000000         1.794960544599623E-018
  -67.7600000000000         1.807235140158620E-018
  -67.5700000000000         1.832659946051559E-018
  -67.3800000000000         1.866052981264679E-018
  -67.1900000000000         1.899598303101653E-018
  -67.0000000000000         1.925113381123467E-018
  -66.8100000000000         1.936440648533758E-018
  -66.6200000000000         1.931269237872266E-018
  -66.4300000000000         1.911857405578393E-018
  -66.2400000000000         1.884443620970347E-018
  -66.0500000000000         1.857513541488818E-018
  -65.8600000000000         1.839421576655654E-018
  -65.6700000000000         1.836052942423830E-018
  -65.4800000000000         1.849200109078871E-018
  -65.2900000000000         1.876119713296174E-018
  -65.1000000000000         1.910393096236756E-018
  -64.9100000000000         1.943835712197532E-018
  -64.7200000000000         1.968897571606747E-018
  -64.5300000000000         1.980856177888000E-018
  -64.3400000000000         1.979165238643285E-018
  -64.1500000000000         1.967568573406570E-018
  -63.9600000000000         1.952948085487339E-018
  -63.7700000000000         1.943243563881640E-018
  -63.5800000000000         1.945053141819104E-018
  -63.3900000000000         1.961616967000874E-018
  -63.2000000000000         1.991775178221873E-018
  -63.0100000000000         2.030207104791622E-018
  -62.8200000000000         2.068885102653672E-018
  -62.6300000000000         2.099323142252385E-018
  -62.4400000000000         2.114970103867757E-018
  -62.2500000000000         2.113056708562997E-018
  -62.0600000000000         2.095363715143305E-018
  -61.8700000000000         2.067690849608140E-018
  -61.6800000000000         2.038181089135754E-018
  -61.4900000000000         2.014985685740821E-018
  -61.3000000000000         2.003946295298804E-018
  -61.1100000000000         2.006965921219173E-018
  -60.9200000000000         2.021540331338086E-018
  -60.7300000000000         2.041583436431664E-018
  -60.5400000000000         2.059302405951578E-018
  -60.3500000000000         2.067572065793231E-018
  -60.1600000000000         2.062113329540461E-018
  -59.9700000000000         2.042838881472463E-018
  -59.7800000000000         2.013972913208431E-018
  -59.5900000000000         1.982908594635780E-018
  -59.4000000000000         1.958133271793306E-018
  -59.2100000000000         1.946821501521505E-018
  -59.0200000000000         1.952792582760813E-018
  -58.8300000000000         1.975424545292043E-018
  -58.6400000000000         2.009840281807313E-018
  -58.4500000000000         2.048312887702777E-018
  -58.2600000000000         2.082483126336448E-018
  -58.0700000000000         2.105745740612217E-018
  -57.8800000000000         2.115112446096510E-018
  -57.6900000000000         2.112012338511677E-018
  -57.5000000000000         2.101800322593308E-018
  -57.3100000000000         2.092120232910903E-018
  -57.1200000000000         2.090601886115044E-018
  -56.9300000000000         2.102564151944300E-018
  -56.7400000000000         2.129393959431732E-018
  -56.5500000000000         2.168074719731627E-018
  -56.3600000000000         2.212003428238553E-018
  -56.1700000000000         2.252860313485454E-018
  -55.9800000000000         2.282987592442383E-018
  -55.7900000000000         2.297584679630197E-018
  -55.6000000000000         2.296080145542323E-018
  -55.4100000000000         2.282280587089512E-018
  -55.2200000000000         2.263252956961129E-018
  -55.0300000000000         2.247265202300980E-018
  -54.8400000000000         2.241382971457547E-018
  -54.6500000000000         2.249419218423754E-018
  -54.4600000000000         2.270831117494903E-018
  -54.2700000000000         2.300884830075359E-018
  -54.0800000000000         2.332042071357769E-018
  -53.8900000000000         2.356168291579132E-018
  -53.7000000000000         2.366922686614100E-018
  -53.5100000000000         2.361635247537334E-018
  -53.3200000000000         2.342123115929744E-018
  -53.1300000000000         2.314206128106688E-018
  -52.9400000000000         2.286060117827311E-018
  -52.7500000000000         2.265885182589994E-018
  -52.5600000000000         2.259565431676319E-018
  -52.3700000000000         2.268998810351602E-018
  -52.1800000000000         2.291580501737849E-018
  -51.9900000000000         2.320988545252027E-018
  -51.8000000000000         2.349043016531252E-018
  -51.6100000000000         2.368099143827296E-018
  -51.4200000000000         2.373279454806571E-018
  -51.2300000000000         2.363895604173185E-018
  -51.0400000000000         2.343644795731507E-018
  -50.8500000000000         2.319521702097489E-018
  -50.6600000000000         2.299761246477370E-018
  -50.4700000000000         2.291411058249826E-018
  -50.2800000000000         2.298241498712090E-018
  -50.0900000000000         2.319603571780192E-018
  -49.9000000000000         2.350569435582932E-018
  -49.7100000000000         2.383317579687701E-018
  -49.5200000000000         2.409363706820418E-018
  -49.3300000000000         2.421993258694286E-018
  -49.1400000000000         2.418192722355323E-018
  -48.9500000000000         2.399521249970351E-018
  -48.7600000000000         2.371670253881931E-018
  -48.5700000000000         2.342838201257141E-018
  -48.3800000000000         2.321390973655556E-018
  -48.1900000000000         2.313485137091151E-018
  -48.0000000000000         2.321341717419371E-018
  -47.8100000000000         2.342668428683129E-018
  -47.6200000000000         2.371394350635211E-018
  -47.4300000000000         2.399500369197681E-018
  -47.2400000000000         2.419411574719762E-018
  -47.0500000000000         2.426255370631796E-018
  -46.8600000000000         2.419327704394637E-018
  -46.6700000000000         2.402338474568528E-018
  -46.4800000000000         2.382360342824909E-018
  -46.2900000000000         2.367781626363211E-018
  -46.1000000000000         2.365854998702068E-018
  -45.9100000000000         2.380554037011409E-018
  -45.7200000000000         2.411362546510635E-018
  -45.5300000000000         2.453351369142353E-018
  -45.3400000000000         2.498523071119218E-018
  -45.1500000000000         2.538036488781070E-018
  -44.9600000000000         2.564668402757295E-018
  -44.7700000000000         2.574802400015246E-018
  -44.5800000000000         2.569373739219296E-018
  -44.3900000000000         2.553502286188654E-018
  -44.2000000000000         2.534925116177315E-018
  -44.0100000000000         2.521687151398661E-018
  -43.8200000000000         2.519762811148464E-018
  -43.6300000000000         2.531301855525949E-018
  -43.4400000000000         2.554011509325130E-018
  -43.2500000000000         2.581856117222806E-018
  -43.0600000000000         2.606870818673148E-018
  -42.8700000000000         2.621559433977825E-018
  -42.6800000000000         2.621174868689631E-018
  -42.4900000000000         2.605213555346388E-018
  -42.3000000000000         2.577683716016339E-018
  -42.1100000000000         2.546063232860164E-018
  -41.9200000000000         2.519242877041607E-018
  -41.7300000000000         2.505044801619874E-018
  -41.5400000000000         2.508029925364417E-018
  -41.3500000000000         2.528225544538064E-018
  -41.1600000000000         2.561139854119662E-018
  -40.9700000000000         2.599059116769712E-018
  -40.7800000000000         2.633252883724637E-018
  -40.5900000000000         2.656450351741126E-018
  -40.4000000000000         2.664873316330098E-018
  -40.2100000000000         2.659241019014968E-018
  -40.0200000000000         2.644461346436479E-018
  -39.8300000000000         2.628104095433130E-018
  -39.6400000000000         2.618104970351983E-018
  -39.4500000000000         2.620371756562587E-018
  -39.2600000000000         2.636992409392751E-018
  -39.0700000000000         2.665570281862588E-018
  -38.8800000000000         2.699884291285894E-018
  -38.6900000000000         2.731685477639996E-018
  -38.5000000000000         2.753108060925431E-018
  -38.3100000000000         2.758990805266662E-018
  -38.1200000000000         2.748427942908103E-018
  -37.9300000000000         2.725092040776185E-018
  -37.7400000000000         2.696228659486021E-018
  -37.5500000000000         2.670609589647361E-018
  -37.3600000000000         2.656034693921148E-018
  -37.1700000000000         2.657103913056165E-018
  -36.9800000000000         2.673903598167002E-018
  -36.7900000000000         2.701988414438211E-018
  -36.6000000000000         2.733667477610643E-018
  -36.4100000000000         2.760227544487594E-018
  -36.2200000000000         2.774454682483978E-018
  -36.0300000000000         2.772727691242087E-018
  -35.8400000000000         2.756078292974664E-018
  -35.6500000000000         2.729910661625707E-018
  -35.4600000000000         2.702460598300081E-018
  -35.2700000000000         2.682439771689840E-018
  -35.0800000000000         2.676546024965815E-018
  -34.8900000000000         2.687558123968128E-018
  -34.7000000000000         2.713562570224675E-018
  -34.5100000000000         2.748531905620147E-018
  -34.3200000000000         2.784083625543472E-018
  -34.1300000000000         2.811908781531210E-018
  -33.9400000000000         2.826167161551352E-018
  -33.7500000000000         2.825156520404582E-018
  -33.5600000000000         2.811773516401645E-018
  -33.3700000000000         2.792633642261518E-018
  -33.1800000000000         2.776106050399445E-018
  -32.9900000000000         2.769834080699760E-018
  -32.8000000000000         2.778461571608847E-018
  -32.6100000000000         2.802225281788204E-018
  -32.4200000000000         2.836822832868013E-018
  -32.2300000000000         2.874596600409550E-018
  -32.0400000000000         2.906693679970125E-018
  -31.8500000000000         2.925580130321178E-018
  -31.6600000000000         2.927185197554185E-018
  -31.4700000000000         2.912057486294531E-018
  -31.2800000000000         2.885199789789996E-018
  -31.0900000000000         2.854631082258048E-018
  -30.9000000000000         2.829092731981405E-018
  -30.7100000000000         2.815563686901175E-018
  -30.5200000000000         2.817303499638015E-018
  -30.3300000000000         2.832986900101148E-018
  -30.1400000000000         2.857175033170660E-018
  -29.9500000000000         2.881980023288123E-018
  -29.7600000000000         2.899434675959175E-018
  -29.5700000000000         2.903877444676661E-018
  -29.3800000000000         2.893661006167639E-018
  -29.1900000000000         2.871689820701246E-018
  -29.0000000000000         2.844630776968135E-018
  -28.8100000000000         2.821024420987569E-018
  -28.6200000000000         2.808842211619346E-018
  -28.4300000000000         2.813195788216964E-018
  -28.2400000000000         2.834860420984416E-018
  -28.0500000000000         2.870038642369496E-018
  -27.8600000000000         2.911429799011809E-018
  -27.6700000000000         2.950292329037697E-018
  -27.4800000000000         2.978899175590196E-018
  -27.2900000000000         2.992676083584043E-018
  -27.1000000000000         2.991408400193575E-018
  -26.9100000000000         2.979175174469554E-018
  -26.7200000000000         2.963039908582927E-018
  -26.5300000000000         2.950887747063836E-018
  -26.3400000000000         2.949045135110595E-018
  -26.1500000000000         2.960379304304423E-018
  -25.9600000000000         2.983433724615112E-018
  -25.7700000000000         3.012852360432451E-018
  -25.5800000000000         3.040968117004410E-018
  -25.3900000000000         3.060089798390281E-018
  -25.2000000000000         3.064817306288798E-018
  -25.0100000000000         3.053706205513041E-018
  -24.8200000000000         3.029792068688845E-018
  -24.6300000000000         2.999816592562326E-018
  -24.4400000000000         2.972374625246989E-018
  -24.2500000000000         2.955514472266657E-018
  -24.0600000000000         2.954482867757239E-018
  -23.8700000000000         2.970265117610833E-018
  -23.6800000000000         2.999341439552838E-018
  -23.4900000000000         3.034728098471039E-018
  -23.3000000000000         3.067998889994569E-018
  -23.1100000000000         3.091698178809587E-018
  -22.9200000000000         3.101444529396226E-018
  -22.7300000000000         3.097116735162439E-018
  -22.5400000000000         3.082784187519353E-018
  -22.3500000000000         3.065411174027900E-018
  -22.1600000000000         3.052721715477145E-018
  -21.9700000000000         3.050854264523299E-018
  -21.7800000000000         3.062494852179341E-018
  -21.5900000000000         3.086036904350741E-018
  -21.4000000000000         3.116016459467912E-018
  -21.2100000000000         3.144699089997072E-018
  -21.0200000000000         3.164357303096738E-018
  -20.8300000000000         3.169572962351938E-018
  -20.6400000000000         3.158888721989259E-018
  -20.4500000000000         3.135320068842925E-018
  -20.2600000000000         3.105571337525769E-018
  -20.0700000000000         3.078177498841423E-018
  -19.8800000000000         3.061107096159651E-018
  -19.6900000000000         3.059518880714387E-018
  -19.5000000000000         3.074320473202379E-018
  -19.3100000000000         3.101945289457420E-018
  -19.1200000000000         3.135411633808453E-018
  -18.9300000000000         3.166357279361596E-018
  -18.7400000000000         3.187460765634826E-018
  -18.5500000000000         3.194548262455533E-018
  -18.3600000000000         3.187775262193276E-018
  -18.1700000000000         3.171540543402310E-018
  -17.9800000000000         3.153158462635234E-018
  -17.7900000000000         3.140677101795521E-018
  -17.6000000000000         3.140478501199780E-018
  -17.4100000000000         3.155360710945999E-018
  -17.2200000000000         3.183661305955605E-018
  -17.0300000000000         3.219679307045426E-018
  -16.8400000000000         3.255275439196411E-018
  -16.6500000000000         3.282188640997788E-018
  -16.4600000000000         3.294398217933029E-018
  -16.2700000000000         3.289846299471433E-018
  -16.0800000000000         3.271019520499580E-018
  -15.8900000000000         3.244219636139129E-018
  -15.7000000000000         3.217734100370381E-018
  -15.5100000000000         3.199438089155805E-018
  -15.3200000000000         3.194525186895613E-018
  -15.1300000000000         3.204026245756010E-018
  -14.9400000000000         3.224545823835888E-018
  -14.7500000000000         3.249290999002071E-018
  -14.5600000000000         3.270092128328972E-018
  -14.3700000000000         3.279827724145390E-018
  -14.1800000000000         3.274548210337298E-018
  -13.9900000000000         3.254679608471428E-018
  -13.8000000000000         3.224953955170443E-018
  -13.6100000000000         3.193082412374741E-018
  -13.4200000000000         3.167553143425658E-018
  -13.2300000000000         3.155192746874129E-018
  -13.0400000000000         3.159201597090194E-018
  -12.8500000000000         3.178237313421344E-018
  -12.6600000000000         3.206815747822878E-018
  -12.4700000000000         3.236914990991879E-018
  -12.2800000000000         3.260317732509977E-018
  -12.0900000000000         3.271012779249881E-018
  -11.9000000000000         3.266959372402415E-018
  -11.7100000000000         3.250702454182784E-018
  -11.5200000000000         3.228659216444945E-018
  -11.3300000000000         3.209281023534190E-018
  -11.1400000000000         3.200619934477455E-018
  -10.9500000000000         3.208002001279828E-018
  -10.7600000000000         3.232479527272613E-018
  -10.5700000000000         3.270509157280023E-018
  -10.3800000000000         3.314947219249055E-018
  -10.1900000000000         3.357071850740620E-018
  -10.0000000000000         3.389044402065727E-018
  -9.81000000000000         3.406096780604447E-018
  -9.62000000000000         3.407813144611941E-018
  -9.42999999999999         3.398139185651258E-018
  -9.23999999999999         3.384122478143378E-018
  -9.05000000000000         3.373755786564125E-018
  -8.86000000000000         3.373555859218174E-018
  -8.67000000000000         3.386587701304947E-018
  -8.48000000000000         3.411515270674521E-018
  -8.28999999999999         3.442960585374166E-018
  -8.09999999999999         3.473070992791998E-018
  -7.91000000000000         3.493840148858298E-018
  -7.72000000000000         3.499505761468019E-018
  -7.53000000000000         3.488322028851834E-018
  -7.34000000000000         3.463184557019429E-018
  -7.15000000000001         3.430917432372257E-018
  -6.95999999999999         3.400419252692534E-018
  -6.77000000000000         3.380195641994659E-018
  -6.58000000000000         3.375985067318205E-018
  -6.39000000000000         3.389160597709522E-018
  -6.20000000000000         3.416368754855341E-018
  -6.01000000000001         3.450510953839752E-018
  -5.81999999999999         3.482785402785904E-018
  -5.63000000000000         3.505200015580566E-018
  -5.44000000000000         3.512830214336728E-018
  -5.25000000000000         3.505170471266755E-018
  -5.06000000000000         3.486193221006651E-018
  -4.87000000000000         3.463105213130359E-018
  -4.67999999999999         3.444169275750532E-018
  -4.48999999999999         3.436229252052001E-018
  -4.30000000000000         3.442660018717734E-018
  -4.11000000000000         3.462339649049179E-018
  -3.92000000000000         3.489943936684141E-018
  -3.73000000000000         3.517480283572987E-018
  -3.53999999999999         3.536618095810692E-018
  -3.34999999999999         3.541140035251006E-018
  -3.16000000000000         3.528801112973640E-018
  -2.97000000000000         3.502052643972201E-018
  -2.78000000000000         3.467416510365864E-018
  -2.59000000000000         3.433686525637131E-018
  -2.40000000000001         3.409474057399946E-018
  -2.20999999999999         3.400805199685949E-018
  -2.02000000000000         3.409461457978485E-018
  -1.83000000000000         3.432540359906032E-018
  -1.64000000000000         3.463359785019272E-018
  -1.45000000000000         3.493441744814333E-018
  -1.26000000000001         3.514999241049405E-018
  -1.06999999999999         3.523204012992451E-018
 -0.879999999999995         3.517576438237405E-018
 -0.689999999999998         3.502093814620652E-018
 -0.500000000000000         3.483986101711886E-018
 -0.310000000000002         3.471570734466648E-018
 -0.120000000000005         3.471758583698977E-018
  7.000000000000739E-002    3.487959177193434E-018
  0.260000000000005         3.518997130402326E-018
  0.450000000000003         3.559358128205168E-018
  0.640000000000001         3.600697443355247E-018
  0.829999999999998         3.634178091957681E-018
   1.02000000000000         3.652964767581065E-018
   1.21000000000001         3.654153410226179E-018
   1.40000000000001         3.639578318244745E-018
   1.59000000000000         3.615262760587786E-018
   1.78000000000000         3.589671953814174E-018
   1.97000000000000         3.571274988723623E-018
   2.16000000000000         3.566122623899755E-018
   2.34999999999999         3.576141680617794E-018
   2.54000000000001         3.598636511569450E-018
   2.73000000000000         3.627136151221079E-018
   2.92000000000000         3.653335248645655E-018
   3.11000000000000         3.669561014198203E-018
   3.30000000000000         3.671048058631912E-018
   3.48999999999999         3.657360416827651E-018
   3.68000000000001         3.632547637404536E-018
   3.87000000000000         3.603988440394830E-018
   4.06000000000000         3.580256296104552E-018
   4.25000000000000         3.568626399624036E-018
   4.44000000000000         3.572949376567708E-018
   4.63000000000000         3.592512030483569E-018
   4.82000000000001         3.622219595676464E-018
   5.01000000000001         3.654050168952316E-018
   5.20000000000000         3.679362074252107E-018
   5.39000000000000         3.691386976638489E-018
   5.58000000000000         3.687187554127554E-018
   5.77000000000000         3.668513179568062E-018
   5.96000000000001         3.641305072921675E-018
   6.15000000000001         3.613992391538930E-018
   6.34000000000000         3.595070605187517E-018
   6.53000000000000         3.590661817361715E-018