  -105.000000000000        -2.985746342516163E-020
  -104.810000000000        -8.232993833064888E-020
  -104.620000000000        -1.155095131588950E-019
  -104.430000000000        -1.231568873033188E-019
  -104.240000000000        -1.061626485943553E-019
  -104.050000000000        -7.221931520352584E-020
  -103.860000000000        -3.353637098575352E-020
  -103.670000000000        -3.262829253076026E-021
  -103.480000000000         8.342399055472704E-021
  -103.290000000000        -3.120501481087461E-021
  -103.100000000000        -3.494427180848440E-020
  -102.910000000000        -7.814498537719618E-020
  -102.720000000000        -1.201231190286448E-019
  -102.530000000000        -1.483774448055922E-019
  -102.340000000000        -1.541914270060941E-019
  -102.150000000000        -1.352219561850803E-019
  -101.960000000000        -9.623832845353993E-020
  -101.770000000000        -4.779396150295411E-020
  -101.580000000000        -3.211826105543749E-021
  -101.390000000000         2.524488317449151E-020
  -101.200000000000         2.990560673351775E-020
  -101.010000000000         9.900845061471492E-021
  -100.820000000000        -2.859740444495245E-020
  -100.630000000000        -7.417301754017396E-020
  -100.440000000000        -1.134769350079511E-019
  -100.250000000000        -1.350892378632594E-019
  -100.060000000000        -1.328123828110827E-019
  -99.8700000000000        -1.074442118174048E-019
  -99.6800000000000        -6.652131460398840E-020
  -99.4900000000000        -2.211016057343757E-020
  -99.3000000000000         1.271319293977236E-020
  -99.1100000000000         2.767486551881092E-020
  -98.9200000000000         1.830061176423760E-020
  -98.7300000000000        -1.277275321035721E-020
  -98.5400000000000        -5.655508190468074E-020
  -98.3500000000000        -1.003105812554753E-019
  -98.1600000000000        -1.312565259477280E-019
  -97.9700000000000        -1.402759684584301E-019
  -97.7800000000000        -1.245644503452257E-019
  -97.5900000000000        -8.844270871636633E-020
  -97.4000000000000        -4.210147738289518E-020
  -97.2100000000000         1.355712453749505E-021
  -97.0200000000000         2.971354643314086E-020
  -96.8300000000000         3.518753231071505E-020
  -96.6400000000000         1.667993906954777E-020
  -96.4500000000000        -1.990750623895464E-020
  -96.2600000000000        -6.339710918349398E-020
  -96.0700000000000        -1.005949924001512E-019
  -95.8800000000000        -1.201385817076319E-019
  -95.6900000000000        -1.158111612869100E-019
  -95.5000000000000        -8.835862503821989E-020
  -95.3100000000000        -4.528082431679074E-020
  -95.1200000000000         1.340613147951630E-021
  -94.9300000000000         3.834683617124021E-020
  -94.7400000000000         5.532255486900007E-020
  -94.5500000000000         4.762564597596372E-020
  -94.3600000000000         1.774596189373529E-020
  -94.1700000000000        -2.540435910079209E-020
  -93.9800000000000        -6.906812848180063E-020
  -93.7900000000000        -1.003435697514074E-019
  -93.6000000000000        -1.099339678931576E-019
  -93.4100000000000        -9.485483694227837E-020
  -93.2200000000000        -5.930905219215788E-020
  -93.0300000000000        -1.347450156653274E-020
  -92.8400000000000         2.944276158598688E-020
  -92.6500000000000         5.703340432777306E-020
  -92.4600000000000         6.127904669876069E-020
  -92.2700000000000         4.087690547496455E-020
  -92.0800000000000         1.624591144260321E-021
  -91.8900000000000        -4.524517809055309E-020
  -91.7000000000000        -8.629907512750463E-020
  -91.5100000000000        -1.097723502805683E-019
  -91.3200000000000        -1.089527740674721E-019
  -91.1300000000000        -8.409805360670831E-020
  -90.9400000000000        -4.233054532353088E-020
  -90.7500000000000         4.458074147620488E-021
  -90.5600000000000         4.307957672917573E-020
  -90.3700000000000         6.288637935718942E-020
  -90.1800000000000         5.885636194407702E-020
  -89.9900000000000         3.303024968059403E-020
  -89.8000000000000        -6.112783449958071E-021
  -89.6100000000000        -4.615685141144289E-020
  -89.4200000000000        -7.440035372120833E-020
  -89.2300000000000        -8.159559825378097E-020
  -89.0400000000000        -6.469018294098939E-020
  -88.8500000000000        -2.777139566697354E-020
  -88.6600000000000         1.906469411797525E-020
  -88.4700000000000         6.259504037082557E-020
  -88.2800000000000         9.026838044359109E-020
  -88.0900000000000         9.382039700952405E-020
  -87.9000000000000         7.165948415717200E-020
  -87.7100000000000         2.933622310120585E-020
  -87.5200000000000        -2.203431570850979E-020
  -87.3300000000000        -6.893808692753137E-020
  -87.1400000000000        -9.930115386424625E-020
  -86.9500000000000        -1.058970221201934E-019
  -86.7600000000000        -8.834295305873563E-020
  -86.5700000000000        -5.311351816743951E-020
  -86.3800000000000        -1.157310051616413E-020
  -86.1900000000000         2.339630321611427E-020
  -86.0000000000000         4.118729423341810E-020
  -85.8100000000000         3.657325449098744E-020
  -85.6200000000000         1.122451705125499E-020
  -85.4300000000000        -2.680365741737512E-020
  -85.2400000000000        -6.545751263354536E-020
  -85.0500000000000        -9.224723388663183E-020
  -84.8600000000000        -9.794744079833951E-020
  -84.6700000000000        -7.935971215625908E-020
  -84.4800000000000        -4.033321335807163E-020
  -84.2900000000000         9.257799145879788E-021
  -84.1000000000000         5.629137565259794E-020
  -83.9100000000000         8.813362014599623E-020
  -83.7200000000000         9.625503860925944E-020
  -83.5300000000000         7.867908480160875E-020
  -83.3400000000000         4.054939860322813E-020
  -83.1500000000000        -7.352496590267263E-021
  -82.9600000000000        -5.171103562714776E-020
  -82.7700000000000        -8.050260287065602E-020
  -82.5800000000000        -8.643590408533693E-020
  -82.3900000000000        -6.901267488087429E-020
  -82.2000000000000        -3.461511769928340E-020
  -82.0100000000000         5.403164482431875E-021
  -81.8200000000000         3.806913502909738E-020
  -81.6300000000000         5.261316469976486E-020
  -81.4400000000000         4.365169998701481E-020
  -81.2500000000000         1.280141060644979E-020
  -81.0600000000000        -3.174965924378289E-020
  -80.8700000000000        -7.759404573729422E-020
  -80.6800000000000        -1.116985413712434E-019
  -80.4900000000000        -1.241944792928442E-019
  -80.3000000000000        -1.112607794714347E-019
  -80.1100000000000        -7.625951021749352E-020
  -79.9200000000000        -2.879200313501966E-020
  -79.7300000000000         1.805239111827810E-020
  -79.5400000000000         5.145855196677304E-020
  -79.3500000000000         6.256905336256819E-020
  -79.1600000000000         4.902054081308240E-020
  -78.9700000000000         1.559541583685057E-020
  -78.7800000000000        -2.720276010934062E-020
  -78.5900000000000        -6.623719689517825E-020
  -78.4000000000000        -8.958945339354634E-020
  -78.2100000000000        -9.005039922727166E-020
  -78.0200000000000        -6.723161333928127E-020
  -77.8300000000000        -2.768234534973898E-020
  -77.6400000000000         1.702032767856488E-020
  -77.4500000000000         5.365107297672210E-020
  -77.2600000000000         7.120287113627968E-020
  -77.0700000000000         6.411723678411840E-020
  -76.8800000000000         3.393835938232221E-020
  -76.6900000000000        -1.109333707021584E-020
  -76.5000000000000        -5.839573550367235E-020
  -76.3100000000000        -9.466814719839685E-020
  -76.1200000000000        -1.097317804008974E-019
  -75.9300000000000        -9.947054592423091E-020
  -75.7400000000000        -6.701674519129857E-020
  -75.5500000000000        -2.183896605596647E-020
  -75.3600000000000         2.299808891142892E-020
  -75.1700000000000         5.460122648150148E-020
  -74.9800000000000         6.394932153042383E-020
  -74.7900000000000         4.845871228424913E-020
  -74.6000000000000         1.268024510864827E-020
  -74.4100000000000        -3.306221723897202E-020
  -74.2200000000000        -7.568828879072830E-020
  -74.0300000000000        -1.031538794536125E-019
  -73.8400000000000        -1.079202122958307E-019
  -73.6500000000000        -8.909505815179025E-020
  -73.4600000000000        -5.262954341364846E-020
  -73.2700000000000        -9.521067653405669E-021
  -73.0800000000000         2.744559722381589E-020
  -72.8900000000000         4.746205039258438E-020
  -72.7000000000000         4.486433335613421E-020
  -72.5100000000000         2.078331664809506E-020
  -72.3200000000000        -1.719871368308367E-020
  -72.1300000000000        -5.727998591722326E-020
  -71.9400000000000        -8.690663808275537E-020
  -71.7500000000000        -9.646590675309727E-020
  -71.5600000000000        -8.213165936933327E-020
  -71.3700000000000        -4.703552661955860E-020
  -71.1800000000000        -4.226880288743102E-022
  -70.9900000000000         4.496430213894686E-020
  -70.8000000000000         7.651719494582745E-020
  -70.6100000000000         8.536049409857085E-020
  -70.4200000000000         6.888086124972866E-020
  -70.2300000000000         3.146389634412587E-020
  -70.0400000000000        -1.676695008292184E-020
  -69.8500000000000        -6.284106119253015E-020
  -69.6600000000000        -9.462784967437408E-020
  -69.4700000000000        -1.042620877535912E-019
  -69.2800000000000        -9.032588838430192E-020
  -69.0900000000000        -5.816319043261122E-020
  -68.9000000000000        -1.824002084972584E-020
  -68.7100000000000         1.697122219780415E-020
  -68.5200000000000         3.667584677518409E-020
  -68.3300000000000         3.493466493700786E-020
  -68.1400000000000         1.240759136081172E-020
  -67.9500000000000        -2.384587443880164E-020
  -67.7600000000000        -6.245002060491029E-020
  -67.5700000000000        -9.107119871543001E-020
  -67.3800000000000        -1.000719612590699E-019
  -67.1900000000000        -8.539771167004708E-020
  -67.0000000000000        -4.985539917451003E-020
  -66.8100000000000        -2.407361577872771E-021
  -66.6200000000000         4.432526880925734E-020
  -66.4300000000000         7.763816405882846E-020
  -66.2400000000000         8.837174093186440E-020
  -66.0500000000000         7.354357364515941E-020
  -65.8600000000000         3.721951308759027E-020
  -65.6700000000000        -1.063582636086535E-020
  -65.4800000000000        -5.700391041954411E-020
  -65.2900000000000        -8.953480021122203E-020
  -65.1000000000000        -1.000734013608820E-019
  -64.9100000000000        -8.696979220319947E-020
  -64.7200000000000        -5.550316245624697E-020
  -64.5300000000000        -1.629282264641629E-020
  -64.3400000000000         1.784749272486598E-020
  -64.1500000000000         3.570211130102102E-020
  -63.9600000000000         3.099037725558630E-020
  -63.7700000000000         4.272640636147580E-021
  -63.5800000000000        -3.713809236756783E-020
  -63.3900000000000        -8.124290078721020E-020
  -63.2000000000000        -1.148083530597641E-019
  -63.0100000000000        -1.272030058087228E-019
  -62.8200000000000        -1.135057865852379E-019
  -62.6300000000000        -7.598449297736000E-020
  -62.4400000000000        -2.351525692388889E-020
  -62.2500000000000         3.089190128377404E-020
  -62.0600000000000         7.375226365986103E-020
  -61.8700000000000         9.490164742565145E-020
  -61.6800000000000         9.033880950705111E-020
  -61.4900000000000         6.329685062013773E-020
  -61.3000000000000         2.323238025608597E-020
  -61.1100000000000        -1.697801743414827E-020
  -60.9200000000000        -4.482261686566994E-020
  -60.7300000000000        -5.182018086189117E-020
  -60.5400000000000        -3.599733146028104E-020
  -60.3500000000000        -2.453873484118259E-021
  -60.1600000000000         3.814917166363721E-020
  -59.9700000000000         7.273669045991925E-020
  -59.7800000000000         8.968223379507244E-020
  -59.5900000000000         8.225903468694517E-020
  -59.4000000000000         5.067303911685665E-020
  -59.2100000000000         2.084884474866755E-021
  -59.0200000000000        -5.138806824823908E-020
  -58.8300000000000        -9.611285699625066E-020
  -58.6400000000000        -1.208303500250475E-019
  -58.4500000000000        -1.198683598528317E-019
  -58.2600000000000        -9.474991860294110E-020
  -58.0700000000000        -5.373337501916446E-020
  -57.8800000000000        -9.419749511954491E-021
  -57.6900000000000         2.487930598984219E-020
  -57.5000000000000         3.896395054512271E-020
  -57.3100000000000         2.865770941327404E-020
  -57.1200000000000        -3.028898357972109E-021
  -56.9300000000000        -4.681526105250843E-020
  -56.7400000000000        -8.987985907413432E-020
  -56.5500000000000        -1.196080806599924E-019
  -56.3600000000000        -1.272674652076626E-019
  -56.1700000000000        -1.105384738974084E-019
  -55.9800000000000        -7.416262892332010E-020
  -55.7900000000000        -2.852202980004186E-020
  -55.6000000000000         1.342807283271281E-020
  -55.4100000000000         3.996958721956309E-020
  -55.2200000000000         4.405650352625826E-020
  -55.0300000000000         2.537139805872296E-020
  -54.8400000000000        -9.592312052472693E-021
  -54.6500000000000        -4.944148027854972E-020
  -54.4600000000000        -8.122924820954963E-020
  -54.2700000000000        -9.426400258413084E-020
  -54.0800000000000        -8.327568643807538E-020
  -53.8900000000000        -5.001723020481929E-020
  -53.7000000000000        -2.828429469919355E-021
  -53.5100000000000         4.572090221211372E-020
  -53.3200000000000         8.243132509551552E-020
  -53.1300000000000         9.727382813331160E-020
  -52.9400000000000         8.628296594074184E-020
  -52.7500000000000         5.269876200331433E-020
  -52.5600000000000         6.024006869142236E-021
  -52.3700000000000        -4.072745435053981E-020
  -52.1800000000000        -7.478810778269543E-020
  -51.9900000000000        -8.730435330795419E-020
  -51.8000000000000        -7.584694794519056E-020
  -51.6100000000000        -4.503639476663356E-020
  -51.4200000000000        -5.106487486568523E-021
  -51.2300000000000         3.116882552878181E-020
  -51.0400000000000         5.228259376370272E-020
  -50.8500000000000         5.141939429012981E-020
  -50.6600000000000         2.849294181202471E-020
  -50.4700000000000        -9.801130486229406E-021
  -50.2800000000000        -5.193380160923333E-020
  -50.0900000000000        -8.492357418611486E-020
  -49.9000000000000        -9.816307448558797E-020
  -49.7100000000000        -8.657529506355872E-020
  -49.5200000000000        -5.217789546164100E-020
  -49.3300000000000        -3.594490308873454E-021
  -49.1400000000000         4.635403264274706E-020
  -48.9500000000000         8.428724642716796E-020
  -48.7600000000000         1.000804070792497E-019
  -48.5700000000000         8.974922347739552E-020
  -48.3800000000000         5.656418754053793E-020
  -48.1900000000000         1.007041434309128E-020
  -48.0000000000000        -3.669910316508228E-020
  -47.8100000000000        -7.100229230070632E-020
  -47.6200000000000        -8.405797430043067E-020
  -47.4300000000000        -7.354238788224702E-020
  -47.2400000000000        -4.419325508649725E-020
  -47.0500000000000        -6.354348157855584E-021
  -46.8600000000000         2.710949181421553E-020
  -46.6700000000000         4.462716268195833E-020
  -46.4800000000000         3.935758251763205E-020
  -46.2900000000000         1.125003157850806E-020
  -46.1000000000000        -3.287077591862968E-020
  -45.9100000000000        -8.122275945555635E-020
  -45.7200000000000        -1.204345719852565E-019
  -45.5300000000000        -1.393887067843615E-019
  -45.3400000000000        -1.324261059543643E-019
  -45.1500000000000        -1.009852614321879E-019
  -44.9600000000000        -5.320477545562451E-020
  -44.7700000000000        -1.608571979672498E-021
  -44.5800000000000         4.045495517648229E-020
  -44.3900000000000         6.259263635445057E-020
  -44.2000000000000         6.027798675106736E-020
  -44.0100000000000         3.605955387526325E-020
  -43.8200000000000        -1.276310398072016E-021
  -43.6300000000000        -3.933890089897809E-020
  -43.4400000000000        -6.579355897479259E-020
  -43.2500000000000        -7.198381007713073E-020
  -43.0600000000000        -5.546477463914921E-020
  -42.8700000000000        -2.071739003355783E-020
  -42.6800000000000         2.215698211140962E-020
  -42.4900000000000         6.037727114206893E-020
  -42.3000000000000         8.220428262250923E-020
  -42.1100000000000         8.036734222613868E-020
  -41.9200000000000         5.420886691034860E-020
  -41.7300000000000         9.930404322472560E-021
  -41.5400000000000        -4.113106028341878E-020
  -41.3500000000000        -8.570298115752539E-020
  -41.1600000000000        -1.123353489007353E-019
  -40.9700000000000        -1.146363353839307E-019
  -40.7800000000000        -9.305284508980544E-020
  -40.5900000000000        -5.468263472584634E-020
  -40.4000000000000        -1.117533151604462E-020
  -40.2100000000000         2.466542423877513E-020
  -40.0200000000000         4.259123389065274E-020
  -39.8300000000000         3.785596817209779E-020
  -39.6400000000000         1.255217269808421E-020
  -39.4500000000000        -2.504344821483907E-020
  -39.2600000000000        -6.292088727689701E-020
  -39.0700000000000        -8.887199651685282E-020
  -38.8800000000000        -9.408535677093549E-020
  -38.6900000000000        -7.575848633174143E-020
  -38.5000000000000        -3.796814783925145E-020
  -38.3100000000000         9.457134761845917E-021
  -38.1200000000000         5.373963428299782E-020
  -37.9300000000000         8.282106827026760E-020
  -37.7400000000000         8.883576231358654E-020
  -37.5500000000000         7.038152651437199E-020
  -37.3600000000000         3.292812893480990E-020
  -37.1700000000000        -1.275818695967889E-020
  -36.9800000000000        -5.372104741874693E-020
  -36.7900000000000        -7.855373519160370E-020
  -36.6000000000000        -8.068950161594608E-020
  -36.4100000000000        -6.028666044960381E-020
  -36.2200000000000        -2.415725448371333E-020
  -36.0300000000000         1.624462333589210E-020
  -35.8400000000000         4.819210763773078E-020
  -35.6500000000000         6.143035175179714E-020
  -35.4600000000000         5.120261666767249E-020
  -35.2700000000000         1.967304788920473E-020
  -35.0800000000000        -2.466962462236658E-020
  -34.8900000000000        -6.945465325933852E-020
  -34.7000000000000        -1.020096647675360E-019
  -34.5100000000000        -1.130416693073365E-019
  -34.3200000000000        -9.935165753956860E-020
  -34.1300000000000        -6.479212326203464E-020
  -33.9400000000000        -1.918159502901465E-020
  -33.7500000000000         2.451908881333585E-020
  -33.5600000000000         5.395688023177566E-020
  -33.3700000000000         6.097584635560357E-020
  -33.1800000000000         4.399818851972678E-020
  -32.9900000000000         8.495848013971973E-021
  -32.8000000000000        -3.459362663440577E-020
  -32.6100000000000        -7.205190085052636E-020
  -32.4200000000000        -9.224018641593931E-020
  -32.2300000000000        -8.851058754949136E-020
  -32.0400000000000        -6.117380426071142E-020
  -31.8500000000000        -1.744816868783108E-020
  -31.6600000000000         3.059902736214961E-020
  -31.4700000000000         6.952468467391730E-020
  -31.2800000000000         8.839320648686432E-020
  -31.0900000000000         8.194384678282214E-020
  -30.9000000000000         5.211997202930367E-020
  -30.7100000000000         7.511575187609230E-021
  -30.5200000000000        -3.913073972534461E-020
  -30.3300000000000        -7.458976338343626E-020
  -30.1400000000000        -8.901112553369412E-020
  -29.9500000000000        -7.875626669803176E-020
  -29.7600000000000        -4.745010166813790E-020
  -29.5700000000000        -4.917100788148410E-021
  -29.3800000000000         3.568907221630176E-020
  -29.1900000000000         6.173266580262167E-020
  -29.0000000000000         6.480353035825573E-020
  -28.8100000000000         4.320491619651329E-020
  -28.6200000000000         2.491182707978712E-021
  -28.4300000000000        -4.610885200492897E-020
  -28.2400000000000        -8.892962861821207E-020
  -28.0500000000000        -1.138266842486224E-019
  -27.8600000000000        -1.137005321965510E-019
  -27.6700000000000        -8.855810353104473E-020
  -27.4800000000000        -4.551145732683115E-020
  -27.2900000000000         3.282865706721672E-021
  -27.1000000000000         4.414091529671068E-020
  -26.9100000000000         6.580202677301288E-020
  -26.7200000000000         6.266884722144435E-020
  -26.5300000000000         3.640030967170130E-020
  -26.3400000000000        -4.602682865021263E-021
  -26.1500000000000        -4.767029727616014E-020
  -25.9600000000000        -7.957933457205739E-020
  -25.7700000000000        -9.043264894198826E-020
  -25.5800000000000        -7.657328648103317E-020
  -25.3900000000000        -4.168294354478612E-020
  -25.2000000000000         4.257663438009395E-021
  -25.0100000000000         4.784645020978610E-020
  -24.8200000000000         7.614105940322550E-020
  -24.6300000000000         8.041734507337400E-020
  -24.4400000000000         5.871464783306972E-020
  -24.2500000000000         1.642968638011490E-020
  -24.0600000000000        -3.521169517434590E-020
  -23.8700000000000        -8.235905091269515E-020
  -23.6800000000000        -1.124865897331931E-019
  -23.4900000000000        -1.179419318762397E-019
  -23.3000000000000        -9.806922743662706E-020
  -23.1100000000000        -5.930048731349473E-020
  -22.9200000000000        -1.320367270396749E-020
  -22.7300000000000         2.692952665254246E-020
  -22.5400000000000         4.995414547694484E-020
  -22.3500000000000         5.007519491122298E-020
  -22.1600000000000         2.846233610280981E-020
  -21.9700000000000        -7.178224323974087E-021
  -21.7800000000000        -4.493686350426791E-020
  -21.5900000000000        -7.225372269281517E-020
  -21.4000000000000        -7.965747731000798E-020
  -21.2100000000000        -6.360155110248935E-020
  -21.0200000000000        -2.756970165954469E-020
  -20.8300000000000         1.887454146392399E-020
  -20.6400000000000         6.282009139907940E-020
  -20.4500000000000         9.172683813752363E-020
  -20.2600000000000         9.704747152793524E-020
  -20.0700000000000         7.670002222452819E-020
  -19.8800000000000         3.567765160769611E-020
  -19.6900000000000        -1.537209261347919E-020
  -19.5000000000000        -6.317700745045663E-020
  -19.3100000000000        -9.559689766074034E-020
  -19.1200000000000        -1.050242119503730E-019
  -18.9300000000000        -9.045799511597046E-020
  -18.7400000000000        -5.766935626289271E-020
  -18.5500000000000        -1.742749151493287E-020
  -18.3600000000000         1.768959878928419E-020
  -18.1700000000000         3.697258818631228E-020
  -17.9800000000000         3.468275454258183E-020
  -17.7900000000000         1.168488180520576E-020
  -17.6000000000000        -2.485371648807101E-020
  -17.4100000000000        -6.360168748393134E-020
  -17.2200000000000        -9.241293420094064E-020
  -17.0300000000000        -1.019119042429904E-019
  -16.8400000000000        -8.827243751157593E-020
  -16.6500000000000        -5.438028854487247E-020
  -16.4600000000000        -9.036770392570519E-021
  -16.2700000000000         3.557037581375606E-020
  -16.0800000000000         6.739665675771655E-020
  -15.8900000000000         7.804331742742949E-020
  -15.7000000000000         6.520929646994774E-020
  -15.5100000000000         3.337451902898155E-020
  -15.3200000000000        -7.487725159409783E-021
  -15.1300000000000        -4.479760718075592E-020
  -14.9400000000000        -6.701844185010242E-020
  -14.7500000000000        -6.701199748592506E-020
  -14.5600000000000        -4.412853619763919E-020
  -14.3700000000000        -4.427085180223688E-021
  -14.1800000000000         4.104073112358399E-020
  -13.9900000000000         7.939476714278071E-020
  -13.8000000000000         9.963219826359210E-020
  -13.6100000000000         9.580663523827640E-020
  -13.4200000000000         6.875527708446168E-020
  -13.2300000000000         2.586267024770260E-020
  -13.0400000000000        -2.108154287599282E-020
  -12.8500000000000        -5.931433643253666E-020
  -12.6600000000000        -7.882057360976455E-020
  -12.4700000000000        -7.525349503973006E-020
  -12.2800000000000        -5.119564252825189E-020
  -12.0900000000000        -1.538589380171755E-020
  -11.9000000000000         1.986742154316872E-020
  -11.7100000000000         4.233570270102188E-020
  -11.5200000000000         4.351558010110651E-020
  -11.3300000000000         2.120153149934411E-020
  -11.1400000000000        -1.977323278116125E-020
  -10.9500000000000        -6.885378070198177E-020
  -10.7600000000000        -1.127649133803617E-019
  -10.5700000000000        -1.393303161733276E-019
  -10.3800000000000        -1.409997286855812E-019
  -10.1900000000000        -1.170553227508344E-019
  -10.0000000000000        -7.385089248796437E-020
  -9.81000000000000        -2.300902113002088E-020
  -9.62000000000000         2.190501976372727E-020
  -9.42999999999999         4.927064532639115E-020
  -9.23999999999999         5.273430345220026E-020
  -9.05000000000000         3.300220588608131E-020
  -8.86000000000000        -2.420664652955195E-021
  -8.67000000000000        -4.147524282846229E-020
  -8.48000000000000        -7.112722959199999E-020
  -8.28999999999999        -8.123496278567381E-020
  -8.09999999999999        -6.757137278199717E-020
  -7.91000000000000        -3.311210145797942E-020
  -7.72000000000000         1.278830579663821E-020
  -7.53000000000000         5.709087497031607E-020
  -7.34000000000000         8.685035194166690E-020
  -7.15000000000001         9.297751897462856E-020
  -6.95999999999999         7.289639430378030E-020
  -6.77000000000000         3.133252070298329E-020
  -6.58000000000000        -2.098963624982556E-020
  -6.39000000000000        -7.036118007445237E-020
  -6.20000000000000        -1.039469463854422E-019
  -6.01000000000001        -1.133806037408679E-019
  -5.81999999999999        -9.706920786878188E-020
  -5.63000000000000        -6.055246360420109E-020
  -5.44000000000000        -1.482197437993234E-020
  -5.25000000000000         2.690559024362860E-020
  -5.06000000000000         5.302100639225796E-020
  -4.87000000000000         5.684929654619978E-020
  -4.67999999999999         3.851383906425353E-020
  -4.48999999999999         4.810812034231345E-021
  -4.30000000000000        -3.285570118347459E-020
  -4.11000000000000        -6.186903484132632E-020
  -3.92000000000000        -7.213632694200235E-020
  -3.73000000000000        -5.908320780620424E-020
  -3.53999999999999        -2.504303557182482E-020
  -3.34999999999999         2.135665222333159E-020
  -3.16000000000000         6.762876443650324E-020
  -2.97000000000000         1.009764916742298E-019
  -2.78000000000000         1.119358085374464E-019
  -2.59000000000000         9.706860268991604E-020
  -2.40000000000001         5.994209019050617E-020
  -2.20999999999999         1.012169230948561E-020
  -2.02000000000000        -3.952954194482491E-020
  -1.83000000000000        -7.647138321938295E-020
  -1.64000000000000        -9.199484273169966E-020
  -1.45000000000000        -8.362218833978219E-020
  -1.26000000000001        -5.571861361295395E-020
  -1.06999999999999        -1.814455992381820E-020
 -0.879999999999995         1.666118216322799E-020
 -0.689999999999998         3.732407820412289E-020
 -0.500000000000000         3.684772225746367E-020
 -0.310000000000002         1.464052974993683E-020
 -0.120000000000005        -2.332769084970520E-020
  7.000000000000739E-002   -6.627728463824116E-020
  0.260000000000005        -1.017627833730498E-019
  0.450000000000003        -1.192945737387825E-019
  0.640000000000001        -1.133917424454346E-019
  0.829999999999998        -8.518709534789326E-020
   1.02000000000000        -4.212105205226689E-020
   1.21000000000001         4.190475784902634E-021
   1.40000000000001         4.130214918551843E-020
   1.59000000000000         5.953398833915859E-020
   1.78000000000000         5.477319490694245E-020
   1.97000000000000         2.966432046592962E-020
   2.16000000000000        -7.168899469491612E-021
   2.34999999999999        -4.365459748114731E-020
   2.54000000000001        -6.782575636350293E-020
   2.73000000000000        -7.136012899948244E-020
   2.92000000000000        -5.207072105427062E-020
   3.11000000000000        -1.461221450312799E-020
   3.30000000000000         3.081343832602893E-020
   3.48999999999999         7.138541135233712E-020
   3.68000000000001         9.538133655399712E-020
   3.87000000000000         9.560471994149356E-020
   4.06000000000000         7.152089627648772E-020
   4.25000000000000         2.946864748720058E-020
   4.44000000000000        -1.912700168185652E-020
   4.63000000000000        -6.102943187087415E-020
   4.82000000000001        -8.500366519728558E-020
   5.01000000000001        -8.505983645112275E-020
   5.20000000000000        -6.218097376740428E-020
   5.39000000000000        -2.402598739427942E-020
   5.58000000000000         1.731399659523064E-020
   5.77000000000000         4.885985360014262E-020
   5.96000000000001         6.056069615685705E-020
   6.15000000000001         4.826814325689430E-020
   6.34000000000000         1.499264224992186E-020
   6.53000000000000        -2.993698872729805E-020