  -105.000000000000        -5.155550351839319E-019
  -104.810000000000        -3.904981082732858E-019
  -104.620000000000        -1.824205085185204E-019
  -104.430000000000         5.037172383280023E-020
  -104.240000000000         2.430713584409935E-019
  -104.050000000000         3.430352738578015E-019
  -103.860000000000         3.249111989116708E-019
  -103.670000000000         1.978283511970958E-019
  -103.480000000000         2.561529156287091E-021
  -103.290000000000        -2.004938235954541E-019
  -103.100000000000        -3.490138631480930E-019
  -102.910000000000        -3.969419639156556E-019
  -102.720000000000        -3.279033099805855E-019
  -102.530000000000        -1.599697189251555E-019
  -102.340000000000         5.957913584313871E-020
  -102.150000000000         2.679704540703476E-019
  -101.960000000000         4.051657129257390E-019
  -101.770000000000         4.313309140492580E-019
  -101.580000000000         3.384808727765978E-019
  -101.390000000000         1.528971726944294E-019
  -101.200000000000        -7.241015279536543E-020
  -101.010000000000        -2.730236161288934E-019
  -100.820000000000        -3.917656088418816E-019
  -100.630000000000        -3.952375832352413E-019
  -100.440000000000        -2.834390066744815E-019
  -100.250000000000        -8.968600369065049E-020
  -100.060000000000         1.291206394112944E-019
  -99.8700000000000         3.090340713996858E-019
  -99.6800000000000         3.976083959136272E-019
  -99.4900000000000         3.690924788513803E-019
  -99.3000000000000         2.318833142813485E-019
  -99.1100000000000         2.607789454111565E-020
  -98.9200000000000        -1.881867405200558E-019
  -98.7300000000000        -3.482404705430401E-019
  -98.5400000000000        -4.071428267855302E-019
  -98.3500000000000        -3.473633638775480E-019
  -98.1600000000000        -1.858764653146057E-019
  -97.9700000000000         3.080638473384874E-020
  -97.7800000000000         2.401908745343639E-019
  -97.5900000000000         3.819690228692106E-019
  -97.4000000000000         4.155170035575028E-019
  -97.2100000000000         3.316583203047630E-019
  -97.0200000000000         1.552983602754297E-019
  -96.8300000000000        -6.183283522222542E-020
  -96.6400000000000        -2.562373532107976E-019
  -96.4500000000000        -3.711411044626299E-019
  -96.2600000000000        -3.730365913650262E-019
  -96.0700000000000        -2.614481956917889E-019
  -95.8800000000000        -6.906715776791854E-020
  -95.6900000000000         1.477858323818851E-019
  -95.5000000000000         3.255913165741921E-019
  -95.3100000000000         4.121641997701357E-019
  -95.1200000000000         3.818843818129028E-019
  -94.9300000000000         2.431860795480852E-019
  -94.7400000000000         3.612717705057713E-020
  -94.5500000000000        -1.792525721454330E-019
  -94.3600000000000        -3.404011196033334E-019
  -94.1700000000000        -4.004758596812947E-019
  -93.9800000000000        -3.420158380702474E-019
  -93.7900000000000        -1.820691278483614E-019
  -93.6000000000000         3.274531258640118E-020
  -93.4100000000000         2.398175739630812E-019
  -93.2200000000000         3.787912100729819E-019
  -93.0300000000000         4.091161339027543E-019
  -92.8400000000000         3.217854060330064E-019
  -92.6500000000000         1.418817116310692E-019
  -92.4600000000000        -7.874164011593343E-020
  -92.2700000000000        -2.764847495359215E-019
  -92.0800000000000        -3.943873040690522E-019
  -91.8900000000000        -3.985864086258446E-019
  -91.7000000000000        -2.880995052923535E-019
  -91.5100000000000        -9.508690288753408E-020
  -91.3200000000000         1.245075856350784E-019
  -91.1300000000000         3.072329678096104E-019
  -90.9400000000000         4.005846799168473E-019
  -90.7500000000000         3.782531878956610E-019
  -90.5600000000000         2.477259134072396E-019
  -90.3700000000000         4.803554610376761E-020
  -90.1800000000000        -1.616770517212839E-019
  -89.9900000000000        -3.194316091287570E-019
  -89.8000000000000        -3.784537764218119E-019
  -89.6100000000000        -3.207432870632401E-019
  -89.4200000000000        -1.622620918197072E-019
  -89.2300000000000         5.169955265860483E-020
  -89.0400000000000         2.595923670765411E-019
  -88.8500000000000         4.013270313773683E-019
  -88.6600000000000         4.355423094560149E-019
  -88.4700000000000         3.514569993842009E-019
  -88.2800000000000         1.719026420979701E-019
  -88.0900000000000        -5.330901551544996E-020
  -87.9000000000000        -2.617233380671043E-019
  -87.7100000000000        -3.961119936417103E-019
  -87.5200000000000        -4.207367992786117E-019
  -87.3300000000000        -3.313915691257369E-019
  -87.1400000000000        -1.563994702417051E-019
  -86.9500000000000         5.170572070063224E-020
  -86.7600000000000         2.314463370502638E-019
  -86.5700000000000         3.302330518653538E-019
  -86.3800000000000         3.196005025466368E-019
  -86.1900000000000         2.034187146723287E-019
  -86.0000000000000         1.670243177956316E-020
  -85.8100000000000        -1.846142812292321E-019
  -85.6200000000000        -3.399507172251829E-019
  -85.4300000000000        -4.016795439582257E-019
  -85.2400000000000        -3.489753309218460E-019
  -85.0500000000000        -1.939323985345757E-019
  -84.8600000000000         2.179154650819151E-020
  -84.6700000000000         2.388188845999268E-019
  -84.4800000000000         3.969655302746635E-019
  -84.2900000000000         4.523866929823823E-019
  -84.1000000000000         3.900857483235306E-019
  -83.9100000000000         2.282323669981551E-019
  -83.7200000000000         1.302259572380078E-020
  -83.5300000000000        -1.945146555695926E-019
  -83.3400000000000        -3.360196350738422E-019
  -83.1500000000000        -3.725647706640031E-019
  -82.9600000000000        -2.958111690085012E-019
  -82.7700000000000        -1.303222876935620E-019
  -82.5800000000000         7.362488255607113E-020
  -82.3900000000000         2.546497896986680E-019
  -82.2000000000000         3.581016714456657E-019
  -82.0100000000000         3.519979513874829E-019
  -81.8200000000000         2.364583138186910E-019
  -81.6300000000000         4.384175474102722E-020
  -81.4400000000000        -1.705403487322720E-019
  -81.2500000000000        -3.444915753489660E-019
  -81.0600000000000        -4.271072050815265E-019
  -80.8700000000000        -3.937428710910675E-019
  -80.6800000000000        -2.533759298421162E-019
  -80.4900000000000        -4.615815645694666E-020
  -80.3000000000000         1.681869649264484E-019
  -80.1100000000000         3.277683037777793E-019
  -79.9200000000000         3.866405231132324E-019
  -79.7300000000000         3.283053081385499E-019
  -79.5400000000000         1.706305589437329E-019
  -79.3500000000000        -3.926744316057075E-020
  -79.1600000000000        -2.387095851854657E-019
  -78.9700000000000        -3.677534319967594E-019
  -78.7800000000000        -3.868053966614959E-019
  -78.5900000000000        -2.884014314291497E-019
  -78.4000000000000        -9.964945838821496E-020
  -78.2100000000000         1.254719520129800E-019
  -78.0200000000000         3.217634083761278E-019
  -77.8300000000000         4.318343692882205E-019
  -77.6400000000000         4.229415803806056E-019
  -77.4500000000000         2.967068438248907E-019
  -77.2600000000000         8.884116958096971E-020
  -77.0700000000000        -1.411130448926899E-019
  -76.8800000000000        -3.270911602430808E-019
  -76.6900000000000        -4.158232783414367E-019
  -76.5000000000000        -3.824627249545915E-019
  -76.3100000000000        -2.378742186441616E-019
  -76.1200000000000        -2.539283714643786E-020
  -75.9300000000000         1.919868772287331E-019
  -75.7400000000000         3.501720421818511E-019
  -75.5500000000000         4.027740652741360E-019
  -75.3600000000000         3.346155191389846E-019
  -75.1700000000000         1.660100600716749E-019
  -74.9800000000000        -5.336644520558550E-020
  -74.7900000000000        -2.591276957660051E-019
  -74.6000000000000        -3.910099673747244E-019
  -74.4100000000000        -4.104118853300330E-019
  -74.2200000000000        -3.116105324095021E-019
  -74.0300000000000        -1.234475970802799E-019
  -73.8400000000000         9.902048075466234E-020
  -73.6500000000000         2.905414486593017E-019
  -73.4600000000000         3.947379114143095E-019
  -73.2700000000000         3.806641051383232E-019
  -73.0800000000000         2.519637216610497E-019
  -72.8900000000000         4.589629286101601E-020
  -72.7000000000000        -1.774991312732639E-019
  -72.5100000000000        -3.529039144928800E-019
  -72.3200000000000        -4.287278026747130E-019
  -72.1300000000000        -3.820566977331632E-019
  -71.9400000000000        -2.251952292754459E-019
  -71.7500000000000        -1.953591829114062E-021
  -71.5600000000000         2.251418114234733E-019
  -71.3700000000000         3.928945712844988E-019
  -71.1800000000000         4.554685852733678E-019
  -70.9900000000000         3.972391554111228E-019
  -70.8000000000000         2.368686116134151E-019
  -70.6100000000000         2.155841866236539E-020
  -70.4200000000000        -1.867609729974743E-019
  -70.2300000000000        -3.292737273503781E-019
  -70.0400000000000        -3.670429470085973E-019
  -69.8500000000000        -2.919553213024626E-019
  -69.6600000000000        -1.287910274076455E-019
  -69.4700000000000         7.212211710429494E-020
  -69.2800000000000         2.495642403228288E-019
  -69.0900000000000         3.492221852606880E-019
  -68.9000000000000         3.395408030016172E-019
  -68.7100000000000         2.210228306246318E-019
  -68.5200000000000         2.621186562900401E-020
  -68.3300000000000        -1.896817366185552E-019
  -68.1400000000000        -3.647670188817301E-019
  -67.9500000000000        -4.483759682965499E-019
  -67.7600000000000        -4.156659636458954E-019
  -67.5700000000000        -2.747154956975833E-019
  -67.3800000000000        -6.412753362753175E-020
  -67.1900000000000         1.580799750128877E-019
  -67.0000000000000         3.310294687104287E-019
  -66.8100000000000         4.082246333146626E-019
  -66.6200000000000         3.705976887351603E-019
  -66.4300000000000         2.317201507416015E-019
  -66.2400000000000         3.375558474146480E-020
  -66.0500000000000        -1.646805272314719E-019
  -65.8600000000000        -3.053379654289684E-019
  -65.6700000000000        -3.470823130204043E-019
  -65.4800000000000        -2.777918937797645E-019
  -65.2900000000000        -1.179307621182437E-019
  -65.1000000000000         8.530091502533440E-020
  -64.9100000000000         2.716013171596325E-019
  -64.7200000000000         3.850849663530368E-019
  -64.5300000000000         3.906427728387249E-019
  -64.3400000000000         2.843844127709727E-019
  -64.1500000000000         9.505013450647609E-020
  -63.9600000000000        -1.241228461974400E-019
  -63.7700000000000        -3.107777241428434E-019
  -63.5800000000000        -4.115759941346571E-019
  -63.3900000000000        -3.977509343471616E-019
  -63.2000000000000        -2.734823502236470E-019
  -63.0100000000000        -7.464682129574297E-020
  -62.8200000000000         1.416384484670505E-019
  -62.6300000000000         3.135806112162373E-019
  -62.4400000000000         3.925635541743444E-019
  -62.2500000000000         3.571373910965590E-019
  -62.0600000000000         2.191302598381552E-019
  -61.8700000000000         2.014937722736287E-020
  -61.6800000000000        -1.805040009192504E-019
  -61.4900000000000        -3.230516958346967E-019
  -61.3000000000000        -3.646815276973526E-019
  -61.1100000000000        -2.921945496238981E-019
  -60.9200000000000        -1.261198401199221E-019
  -60.7300000000000         8.503404328439751E-020
  -60.5400000000000         2.788386454445702E-019
  -60.3500000000000         3.972579574178319E-019
  -60.1600000000000         4.038114159238323E-019
  -59.9700000000000         2.944635549950716E-019
  -59.7800000000000         9.897366509010133E-020
  -59.5900000000000        -1.277043621945426E-019
  -59.4000000000000        -3.214314219004942E-019
  -59.2100000000000        -4.275922010510954E-019
  -59.0200000000000        -4.170044779768659E-019
  -58.8300000000000        -2.943510477927777E-019
  -58.6400000000000        -9.667956935825149E-020
  -58.4500000000000         1.175325430685691E-019
  -58.2600000000000         2.854924381625767E-019
  -58.0700000000000         3.583750207735395E-019
  -57.8800000000000         3.154762047028291E-019
  -57.6900000000000         1.701667650547500E-019
  -57.5000000000000        -3.403814416223160E-020
  -57.3100000000000        -2.361385667766303E-019
  -57.1200000000000        -3.753980803799478E-019
  -56.9300000000000        -4.090837521475069E-019
  -56.7400000000000        -3.250700256926290E-019
  -56.5500000000000        -1.456136732719210E-019
  -56.3600000000000         7.887318824001262E-020
  -56.1700000000000         2.843355461804795E-019
  -55.9800000000000         4.117134876974516E-019
  -55.7900000000000         4.242531527037948E-019
  -55.6000000000000         3.183415028651342E-019
  -55.4100000000000         1.246146041064374E-019
  -55.2200000000000        -1.009826715402537E-019
  -55.0300000000000        -2.935019141596844E-019
  -54.8400000000000        -3.978299029729378E-019
  -54.6500000000000        -3.845463741262134E-019
  -54.4600000000000        -2.582288301753218E-019
  -54.2700000000000        -5.588758148981822E-020
  -54.0800000000000         1.639176710573602E-019
  -53.8900000000000         3.380848565909720E-019
  -53.7000000000000         4.171955450959219E-019
  -53.5100000000000         3.797253445663925E-019
  -53.3200000000000         2.381582738350440E-019
  -53.1300000000000         3.525007701324878E-020
  -52.9400000000000        -1.684881960710897E-019
  -52.7500000000000        -3.124854137388132E-019
  -52.5600000000000        -3.538557655619634E-019
  -52.3700000000000        -2.800095042673342E-019
  -52.1800000000000        -1.124299163276731E-019
  -51.9900000000000         9.949304137798875E-020
  -51.8000000000000         2.927888241828646E-019
  -51.6100000000000         4.092477843160641E-019
  -51.4200000000000         4.124488675434121E-019
  -51.2300000000000         2.984885585899527E-019
  -51.0400000000000         9.724950083876454E-020
  -50.8500000000000        -1.361701555098991E-019
  -50.6600000000000        -3.373452937112238E-019
  -50.4700000000000        -4.510610544904063E-019
  -50.2800000000000        -4.470783368754063E-019
  -50.0900000000000        -3.285799605052388E-019
  -49.9000000000000        -1.309494696553297E-019
  -49.7100000000000         8.865059647721191E-020
  -49.5200000000000         2.678274728640435E-019
  -49.3300000000000         3.568530289828561E-019
  -49.1400000000000         3.327733105933938E-019
  -48.9500000000000         2.057225883955987E-019
  -48.7600000000000         1.569158880878373E-020
  -48.5700000000000        -1.792806530051315E-019
  -48.3800000000000        -3.200947298889396E-019
  -48.1900000000000        -3.638648537689775E-019
  -48.0000000000000        -2.964578611665810E-019
  -47.8100000000000        -1.366231076290562E-019
  -47.6200000000000         6.950040200410974E-020
  -47.4300000000000         2.618800668763737E-019
  -47.2400000000000         3.841183644183944E-019
  -47.0500000000000         3.998806571782270E-019
  -46.8600000000000         3.034575241271300E-019
  -46.6700000000000         1.214469297437208E-019
  -46.4800000000000        -9.489341965503132E-020
  -46.2900000000000        -2.844167809810503E-019
  -46.1000000000000        -3.937196609080590E-019
  -45.9100000000000        -3.925108710847099E-019
  -45.7200000000000        -2.822453124855783E-019
  -45.5300000000000        -9.555252084289024E-020
  -45.3400000000000         1.133058937927433E-019
  -45.1500000000000         2.841391720096907E-019
  -44.9600000000000         3.681488397850762E-019
  -44.7700000000000         3.419030596400013E-019
  -44.5800000000000         2.139881335951722E-019
  -44.3900000000000         2.246392272227569E-020
  -44.2000000000000        -1.761386050767991E-019
  -44.0100000000000        -3.231338935956144E-019
  -43.8200000000000        -3.746395772745470E-019
  -43.6300000000000        -3.143103332579752E-019
  -43.4400000000000        -1.581862706696805E-019
  -43.2500000000000         4.977472737769750E-020
  -43.0600000000000         2.502671945518741E-019
  -42.8700000000000         3.857327661552069E-019
  -42.6800000000000         4.170104708516345E-019
  -42.4900000000000         3.346617394528627E-019
  -42.3000000000000         1.616771161771563E-019
  -42.1100000000000        -5.317223649872152E-020
  -41.9200000000000        -2.493665292557060E-019
  -41.7300000000000        -3.719953115102410E-019
  -41.5400000000000        -3.874732240285955E-019
  -41.3500000000000        -2.931329482494025E-019
  -41.1600000000000        -1.179446100970504E-019
  -40.9700000000000         8.588311957304005E-020
  -40.7800000000000         2.580414336981058E-019
  -40.5900000000000         3.476309815352285E-019
  -40.4000000000000         3.279643576793407E-019
  -40.2100000000000         2.043879593868730E-019
  -40.0200000000000         1.287369959641540E-020
  -39.8300000000000        -1.902488805229726E-019
  -39.6400000000000        -3.445304601284399E-019
  -39.4500000000000        -4.029726497571390E-019
  -39.2600000000000        -3.458523344951869E-019
  -39.0700000000000        -1.867586424119417E-019
  -38.8800000000000         3.097680645156356E-020
  -38.6900000000000         2.465126177443309E-019
  -38.5000000000000         3.989250073815841E-019
  -38.3100000000000         4.448105745883821E-019
  -38.1200000000000         3.709438033216339E-019
  -37.9300000000000         1.982583445304820E-019
  -37.7400000000000        -2.408391628109207E-020
  -37.5500000000000        -2.328604940258552E-019
  -37.3600000000000        -3.690521608573416E-019
  -37.1700000000000        -3.948492351510808E-019
  -36.9800000000000        -3.044718508370264E-019
  -36.7900000000000        -1.257271797075225E-019
  -36.6000000000000         8.811516123998305E-020
  -36.4100000000000         2.738095143613302E-019
  -36.2200000000000         3.765470528257365E-019
  -36.0300000000000         3.659680935582395E-019
  -35.8400000000000         2.450849135429026E-019
  -35.6500000000000         4.945158283179124E-020
  -35.4600000000000        -1.632312048989921E-019
  -35.2700000000000        -3.300453401733141E-019
  -35.0800000000000        -4.013380126442604E-019
  -34.8900000000000        -3.553341905926929E-019
  -34.7000000000000        -2.046109823595331E-019
  -34.5100000000000         7.467497780728941E-021
  -34.3200000000000         2.193430683793108E-019
  -34.1300000000000         3.692168379028315E-019
  -33.9400000000000         4.131001321539947E-019
  -33.7500000000000         3.376774002242835E-019
  -33.5600000000000         1.642294137601927E-019
  -33.3700000000000        -5.753180775355803E-020
  -33.1800000000000        -2.639310265919116E-019
  -32.9900000000000        -3.958749214944572E-019
  -32.8000000000000        -4.160354461301246E-019
  -32.6100000000000        -3.196328640182252E-019
  -32.4200000000000        -1.356721324796026E-019
  -32.2300000000000         8.169355169059268E-020
  -32.0400000000000         2.690852642282359E-019
  -31.8500000000000         3.724039293471140E-019
  -31.6600000000000         3.625314089314514E-019
  -31.4700000000000         2.437180086655275E-019
  -31.2800000000000         5.225812569882307E-020
  -31.0900000000000        -1.541781187862581E-019
  -30.9000000000000        -3.134807850879476E-019
  -30.7100000000000        -3.773583762514127E-019
  -30.5200000000000        -3.255564186236751E-019
  -30.3300000000000        -1.718599171420491E-019
  -30.1400000000000         3.987516719048159E-020
  -29.9500000000000         2.484809166347654E-019
  -29.7600000000000         3.932707768463169E-019
  -29.5700000000000         4.316708342116024E-019
  -29.3800000000000         3.515868006860425E-019
  -29.1900000000000         1.749459696274914E-019
  -29.0000000000000        -4.861177722941271E-020
  -28.8100000000000        -2.560737460064917E-019
  -28.6200000000000        -3.892596980841610E-019
  -28.4300000000000        -4.116035584551939E-019
  -28.2400000000000        -3.186499465359691E-019
  -28.0500000000000        -1.392245019009020E-019
  -27.8600000000000         7.306662692383809E-020
  -27.6700000000000         2.555254458622777E-019
  -27.4800000000000         3.546408551409205E-019
  -27.2900000000000         3.416226124815200E-019
  -27.1000000000000         2.207008325064188E-019
  -26.9100000000000         2.782975881741094E-020
  -26.7200000000000        -1.797884913588505E-019
  -26.5300000000000        -3.403129909787765E-019
  -26.3400000000000        -4.052268589273433E-019
  -26.1500000000000        -3.535088043409697E-019
  -25.9600000000000        -1.979245661235809E-019
  -25.7700000000000         1.844970530248489E-020
  -25.5800000000000         2.345554881077936E-019
  -25.3900000000000         3.889909695079922E-019
  -25.2000000000000         4.378158341374056E-019
  -25.0100000000000         3.673149886712715E-019
  -24.8200000000000         1.979938097940868E-019
  -24.6300000000000        -2.135900537661386E-020
  -24.4400000000000        -2.278023787891257E-019
  -24.2500000000000        -3.624472216071147E-019
  -24.0600000000000        -3.874594958395449E-019
  -23.8700000000000        -2.969592054678924E-019
  -23.6800000000000        -1.186667504380439E-019
  -23.4900000000000         9.419354102338850E-020
  -23.3000000000000         2.783917491725709E-019
  -23.1100000000000         3.790916260651381E-019
  -22.9200000000000         3.658157536201710E-019
  -22.7300000000000         2.413507464385085E-019
  -22.5400000000000         4.099821053723272E-020
  -22.3500000000000        -1.776239277362625E-019
  -22.1600000000000        -3.512627999192901E-019
  -21.9700000000000        -4.293481966340561E-019
  -21.7800000000000        -3.886546534586330E-019
  -21.5900000000000        -2.400800919867502E-019
  -21.4000000000000        -2.556246434457310E-020
  -21.2100000000000         1.940102212952945E-019
  -21.0200000000000         3.564165705536608E-019
  -20.8300000000000         4.161328620292235E-019
  -20.6400000000000         3.575131780264262E-019
  -20.4500000000000         1.992353217611099E-019
  -20.2600000000000        -1.131226178380465E-020
  -20.0700000000000        -2.120257904741053E-019
  -19.8800000000000        -3.442932187148843E-019
  -19.6900000000000        -3.700508474164187E-019
  -19.5000000000000        -2.827424520483994E-019
  -19.3100000000000        -1.090557278129490E-019
  -19.1200000000000         9.900454490259562E-020
  -18.9300000000000         2.793614923426995E-019
  -18.7400000000000         3.780041769888203E-019
  -18.5500000000000         3.647936314565910E-019
  -18.3600000000000         2.423695530184179E-019
  -18.1700000000000         4.553001118267568E-020
  -17.9800000000000        -1.688007844246432E-019
  -17.7900000000000        -3.381257098557151E-019
  -17.6000000000000        -4.126144981437461E-019
  -17.4100000000000        -3.696886720727337E-019
  -17.2200000000000        -2.206747785083848E-019
  -17.0300000000000        -7.574929534049356E-021
  -16.8400000000000         2.090830447438281E-019
  -16.6500000000000         3.677432288541419E-019
  -16.4600000000000         4.235763213866994E-019
  -16.2700000000000         3.613662725116597E-019
  -16.0800000000000         1.998132292993800E-019
  -15.8900000000000        -1.398496219817911E-020
  -15.7000000000000        -2.182445709427195E-019
  -15.5100000000000        -3.543866286622184E-019
  -15.3200000000000        -3.839106823951883E-019
  -15.1300000000000        -2.993863239471989E-019
  -14.9400000000000        -1.264145796385005E-019
  -14.7500000000000         8.395870658359110E-020
  -14.5600000000000         2.701181407263953E-019
  -14.3700000000000         3.777078873305329E-019
  -14.1800000000000         3.752929271517354E-019
  -13.9900000000000         2.633854329513966E-019
  -13.8000000000000         7.425754296718162E-020
  -13.6100000000000        -1.374112261938869E-019
  -13.4200000000000        -3.103720815592173E-019
  -13.2300000000000        -3.945796832663026E-019
  -13.0400000000000        -3.657598561057070E-019
  -12.8500000000000        -2.325032587245665E-019
  -12.6600000000000        -3.377121149636608E-020
  -12.4700000000000         1.724503073647763E-019
  -12.2800000000000         3.259854069266851E-019
  -12.0900000000000         3.818700248497252E-019
  -11.9000000000000         3.233105109845940E-019
  -11.7100000000000         1.665087084420717E-019
  -11.5200000000000        -4.399507191907817E-020
  -11.3300000000000        -2.480961322835297E-019
  -11.1400000000000        -3.873514695546840E-019
  -10.9500000000000        -4.217464771738209E-019
  -10.7600000000000        -3.412083418990475E-019
  -10.5700000000000        -1.685378543897708E-019
  -10.3800000000000         4.711081995216381E-020
  -10.1900000000000         2.443336001071902E-019
  -10.0000000000000         3.671122439908278E-019
  -9.81000000000000         3.809202060536758E-019
  -9.62000000000000         2.826495224688508E-019
  -9.42999999999999         1.014690057541090E-019
  -9.23999999999999        -1.096315062608887E-019
  -9.05000000000000        -2.891431076175844E-019
  -8.86000000000000        -3.847743846824064E-019
  -8.67000000000000        -3.685383097681580E-019
  -8.48000000000000        -2.448340105648823E-019
  -8.28999999999999        -4.914182032419223E-020
  -8.09999999999999         1.623269958789217E-019
  -7.91000000000000         3.290196579168215E-019
  -7.72000000000000         4.036770897595283E-019
  -7.53000000000000         3.660409244428791E-019
  -7.34000000000000         2.286178661734224E-019
  -7.15000000000001         3.286785193599957E-020
  -6.95999999999999        -1.629808671350844E-019
  -6.77000000000000        -3.009042231187766E-019
  -6.58000000000000        -3.399621899496908E-019
  -6.39000000000000        -2.682491228068469E-019
  -6.20000000000000        -1.064511025612716E-019
  -6.01000000000001         9.805414899702307E-020
  -5.81999999999999         2.848793892795463E-019
  -5.63000000000000         3.981698744090679E-019
  -5.44000000000000         4.029494347057806E-019
  -5.25000000000000         2.954925374305669E-019
  -5.06000000000000         1.046241565451588E-019
  -4.87000000000000        -1.164931356680934E-019
  -4.67999999999999        -3.057112751603997E-019
  -4.48999999999999        -4.099166523952850E-019
  -4.30000000000000        -4.004549472472574E-019
  -4.11000000000000        -2.814412493899912E-019
  -3.92000000000000        -8.853557844110415E-020
  -3.73000000000000         1.214269086990592E-019
  -3.53999999999999         2.869327694906469E-019
  -3.34999999999999         3.596646658029312E-019
  -3.16000000000000         3.185737418112525E-019
  -2.97000000000000         1.760099634052098E-019
  -2.78000000000000        -2.590642187116865E-020
  -2.59000000000000        -2.275839691554299E-019
  -2.40000000000001        -3.693121008301784E-019
  -2.20999999999999        -4.086285274594492E-019
  -2.02000000000000        -3.326872652584612E-019
  -1.83000000000000        -1.620651606153446E-019
  -1.64000000000000         5.507612571447794E-020
  -1.45000000000000         2.568023398030186E-019
  -1.26000000000001         3.852746912849055E-019
  -1.06999999999999         4.035651010871758E-019
 -0.879999999999995         3.065167626277056E-019
 -0.689999999999998         1.224120666664322E-019
 -0.500000000000000        -9.510738066575079E-020
 -0.310000000000002        -2.825719412237431E-019
 -0.120000000000005        -3.851833842483719E-019
  7.000000000000739E-002   -3.728631614945072E-019
  0.260000000000005        -2.490799826326750E-019
  0.450000000000003        -4.984140594065634E-020
  0.640000000000001         1.667994039461364E-019
  0.829999999999998         3.376032417551394E-019
   1.02000000000000         4.124758517901742E-019
   1.21000000000001         3.689902738889684E-019
   1.40000000000001         2.189226194786702E-019
   1.59000000000000         4.931562234586899E-021
   1.78000000000000        -2.116661463199185E-019
   1.97000000000000        -3.685449436567412E-019
   2.16000000000000        -4.203795276435974E-019
   2.34999999999999        -3.519714918506304E-019
   2.54000000000001        -1.826559299845539E-019
   2.73000000000000         3.926472145502911E-020
   2.92000000000000         2.504244583302616E-019
   3.11000000000000         3.906513070389970E-019
   3.30000000000000         4.203373679235969E-019
   3.48999999999999         3.318721193308893E-019
   3.68000000000001         1.517916355431164E-019
   3.87000000000000        -6.698450739574435E-020
   4.06000000000000        -2.605914019224064E-019
   4.25000000000000        -3.728776331895027E-019
   4.44000000000000        -3.718326038246756E-019
   4.63000000000000        -2.589182304502642E-019
   4.82000000000001        -6.854064712126129E-020
   5.01000000000001         1.421608625413189E-019
   5.20000000000000         3.101808485818549E-019
   5.39000000000000         3.851826714174110E-019
   5.58000000000000         3.442172566686106E-019
   5.77000000000000         1.983373352058144E-019
   5.96000000000001        -1.069766847711722E-020
   6.15000000000001        -2.225598203434713E-019
   6.34000000000000        -3.758312757466048E-019
   6.53000000000000        -4.258267120599748E-019