  -105.000000000000         3.000629981171661E-019
  -104.810000000000         6.958429122239435E-020
  -104.620000000000        -1.733893088721727E-019
  -104.430000000000        -2.074200181881623E-019
  -104.240000000000        -1.307198822359013E-020
  -104.050000000000         2.107975398966474E-019
  -103.860000000000         2.387502813313416E-019
  -103.670000000000         3.515604554073767E-020
  -103.480000000000        -2.112051320870769E-019
  -103.290000000000        -2.673954891471698E-019
  -103.100000000000        -7.934396638907200E-020
  -102.910000000000         1.756689956429355E-019
  -102.720000000000         2.574984176476375E-019
  -102.530000000000         9.160843824504710E-020
  -102.340000000000        -1.606354870396431E-019
  -102.150000000000        -2.565854452417042E-019
  -101.960000000000        -1.040344938798662E-019
  -101.770000000000         1.509016369609860E-019
  -101.580000000000         2.634994698289293E-019
  -101.390000000000         1.245070005477054E-019
  -101.200000000000        -1.350374115889728E-019
  -101.010000000000        -2.687466865907661E-019
  -100.820000000000        -1.502954204401639E-019
  -100.630000000000         1.058622632800064E-019
  -100.440000000000         2.538414511618389E-019
  -100.250000000000         1.512073588259619E-019
  -100.060000000000        -1.047809786447201E-019
  -99.8700000000000        -2.696076847132357E-019
  -99.6800000000000        -1.847656302847358E-019
  -99.4900000000000         7.054920471852807E-020
  -99.3000000000000         2.544376018018947E-019
  -99.1100000000000         1.927626041824864E-019
  -98.9200000000000        -5.496165295173941E-020
  -98.7300000000000        -2.525750102870682E-019
  -98.5400000000000        -2.124076673457077E-019
  -98.3500000000000         2.635251167149738E-020
  -98.1600000000000         2.357606587750301E-019
  -97.9700000000000         2.169319611747633E-019
  -97.7800000000000        -1.026943189068451E-020
  -97.5900000000000        -2.267139143474401E-019
  -97.4000000000000        -2.240953043920613E-019
  -97.2100000000000        -4.700429337588038E-021
  -97.0200000000000         2.203441948537539E-019
  -96.8300000000000         2.326764902978190E-019
  -96.6400000000000         1.548474440490844E-020
  -96.4500000000000        -2.296959887639333E-019
  -96.2600000000000        -2.740865957370334E-019
  -96.0700000000000        -7.862750556504675E-020
  -95.8800000000000         1.698641174046373E-019
  -95.6900000000000         2.377914032308092E-019
  -95.5000000000000         6.799072572533739E-020
  -95.3100000000000        -1.665277725979610E-019
  -95.1200000000000        -2.297236352030496E-019
  -94.9300000000000        -5.035905204036456E-020
  -94.7400000000000         2.076896541204894E-019
  -94.5500000000000         3.001881387819416E-019
  -94.3600000000000         1.350948872294089E-019
  -94.1700000000000        -1.387474988474442E-019
  -93.9800000000000        -2.717978151488740E-019
  -93.7900000000000        -1.498226823269088E-019
  -93.6000000000000         9.915536804010453E-020
  -93.4100000000000         2.288854598673692E-019
  -93.2200000000000         1.110714476249132E-019
  -93.0300000000000        -1.420293852067195E-019
  -92.8400000000000        -2.852603994724550E-019
  -92.6500000000000        -1.752488303034107E-019
  -92.4600000000000         9.185527714842207E-020
  -92.2700000000000         2.709568045873907E-019
  -92.0800000000000         2.007322296506817E-019
  -91.8900000000000        -4.342825431223206E-020
  -91.7000000000000        -2.223373204849030E-019
  -91.5100000000000        -1.620924387729953E-019
  -91.3200000000000         7.969402043414357E-020
  -91.1300000000000         2.691699423566407E-019
  -90.9400000000000         2.198891148770138E-019
  -90.7500000000000        -2.868755400370871E-020
  -90.5600000000000        -2.479728350628901E-019
  -90.3700000000000        -2.373018586263085E-019
  -90.1800000000000        -1.435695339503427E-020
  -89.9900000000000         2.028299002838751E-019
  -89.8000000000000         2.051031630431822E-019
  -89.6100000000000        -7.646285607083386E-021
  -89.4200000000000        -2.269777370992713E-019
  -89.2300000000000        -2.363681484438748E-019
  -89.0400000000000        -1.969234198952471E-020
  -88.8500000000000         2.216936142881610E-019
  -88.6600000000000         2.599929815288150E-019
  -88.4700000000000         5.828206550288500E-020
  -88.2800000000000        -1.933518429311940E-019
  -88.0900000000000        -2.579511967902635E-019
  -87.9000000000000        -7.661315911587418E-020
  -87.7100000000000         1.763602069946335E-019
  -87.5200000000000         2.603617938702522E-019
  -87.3300000000000         9.768087667806761E-020
  -87.1400000000000        -1.535589740357856E-019
  -86.9500000000000        -2.516640670283538E-019
  -86.7600000000000        -1.031164131835276E-019
  -86.5700000000000         1.475532978977326E-019
  -86.3800000000000         2.559165626721573E-019
  -86.1900000000000         1.121462398002397E-019
  -86.0000000000000        -1.524424103893908E-019
  -85.8100000000000        -2.891360585660409E-019
  -85.6200000000000        -1.679756881889120E-019
  -85.4300000000000         9.888183487424776E-020
  -85.2400000000000         2.639194878366464E-019
  -85.0500000000000         1.791817137130448E-019
  -84.8600000000000        -6.435947253682039E-020
  -84.6700000000000        -2.255884739531643E-019
  -84.4800000000000        -1.452412801078868E-019
  -84.2900000000000         1.008250530449493E-019
  -84.1000000000000         2.740084291754991E-019
  -83.9100000000000         2.018360941696918E-019
  -83.7200000000000        -5.578963720264361E-020
  -83.5300000000000        -2.621201140720082E-019
  -83.3400000000000        -2.280738741885335E-019
  -83.1500000000000         8.191828080959893E-021
  -82.9600000000000         2.178487330782897E-019
  -82.7700000000000         1.995889954480646E-019
  -82.5800000000000        -2.837857139188297E-020
  -82.3900000000000        -2.458409968270051E-019
  -82.2000000000000        -2.410178639947871E-019
  -82.0100000000000        -1.293247961095659E-020
  -81.8200000000000         2.273312984481548E-019
  -81.6300000000000         2.572212859351853E-019
  -81.4400000000000         5.366834345141983E-020
  -81.2500000000000        -1.863168898225150E-019
  -81.0600000000000        -2.345325662351654E-019
  -80.8700000000000        -4.955373844724549E-020
  -80.6800000000000         1.844118874048547E-019
  -80.4900000000000         2.349556957341387E-019
  -80.3000000000000         4.535982402781526E-020
  -80.1100000000000        -2.094443474065964E-019
  -79.9200000000000        -2.884769762635381E-019
  -79.7300000000000        -1.138108660361823E-019
  -79.5400000000000         1.551422351494833E-019
  -79.3500000000000         2.727451083885884E-019
  -79.1600000000000         1.396663889155830E-019
  -78.9700000000000        -1.046806334394603E-019
  -78.7800000000000        -2.177515491068212E-019
  -78.5900000000000        -8.751381255373139E-020
  -78.4000000000000         1.598440075798766E-019
  -78.2100000000000         2.813276746115889E-019
  -78.0200000000000         1.511765644508506E-019
  -77.8300000000000        -1.167246086371560E-019
  -77.6400000000000        -2.755063356643670E-019
  -77.4500000000000        -1.797860089318963E-019
  -77.2600000000000         7.555288687044996E-020
  -77.0700000000000         2.451594366288689E-019
  -76.8800000000000         1.665898391774228E-019
  -76.6900000000000        -8.528960718805689E-020
  -76.5000000000000        -2.703101431202940E-019
  -76.3100000000000        -2.124251955453301E-019
  -76.1200000000000         3.264333936612069E-020
  -75.9300000000000         2.311854707536171E-019
  -75.7400000000000         1.949421300174415E-019
  -75.5500000000000        -3.901537287859039E-020
  -75.3600000000000        -2.435831377288587E-019
  -75.1700000000000        -2.186869833050751E-019
  -74.9800000000000         1.699168363756011E-020
  -74.7900000000000         2.430219316104653E-019
  -74.6000000000000         2.470197981899803E-019
  -74.4100000000000         2.696332796501258E-020
  -74.2200000000000        -2.069499756275409E-019
  -74.0300000000000        -2.324779361972016E-019
  -73.8400000000000        -2.677359365639621E-020
  -73.6500000000000         2.122154291864206E-019
  -73.4600000000000         2.548112042093495E-019
  -73.2700000000000         5.892719064501449E-020
  -73.0800000000000        -1.898192865665676E-019
  -72.8900000000000        -2.556316718206112E-019
  -72.7000000000000        -7.783057305992444E-020
  -72.5100000000000         1.715706202670266E-019
  -72.3200000000000         2.527602532142032E-019
  -72.1300000000000         8.765231669541160E-020
  -71.9400000000000        -1.651770148884122E-019
  -71.7500000000000        -2.617766579067664E-019
  -71.5600000000000        -1.061871757608965E-019
  -71.3700000000000         1.569374773742982E-019
  -71.1800000000000         2.793029840845409E-019
  -70.9900000000000         1.450093280083546E-019
  -70.8000000000000        -1.196157344436010E-019
  -70.6100000000000        -2.667755653878449E-019
  -70.4200000000000        -1.627770478009763E-019
  -70.2300000000000         8.614613629393761E-020
  -70.0400000000000         2.370084484748008E-019
  -69.8500000000000         1.432875023268868E-019
  -69.6600000000000        -1.045390571235879E-019
  -69.4700000000000        -2.655307454346152E-019
  -69.2800000000000        -1.793781131410485E-019
  -69.0900000000000         7.904551156003346E-020
  -68.9000000000000         2.697843430239768E-019
  -68.7100000000000         2.157512700663923E-019
  -68.5200000000000        -2.904273892744027E-020
  -68.3300000000000        -2.313456850701998E-019
  -68.1400000000000        -2.011012546098921E-019
  -67.9500000000000         2.762329999005954E-020
  -67.7600000000000         2.299893682591158E-019
  -67.5700000000000         2.063741721635055E-019
  -67.3800000000000        -2.562345245866015E-020
  -67.1900000000000        -2.472394736463055E-019
  -67.0000000000000        -2.474526718103300E-019
  -66.8100000000000        -2.478855349715327E-020
  -66.6200000000000         2.109141129030932E-019
  -66.4300000000000         2.384215962094045E-019
  -66.2400000000000         3.599169784069559E-020
  -66.0500000000000        -1.979945376712668E-019
  -65.8600000000000        -2.346747104395802E-019
  -65.6700000000000        -3.386885425372965E-020
  -65.4800000000000         2.166556911612237E-019
  -65.2900000000000         2.795772158726395E-019
  -65.1000000000000         9.385548370688897E-020
  -64.9100000000000        -1.672529115887863E-019
  -64.7200000000000        -2.609016173073451E-019
  -64.5300000000000        -1.050289948441891E-019
  -64.3400000000000         1.447206997518532E-019
  -64.1500000000000         2.445424251180630E-019
  -63.9600000000000         9.588279414630663E-020
  -63.7700000000000        -1.601219510385681E-019
  -63.5800000000000        -2.775983850292252E-019
  -63.3900000000000        -1.413166127546804E-019
  -63.2000000000000         1.226124709584590E-019
  -63.0100000000000         2.664677706872953E-019
  -62.8200000000000         1.566777900958609E-019
  -62.6300000000000        -9.925211128655094E-020
  -62.4400000000000        -2.556029616097756E-019
  -62.2500000000000        -1.630027488282708E-019
  -62.0600000000000         8.923962552067970E-020
  -61.8700000000000         2.591330720077459E-019
  -61.6800000000000         1.839979839355843E-019
  -61.4900000000000        -6.378178716435425E-020
  -61.3000000000000        -2.462350305695736E-019
  -61.1100000000000        -1.877004639287037E-019
  -60.9200000000000         5.682834418473800E-020
  -60.7300000000000         2.536245848965650E-019
  -60.5400000000000         2.130182478203454E-019
  -60.3500000000000        -2.928005419093676E-020
  -60.1600000000000        -2.455094852373451E-019
  -59.9700000000000        -2.324607794601577E-019
  -59.7800000000000        -4.761727150853818E-021
  -59.5900000000000         2.196111790011044E-019
  -59.4000000000000         2.274904272692319E-019
  -59.2100000000000         1.356238770790791E-020
  -59.0200000000000        -2.150941043894911E-019
  -58.8300000000000        -2.370285353203057E-019
  -58.6400000000000        -2.823886659214672E-020
  -58.4500000000000         2.142855719153043E-019
  -58.2600000000000         2.601536875387957E-019
  -58.0700000000000         6.540398343254661E-020
  -57.8800000000000        -1.855741765686660E-019
  -57.6900000000000        -2.561125874792067E-019
  -57.5000000000000        -8.288264078773183E-020
  -57.3100000000000         1.643938582591469E-019
  -57.1200000000000         2.457614258134600E-019
  -56.9300000000000         8.070684798505928E-020
  -56.7400000000000        -1.745900474839294E-019
  -56.5500000000000        -2.763445272544605E-019
  -56.3600000000000        -1.262806741264545E-019
  -56.1700000000000         1.342411571080567E-019
  -55.9800000000000         2.592526799140230E-019
  -55.7900000000000         1.330585734587804E-019
  -55.6000000000000        -1.196946898805328E-019
  -55.4100000000000        -2.536578329002428E-019
  -55.2200000000000        -1.376248865970208E-019
  -55.0300000000000         1.195504507445022E-019
  -54.8400000000000         2.722906747854668E-019
  -54.6500000000000         1.727365862978597E-019
  -54.4600000000000        -8.735144453230827E-020
  -54.2700000000000        -2.631393216980384E-019
  -54.0800000000000        -1.894788744892985E-019
  -53.8900000000000         6.221018361080434E-020
  -53.7000000000000         2.524666962264484E-019
  -53.5100000000000         2.021182655227508E-019
  -53.3200000000000        -3.722454962347369E-020
  -53.1300000000000        -2.328545362263272E-019
  -52.9400000000000        -1.935596627895339E-019
  -52.7500000000000         4.708776510454467E-020
  -52.5600000000000         2.619619222650174E-019
  -52.3700000000000         2.466540779754167E-019
  -52.1800000000000         1.420929240326788E-020
  -51.9900000000000        -2.176313792034995E-019
  -51.8000000000000        -2.340991467008013E-019
  -51.6100000000000        -2.750894988619264E-020
  -51.4200000000000         1.966368608912742E-019
  -51.2300000000000         2.169365683594422E-019
  -51.0400000000000         8.303645230476757E-021
  -50.8500000000000        -2.336577053419898E-019
  -50.6600000000000        -2.795474039559270E-019
  -50.4700000000000        -8.555907130322925E-020
  -50.2800000000000         1.646060501004221E-019
  -50.0900000000000         2.352208218190517E-019
  -49.9000000000000         6.343375577009754E-020
  -49.7100000000000        -1.811259287970021E-019
  -49.5200000000000        -2.587145562238370E-019
  -49.3300000000000        -8.892106569737373E-020
  -49.1400000000000         1.717582609860570E-019
  -48.9500000000000         2.786898577031072E-019
  -48.7600000000000         1.325624369280919E-019
  -48.5700000000000        -1.255516837425928E-019
  -48.3800000000000        -2.485828216080175E-019
  -48.1900000000000        -1.189726588951905E-019
  -48.0000000000000         1.394548619640273E-019
  -47.8100000000000         2.797700668734374E-019
  -47.6200000000000         1.675177723058462E-019
  -47.4300000000000        -9.091656709943709E-020
  -47.2400000000000        -2.497360877271280E-019
  -47.0500000000000        -1.584936267657575E-019
  -46.8600000000000         9.398042269437014E-020
  -46.6700000000000         2.642167093574851E-019
  -46.4800000000000         1.864490771887085E-019
  -46.2900000000000        -6.934357811784919E-020
  -46.1000000000000        -2.642700156688985E-019
  -45.9100000000000        -2.180255216730366E-019
  -45.7200000000000         1.995990020018473E-020
  -45.5300000000000         2.186950073070583E-019
  -45.3400000000000         1.869663480045346E-019
  -45.1500000000000        -4.367825625568718E-020
  -44.9600000000000        -2.493820076776671E-019
  -44.7700000000000        -2.287220318149669E-019
  -44.5800000000000         3.904258022172584E-021
  -44.3900000000000         2.312376008858568E-019
  -44.2000000000000         2.399524459951186E-019
  -44.0100000000000         2.390328921119330E-020
  -43.8200000000000        -2.099418784279776E-019
  -43.6300000000000        -2.386771773877813E-019
  -43.4400000000000        -3.589812578561905E-020
  -43.2500000000000         2.034493962928637E-019
  -43.0600000000000         2.497956449033582E-019
  -42.8700000000000         5.877916771965272E-020
  -42.6800000000000        -1.861022782244694E-019
  -42.4900000000000        -2.487670766715675E-019
  -42.3000000000000        -6.632187026887195E-020
  -42.1100000000000         1.900857011941303E-019
  -41.9200000000000         2.775727291927727E-019
  -41.7300000000000         1.126711306050922E-019
  -41.5400000000000        -1.489870959659713E-019
  -41.3500000000000        -2.607955578871530E-019
  -41.1600000000000        -1.199427707136281E-019
  -40.9700000000000         1.353362916148382E-019
  -40.7800000000000         2.585929750085279E-019
  -40.5900000000000         1.307257218102601E-019
  -40.4000000000000        -1.266308735829202E-019
  -40.2100000000000        -2.676411950088812E-019
  -40.0200000000000        -1.572472227855539E-019
  -39.8300000000000         9.965424103485694E-020
  -39.6400000000000         2.582628665770919E-019
  -39.4500000000000         1.677095386288565E-019
  -39.2600000000000        -8.491110373113961E-020
  -39.0700000000000        -2.580532475330756E-019
  -38.8800000000000        -1.866853064342154E-019
  -38.6900000000000         6.015027051933959E-020
  -38.5000000000000         2.454301523179114E-019
  -38.3100000000000         1.906338983073344E-019
  -38.1200000000000        -5.340401500160433E-020
  -37.9300000000000        -2.544136746166170E-019
  -37.7400000000000        -2.200723628503097E-019
  -37.5500000000000         1.836842704970640E-020
  -37.3600000000000         2.358326699334396E-019
  -37.1700000000000         2.281851488426706E-019
  -36.9800000000000         6.668855031438014E-021
  -36.7900000000000        -2.136204823070969E-019
  -36.6000000000000        -2.199503918112455E-019
  -36.4100000000000        -5.942973668383620E-021
  -36.2200000000000         2.214950869491192E-019
  -36.0300000000000         2.395009694069417E-019
  -35.8400000000000         2.294651686585655E-020
  -35.6500000000000        -2.297937469554416E-019
  -35.4600000000000        -2.841794355219443E-019
  -35.2700000000000        -9.141994793195528E-020
  -35.0800000000000         1.664327597606306E-019
  -34.8900000000000         2.504840038706527E-019
  -34.7000000000000         9.168560554851540E-020
  -34.5100000000000        -1.456044107555752E-019
  -34.3200000000000        -2.231153519181349E-019
  -34.1300000000000        -5.846774286890786E-020
  -33.9400000000000         1.946556612435532E-019
  -33.7500000000000         2.930157060167247E-019
  -33.5600000000000         1.369653936798808E-019
  -33.3700000000000        -1.329536232360250E-019
  -33.1800000000000        -2.684780901624608E-019
  -32.9900000000000        -1.488160815293361E-019
  -32.8000000000000         1.054526530299889E-019
  -32.6100000000000         2.480163221341221E-019
  -32.4200000000000         1.417724132140977E-019
  -32.2300000000000        -1.108525129698548E-019
  -32.0400000000000        -2.665937059823541E-019
  -31.8500000000000        -1.746941986253070E-019
  -31.6600000000000         7.846132633768154E-020
  -31.4700000000000         2.518615234067869E-019
  -31.2800000000000         1.804351136762118E-019
  -31.0900000000000        -6.684552367527999E-020
  -30.9000000000000        -2.523910850052663E-019
  -30.7100000000000        -1.967652564392571E-019
  -30.5200000000000         4.937446371869645E-020
  -30.3300000000000         2.526071359736931E-019
  -30.1400000000000         2.188611298035985E-019
  -29.9500000000000        -2.147966036100717E-020
  -29.7600000000000        -2.423083144595957E-019
  -29.5700000000000        -2.368385188690858E-019
  -29.3800000000000        -1.366758163052919E-020
  -29.1900000000000         2.126687938957524E-019
  -29.0000000000000         2.269210923640081E-019
  -28.8100000000000         1.820925407953567E-020
  -28.6200000000000        -2.104616731727369E-019
  -28.4300000000000        -2.371537080647992E-019
  -28.2400000000000        -3.396948152054262E-020
  -28.0500000000000         2.058825536568766E-019
  -27.8600000000000         2.529491018436202E-019
  -27.6700000000000         6.137340869937582E-020
  -27.4800000000000        -1.865322882469123E-019
  -27.2900000000000        -2.536005981386547E-019
  -27.1000000000000        -7.386482774754198E-020
  -26.9100000000000         1.840163490369735E-019
  -26.7200000000000         2.766825093862556E-019
  -26.5300000000000         1.172488264822373E-019
  -26.3400000000000        -1.427341441420493E-019
  -26.1500000000000        -2.587238883708497E-019
  -25.9600000000000        -1.267023442231007E-019
  -25.7700000000000         1.186210936091776E-019
  -25.5800000000000         2.343839023507159E-019
  -25.3900000000000         1.035910846365110E-019
  -25.2000000000000        -1.513119027536159E-019
  -25.0100000000000        -2.842724167052478E-019
  -24.8200000000000        -1.609461743551904E-019
  -24.6300000000000         1.111307734500201E-019
  -24.4400000000000         2.826184066072335E-019
  -24.2500000000000         1.979947505514673E-019
  -24.0600000000000        -5.777845768888965E-020
  -23.8700000000000        -2.410692214922818E-019
  -23.6800000000000        -1.813544370361107E-019
  -23.4900000000000         5.789166042074062E-020
  -23.3000000000000         2.417985949922328E-019
  -23.1100000000000         1.898395245941466E-019
  -22.9200000000000        -5.090675346579506E-020
  -22.7300000000000        -2.505743976667022E-019
  -22.5400000000000        -2.166802164376875E-019
  -22.3500000000000         2.106915516175061E-020
  -22.1600000000000         2.383435140108325E-019
  -21.9700000000000         2.298673096025487E-019
  -21.7800000000000         5.187783864015728E-021
  -21.5900000000000        -2.201208604309760E-019
  -21.4000000000000        -2.295070282756259E-019
  -21.2100000000000        -1.163455640982395E-020
  -21.0200000000000         2.287177693088924E-019
  -20.8300000000000         2.656055225572709E-019
  -20.6400000000000         6.668946594504030E-020
  -20.4500000000000        -1.772524959428184E-019
  -20.2600000000000        -2.357518144629995E-019
  -20.0700000000000        -5.904933970685384E-020
  -19.8800000000000         1.752049541053117E-019
  -19.6900000000000         2.331531743560905E-019
  -19.5000000000000         5.001864358293329E-020
  -19.3100000000000        -2.060070953026913E-019
  -19.1200000000000        -2.930290985927878E-019
  -18.9300000000000        -1.263333233114794E-019
  -18.7400000000000         1.398230169388041E-019
  -18.5500000000000         2.581112093398441E-019
  -18.3600000000000         1.225986728210695E-019
  -18.1700000000000        -1.317478626267828E-019
  -17.9800000000000        -2.588096936482569E-019
  -17.7900000000000        -1.361248178545648E-019
  -17.6000000000000         1.189981607680955E-019
  -17.4100000000000         2.624932809708330E-019
  -17.2200000000000         1.576425266500831E-019
  -17.0300000000000        -9.363488451314635E-020
  -16.8400000000000        -2.482173977818575E-019
  -16.6500000000000        -1.548547482663919E-019
  -16.4600000000000         1.002449311435445E-019
  -16.2700000000000         2.746991576018695E-019
  -16.0800000000000         2.007142229252762E-019
  -15.8900000000000        -5.456020069428588E-020
  -15.7000000000000        -2.520334768766872E-019
  -15.5100000000000        -2.075254340525163E-019
  -15.3200000000000         3.338410907250571E-020
  -15.1300000000000         2.393484993110241E-019
  -14.9400000000000         2.141606740074454E-019
  -14.7500000000000        -1.653409923199511E-020
  -14.5600000000000        -2.308739400351387E-019
  -14.3700000000000        -2.236256879903618E-019
  -14.1800000000000        -2.588018269818920E-021
  -13.9900000000000         2.188551861636652E-019
  -13.8000000000000         2.258896785398018E-019
  -13.6100000000000         8.344456026548234E-021
  -13.4200000000000        -2.283962333414601E-019
  -13.2300000000000        -2.586912817603914E-019
  -13.0400000000000        -5.187149683694509E-020
  -12.8500000000000         1.982076528841812E-019
  -12.6600000000000         2.573510651027151E-019
  -12.4700000000000         7.309405206234943E-020
  -12.2800000000000        -1.766381984094233E-019
  -12.0900000000000        -2.539506920921964E-019
  -11.9000000000000        -8.774143459045387E-020
  -11.7100000000000         1.593705656022959E-019
  -11.5200000000000         2.477179636717108E-019
  -11.3300000000000         9.091217146120645E-020
  -11.1400000000000        -1.608447774145371E-019
  -10.9500000000000        -2.643676541077062E-019
  -10.7600000000000        -1.165428455812842E-019
  -10.5700000000000         1.460616242672436E-019
  -10.3800000000000         2.763045042485991E-019
  -10.1900000000000         1.514903353437725E-019
  -10.0000000000000        -1.095593846204094E-019
  -9.81000000000000        -2.593130142316736E-019
  -9.62000000000000        -1.570628657287492E-019
  -9.42999999999999         9.757389490042257E-020
  -9.23999999999999         2.607096933845084E-019
  -9.05000000000000         1.776577393083085E-019
  -8.86000000000000        -6.955159073454784E-020
  -8.67000000000000        -2.412424876624592E-019
  -8.48000000000000        -1.698301688982374E-019
  -8.28999999999999         7.918311058607453E-020
  -8.09999999999999         2.687997401415514E-019
  -7.91000000000000         2.164034922226878E-019
  -7.72000000000000        -3.154418418228811E-020
  -7.53000000000000        -2.431662549277205E-019
  -7.34000000000000        -2.217606238034928E-019
  -7.15000000000001         7.330692752983191E-021
  -6.95999999999999         2.216862699499044E-019
  -6.77000000000000         2.142638437915099E-019
  -6.58000000000000        -9.371282596399148E-021
  -6.39000000000000        -2.367866740922097E-019
  -6.20000000000000        -2.517749130821723E-019
  -6.01000000000001        -4.103772917337080E-020
  -5.81999999999999         1.931167171069115E-019
  -5.63000000000000         2.264434709666185E-019
  -5.44000000000000         2.750389216841840E-020
  -5.25000000000000        -2.120746722452090E-019
  -5.06000000000000        -2.607140728141847E-019
  -4.87000000000000        -6.841593041613286E-020
  -4.67999999999999         1.846973242435519E-019
  -4.48999999999999         2.593973875920367E-019
  -4.30000000000000         8.530942089723023E-020
  -4.11000000000000        -1.715921032566904E-019
  -3.92000000000000        -2.668088923052850E-019
  -3.73000000000000        -1.100328630637499E-019
  -3.53999999999999         1.494951717471212E-019
  -3.34999999999999         2.661630987922533E-019
  -3.16000000000000         1.324724829152274E-019
  -2.97000000000000        -1.189653672480797E-019
  -2.78000000000000        -2.428347295107328E-019
  -2.59000000000000        -1.162336313829033E-019
  -2.40000000000001         1.428562681689196E-019
  -2.20999999999999         2.872351051251919E-019
  -2.02000000000000         1.761417767796908E-019
  -1.83000000000000        -9.011875343257222E-020
  -1.64000000000000        -2.651887348940537E-019
  -1.45000000000000        -1.903872210857785E-019
  -1.26000000000001         5.578464515892405E-020
  -1.06999999999999         2.342036622826011E-019
 -0.879999999999995         1.740198426841862E-019
 -0.689999999999998        -6.454003682593910E-020
 -0.500000000000000        -2.486912268667149E-019
 -0.310000000000002        -1.969364707066655E-019
 -0.120000000000005         4.609000023928976E-020
  7.000000000000739E-002    2.515136107282876E-019
  0.260000000000005         2.248707680633595E-019
  0.450000000000003        -7.834598834911571E-021
  0.640000000000001        -2.245827818782806E-019
  0.829999999999998        -2.189466295253990E-019
   1.02000000000000         2.931438648520234E-021
   1.21000000000001         2.279555485933169E-019
   1.40000000000001         2.394000003146825E-019
   1.59000000000000         2.413698479788083E-020
   1.78000000000000        -2.144984961178963E-019
   1.97000000000000        -2.508762313255858E-019
   2.16000000000000        -5.263696471473181E-020
   2.34999999999999         1.884201946516012E-019
   2.54000000000001         2.395110162650492E-019
   2.73000000000000         4.930543234929284E-020
   2.92000000000000        -2.024383067300749E-019
   3.11000000000000        -2.757006505655678E-019
   3.30000000000000        -9.909209186203192E-020
   3.48999999999999         1.615877538275521E-019
   3.68000000000001         2.610030532555681E-019
   3.87000000000000         1.078202189461750E-019
   4.06000000000000        -1.487609682669851E-019
   4.25000000000000        -2.616342184997442E-019
   4.44000000000000        -1.211344535161934E-019
   4.63000000000000         1.409849945287276E-019
   4.82000000000001         2.774787570891471E-019
   5.01000000000001         1.612235076987519E-019
   5.20000000000000        -9.411961819135834E-020
   5.39000000000000        -2.435325475990742E-019
   5.58000000000000        -1.454088477503044E-019
   5.77000000000000         1.030885492720211E-019
   5.96000000000001         2.594201617559916E-019
   6.15000000000001         1.681085819333739E-019
   6.34000000000000        -8.997736741674483E-020
   6.53000000000000        -2.738912011030201E-019