  -105.000000000000         5.325528721743501E-020
  -104.810000000000         1.468478555983209E-019
  -104.620000000000         2.060286253316424E-019
  -104.430000000000         2.196688631348128E-019
  -104.240000000000         1.893570683952242E-019
  -104.050000000000         1.288140097512362E-019
  -103.860000000000         5.981714499447776E-020
  -103.670000000000         5.819723126179171E-021
  -103.480000000000        -1.487994213471879E-020
  -103.290000000000         5.565880767817073E-021
  -103.100000000000         6.232838370307178E-020
  -102.910000000000         1.393833758681636E-019
  -102.720000000000         2.142577046936900E-019
  -102.530000000000         2.646535437551427E-019
  -102.340000000000         2.750236443856523E-019
  -102.150000000000         2.411887339508036E-019
  -101.960000000000         1.716555776623617E-019
  -101.770000000000         8.524775974467253E-020
  -101.580000000000         5.728761018149049E-021
  -101.390000000000        -4.502816285894061E-020
  -101.200000000000        -5.334132107769529E-020
  -101.010000000000        -1.765970029642684E-020
  -100.820000000000         5.100804084313564E-020
  -100.630000000000         1.322993539082313E-019
  -100.440000000000         2.024038755408934E-019
  -100.250000000000         2.409522340379997E-019
  -100.060000000000         2.368902326536319E-019
  -99.8700000000000         1.916413058099200E-019
  -99.6800000000000         1.186486098610127E-019
  -99.4900000000000         3.943496898555723E-020
  -99.3000000000000        -2.267623963610198E-020
  -99.1100000000000        -4.936005094297100E-020
  -98.9200000000000        -3.263645344753705E-020
  -98.7300000000000         2.279040789393869E-020
  -98.5400000000000         1.008838388012759E-019
  -98.3500000000000         1.789260864485252E-019
  -98.1600000000000         2.341160268887647E-019
  -97.9700000000000         2.501920130148728E-019
  -97.7800000000000         2.221534858695930E-019
  -97.5900000000000         1.577111614357838E-019
  -97.4000000000000         7.504802525439647E-020
  -97.2100000000000        -2.456675218884922E-021
  -97.0200000000000        -5.300969237778338E-020
  -96.8300000000000        -6.272563944840682E-020
  -96.6400000000000        -2.965329212678750E-020
  -96.4500000000000         3.566593594869509E-020
  -96.2600000000000         1.132739715016850E-019
  -96.0700000000000         1.796150989938699E-019
  -95.8800000000000         2.144053714489910E-019
  -95.6900000000000         2.065518552112314E-019
  -95.5000000000000         1.573982952667160E-019
  -95.3100000000000         8.035404611514819E-020
  -95.1200000000000        -2.984190526882389E-021
  -94.9300000000000        -6.909141699692844E-020
  -94.7400000000000        -9.934018365190487E-020
  -94.5500000000000        -8.541610157986520E-020
  -94.3600000000000        -3.175211462676264E-020
  -94.1700000000000         4.572981083913783E-020
  -93.9800000000000         1.242129310953809E-019
  -93.7900000000000         1.805896010995594E-019
  -93.6000000000000         1.981596258411108E-019
  -93.4100000000000         1.714755353768179E-019
  -93.2200000000000         1.079249523192928E-019
  -93.0300000000000         2.559149915007672E-020
  -92.8400000000000        -5.198051538489922E-020
  -92.6500000000000        -1.025951380463332E-019
  -92.4600000000000        -1.118144297407900E-019
  -92.2700000000000        -7.711771569556953E-020
  -92.0800000000000        -8.613845259924656E-021
  -91.8900000000000         7.389432041677959E-020
  -91.7000000000000         1.466422082418258E-019
  -91.5100000000000         1.887739497243996E-019
  -91.3200000000000         1.883608949737644E-019
  -91.1300000000000         1.458220305582081E-019
  -90.9400000000000         7.375279875004514E-020
  -90.7500000000000        -6.786360060304649E-021
  -90.5600000000000        -7.243901491781859E-020
  -90.3700000000000        -1.043816741043886E-019
  -90.1800000000000        -9.382574150088977E-020
  -89.9900000000000        -4.459490510514698E-020
  -89.8000000000000         2.796876440202994E-020
  -89.6100000000000         1.014534339812670E-019
  -89.4200000000000         1.528949913652282E-019
  -89.2300000000000         1.654789112223127E-019
  -89.0400000000000         1.334853596842930E-019
  -88.8500000000000         6.404023433205060E-020
  -88.6600000000000        -2.484278186094973E-020
  -88.4700000000000        -1.093684912896475E-019
  -88.2800000000000        -1.667388075126459E-019
  -88.0900000000000        -1.816418039490182E-019
  -87.9000000000000        -1.505758089180490E-019
  -87.7100000000000        -8.276555261883844E-020
  -87.5200000000000         2.582017523029372E-021
  -87.3300000000000         8.187570743573969E-020
  -87.1400000000000         1.339634946294863E-019
  -86.9500000000000         1.462027027895859E-019
  -86.7600000000000         1.180186701938527E-019
  -86.5700000000000         6.092237847673660E-020
  -86.3800000000000        -5.013308678213756E-021
  -86.1900000000000        -5.718592166804853E-020
  -86.0000000000000        -7.723565706146592E-020
  -85.8100000000000        -5.656971767217907E-020
  -85.6200000000000         9.844740817771408E-022
  -85.4300000000000         8.017830385053862E-020
  -85.2400000000000         1.587049204373059E-019
  -85.0500000000000         2.136566910951772E-019
  -84.8600000000000         2.282003059551715E-019
  -84.6700000000000         1.965313511930638E-019
  -84.4800000000000         1.256681523878541E-019
  -84.2900000000000         3.355635071490430E-020
  -84.1000000000000        -5.597996105455150E-020
  -83.9100000000000        -1.199913897697465E-019
  -83.7200000000000        -1.429126395185902E-019
  -83.5300000000000        -1.209439934241241E-019
  -83.3400000000000        -6.303400431053185E-020
  -83.1500000000000         1.182076181326571E-020
  -82.9600000000000         8.017163866037672E-020
  -82.7700000000000         1.209808540002759E-019
  -82.5800000000000         1.217579518782445E-019
  -82.3900000000000         8.219122842502972E-020
  -82.2000000000000         1.422496843242099E-020
  -82.0100000000000        -6.143717121092267E-020
  -81.8200000000000        -1.213888919731316E-019
  -81.6300000000000        -1.463827190518644E-019
  -81.4400000000000        -1.270042297117882E-019
  -81.2500000000000        -6.650636186877884E-020
  -81.0600000000000         2.002816300597653E-020
  -80.8700000000000         1.099619182394828E-019
  -80.6800000000000         1.795794905224523E-019
  -80.4900000000000         2.108875441205861E-019
  -80.3000000000000         1.967657397752126E-019
  -80.1100000000000         1.429764689200780E-019
  -79.9200000000000         6.645337287881160E-020
  -79.7300000000000        -9.634591694568881E-021
  -79.5400000000000        -6.261558549740005E-020
  -79.3500000000000        -7.689625939802175E-020
  -79.1600000000000        -4.848518031177992E-020
  -78.9700000000000         1.385729285098872E-020
  -78.7800000000000         9.118314711574700E-020
  -78.5900000000000         1.598957711762710E-019
  -78.4000000000000         1.986552919773879E-019
  -78.2100000000000         1.946396450400476E-019
  -78.0200000000000         1.473376827541298E-019
  -77.8300000000000         6.877132339955944E-020
  -77.6400000000000        -1.991588285393817E-020
  -77.4500000000000        -9.451270646960152E-020
  -77.2600000000000        -1.346844347137210E-019
  -77.0700000000000        -1.298029533066191E-019
  -76.8800000000000        -8.198346108694955E-020
  -76.6900000000000        -5.454742067823576E-021
  -76.5000000000000         7.755365726725656E-020
  -76.3100000000000         1.432188309560713E-019
  -76.1200000000000         1.729736103587832E-019
  -75.9300000000000         1.588159174195905E-019
  -75.7400000000000         1.055449155068189E-019
  -75.5500000000000         2.928571420209743E-020
  -75.3600000000000        -4.725568690311454E-020
  -75.1700000000000        -1.014180718812970E-019
  -74.9800000000000        -1.171634741041030E-019
  -74.7900000000000        -8.970395112443115E-020
  -74.6000000000000        -2.684516103749346E-020
  -74.4100000000000         5.333170278247922E-020
  -74.2200000000000         1.277694885347381E-019
  -74.0300000000000         1.751743332914057E-019
  -73.8400000000000         1.822351335873419E-019
  -73.6500000000000         1.475126955768088E-019
  -73.4600000000000         8.186355018874205E-020
  -73.2700000000000         5.271641242974244E-021
  -73.0800000000000        -5.899169953768461E-020
  -72.8900000000000        -9.118018656891428E-020
  -72.7000000000000        -8.087575528146291E-020
  -72.5100000000000        -3.009531802929306E-020
  -72.3200000000000         4.720379372666850E-020
  -72.1300000000000         1.290830537662183E-019
  -71.9400000000000         1.919089136222676E-019
  -71.7500000000000         2.171539961038670E-019
  -71.5600000000000         1.967476810376968E-019
  -71.3700000000000         1.354239160276122E-019
  -71.1800000000000         4.937969517769973E-020
  -70.9900000000000        -3.837185035392650E-020
  -70.8000000000000        -1.046060235251649E-019
  -70.6100000000000        -1.325290636729380E-019
  -70.4200000000000        -1.165293527383892E-019
  -70.2300000000000        -6.366355948577086E-020
  -70.0400000000000         8.541500051331235E-021
  -69.8500000000000         7.731859441531036E-020
  -69.6600000000000         1.213914855405774E-019
  -69.4700000000000         1.272469400107354E-019
  -69.2800000000000         9.312196205370957E-020
  -69.0900000000000         2.954289565091751E-020
  -68.9000000000000        -4.374730919666130E-020
  -68.7100000000000        -1.035859091491414E-019
  -68.5200000000000        -1.302250355916197E-019
  -68.3300000000000        -1.132084688541255E-019
  -68.1400000000000        -5.456887044908697E-020
  -67.9500000000000         3.159657021493329E-020
  -67.7600000000000         1.230581609247073E-019
  -67.5700000000000         1.957583424704868E-019
  -67.3800000000000         2.306662649611752E-019
  -67.1900000000000         2.192027810480301E-019
  -67.0000000000000         1.656709390710642E-019
  -66.8100000000000         8.599054293597341E-020
  -66.6200000000000         3.099800985252953E-021
  -66.4300000000000        -5.965140043641740E-020
  -66.2400000000000        -8.520959120940986E-020
  -66.0500000000000        -6.768694306855275E-020
  -65.8600000000000        -1.398103079316166E-020
  -65.6700000000000         5.832323153895623E-020
  -65.4800000000000         1.261565788314984E-019
  -65.2900000000000         1.677572593140199E-019
  -65.1000000000000         1.690755442008063E-019
  -64.9100000000000         1.279300820695344E-019
  -64.7200000000000         5.470960382003854E-020
  -64.5300000000000        -3.058499938416184E-020
  -64.3400000000000        -1.041036366389958E-019
  -64.1500000000000        -1.450471159206999E-019
  -63.9600000000000        -1.417036223762485E-019
  -63.7700000000000        -9.486661751907556E-020
  -63.5800000000000        -1.763645522349784E-020
  -63.3900000000000         6.834030096863156E-020
  -63.2000000000000         1.391009059308611E-019
  -63.0100000000000         1.752533596006627E-019
  -62.8200000000000         1.675200822972082E-019
  -62.6300000000000         1.193351963542372E-019
  -62.4400000000000         4.575352968541250E-020
  -62.2500000000000        -3.099962648717245E-020
  -62.0600000000000        -8.803955134252874E-020
  -61.8700000000000        -1.085045500689040E-019
  -61.6800000000000        -8.647417597437849E-020
  -61.4900000000000        -2.869782529049702E-020
  -61.3000000000000         4.736946644407243E-020
  -61.1100000000000         1.186561371258300E-019
  -60.9200000000000         1.632102860531816E-019
  -60.7300000000000         1.666235935509927E-019
  -60.5400000000000         1.262741853511774E-019
  -60.3500000000000         5.215672823372550E-020
  -60.1600000000000        -3.593676871177701E-020
  -59.9700000000000        -1.140625761014623E-019
  -59.7800000000000        -1.609602255596652E-019
  -59.5900000000000        -1.641035481962721E-019
  -59.4000000000000        -1.232275691592027E-019
  -59.2100000000000        -5.032238443278939E-020
  -59.0200000000000         3.389575350609270E-020
  -58.8300000000000         1.060099761766424E-019
  -58.6400000000000         1.466772308115215E-019
  -58.4500000000000         1.461863187536968E-019
  -58.2600000000000         1.071872603278806E-019
  -58.0700000000000         4.380373775980644E-020
  -57.8800000000000        -2.260453074351138E-020
  -57.6900000000000        -6.978646219572864E-020
  -57.5000000000000        -8.119706703521550E-020
  -57.3100000000000        -5.092347669395495E-020
  -57.1200000000000         1.449634990510151E-020
  -56.9300000000000         9.789529414628945E-020
  -56.7400000000000         1.764158379202945E-019
  -56.5500000000000         2.281364196706651E-019
  -56.3600000000000         2.384609459351203E-019
  -56.1700000000000         2.044087019059828E-019
  -55.9800000000000         1.355467263349560E-019
  -55.7900000000000         5.128217873751446E-020
  -55.6000000000000        -2.470624798788089E-020
  -55.4100000000000        -7.128389493889482E-020
  -55.2200000000000        -7.594600158251551E-020
  -55.0300000000000        -3.841110570847233E-020
  -54.8400000000000         2.931624853227929E-020
  -54.6500000000000         1.064301086286656E-019
  -54.4600000000000         1.693486229418025E-019
  -54.2700000000000         1.985417522195930E-019
  -54.0800000000000         1.841887593441824E-019
  -53.8900000000000         1.290259820238386E-019
  -53.7000000000000         4.755367091609791E-020
  -53.5100000000000        -3.817444996659734E-020
  -53.3200000000000        -1.049585659504692E-019
  -53.1300000000000        -1.351916117975203E-019
  -52.9400000000000        -1.219637328701638E-019
  -52.7500000000000        -7.104318120511109E-020
  -52.5600000000000         8.425133074205484E-022
  -52.3700000000000         7.092211982570936E-020
  -52.1800000000000         1.170611874259578E-019
  -51.9900000000000         1.242649857200351E-019
  -51.8000000000000         8.911332711235999E-020
  -51.6100000000000         2.083405220529405E-020
  -51.4200000000000        -6.130649816310249E-020
  -51.2300000000000        -1.335499568318001E-019
  -51.0400000000000        -1.745270525229535E-019
  -50.8500000000000        -1.714766985749612E-019
  -50.6600000000000        -1.239927767197427E-019
  -50.4700000000000        -4.420462258177959E-020
  -50.2800000000000         4.666550369710914E-020
  -50.0900000000000         1.243713169042472E-019
  -49.9000000000000         1.685801251424074E-019
  -49.7100000000000         1.686727832393248E-019
  -49.5200000000000         1.267319223877001E-019
  -49.3300000000000         5.685884272680380E-020
  -49.1400000000000        -1.897954310473087E-020
  -48.9500000000000        -7.736927120961062E-020
  -48.7600000000000        -1.002721705001614E-019
  -48.5700000000000        -8.027257634333532E-020
  -48.3800000000000        -2.272393701002883E-020
  -48.1900000000000         5.582663608947536E-020
  -48.0000000000000         1.324733871607046E-019
  -47.8100000000000         1.846359252362958E-019
  -47.6200000000000         1.966477346889955E-019
  -47.4300000000000         1.643383519003477E-019
  -47.2400000000000         9.628493994083344E-020
  -47.0500000000000         1.137423638083547E-020
  -46.8600000000000        -6.661962378359467E-020
  -46.6700000000000        -1.158758641670677E-019
  -46.4800000000000        -1.228098848068829E-019
  -46.2900000000000        -8.597873689270759E-020
  -46.1000000000000        -1.647401382407949E-020
  -45.9100000000000         6.531538261197041E-020
  -45.7200000000000         1.356312869975732E-019
  -45.5300000000000         1.742403307718154E-019
  -45.3400000000000         1.702881425948008E-019
  -45.1500000000000         1.254143678929167E-019
  -44.9600000000000         5.323100098502145E-020
  -44.7700000000000        -2.467463481301287E-020
  -44.5800000000000        -8.504507102083855E-020
  -44.3900000000000        -1.097354818571239E-019
  -44.2000000000000        -9.100987370162175E-020
  -44.0100000000000        -3.381785398222097E-020
  -43.8200000000000         4.560857893201575E-020
  -43.6300000000000         1.244345733866491E-019
  -43.4400000000000         1.798240951158619E-019
  -43.2500000000000         1.955492205021414E-019
  -43.0600000000000         1.666886363775819E-019
  -42.8700000000000         1.010530067669966E-019
  -42.6800000000000         1.692808336523746E-020
  -42.4900000000000        -6.220380701048082E-020
  -42.3000000000000        -1.144298071724565E-019
  -42.1100000000000        -1.257005883223648E-019
  -41.9200000000000        -9.383457093837605E-020
  -41.7300000000000        -2.907906203599519E-020
  -41.5400000000000         4.892929438012749E-020
  -41.3500000000000         1.169207608842394E-019
  -41.1600000000000         1.547931541958338E-019
  -40.9700000000000         1.514789614972922E-019
  -40.7800000000000         1.081701617080284E-019
  -40.5900000000000         3.796074011789995E-020
  -40.4000000000000        -3.798845247205974E-020
  -40.2100000000000        -9.664397654298477E-020
  -40.0200000000000        -1.198489603449128E-019
  -39.8300000000000        -9.966396096099917E-020
  -39.6400000000000        -4.074701980234047E-020
  -39.4500000000000         4.092144920905329E-020
  -39.2600000000000         1.226060419316752E-019
  -39.0700000000000         1.813596603106848E-019
  -38.8800000000000         2.006500002780419E-019
  -38.6900000000000         1.751453125747320E-019
  -38.5000000000000         1.122634856641837E-019
  -38.3100000000000         3.002726318779923E-020
  -38.1200000000000        -4.815426651303106E-020
  -37.9300000000000        -1.002594429727632E-019
  -37.7400000000000        -1.120117534961299E-019
  -37.5500000000000        -8.097580633217648E-020
  -37.3600000000000        -1.720951139583923E-020
  -37.1700000000000         5.970651981021046E-020
  -36.9800000000000         1.263927807657412E-019
  -36.7900000000000         1.624858134903802E-019
  -36.6000000000000         1.565702210641059E-019
  -36.4100000000000         1.095094910146586E-019
  -36.2200000000000         3.420851504100201E-020
  -36.0300000000000        -4.812620635970702E-020
  -35.8400000000000        -1.141444805010478E-019
  -35.6500000000000        -1.451377236196990E-019
  -35.4600000000000        -1.324752330690862E-019
  -35.2700000000000        -8.010734175075669E-020
  -35.0800000000000        -3.407253201282198E-021
  -34.8900000000000         7.530939737429920E-020
  -34.7000000000000         1.332826790413456E-019
  -34.5100000000000         1.539357290746977E-019
  -34.3200000000000         1.317068262403463E-019
  -34.1300000000000         7.368135820435746E-020
  -33.9400000000000        -2.455636522414528E-021
  -33.7500000000000        -7.355953978830720E-020
  -33.5600000000000        -1.177720224264305E-019
  -33.3700000000000        -1.209140872453615E-019
  -33.1800000000000        -8.066487070385222E-020
  -32.9900000000000        -7.306166070432131E-021
  -32.8000000000000         7.918838326102986E-020
  -32.6100000000000         1.548774609298498E-019
  -32.4200000000000         1.987320796836544E-019
  -32.2300000000000         1.986815503156363E-019
  -32.0400000000000         1.550792495799916E-019
  -31.8500000000000         8.058811930218281E-020
  -31.6600000000000        -3.481329217666486E-021
  -31.4700000000000        -7.332374332426728E-020
  -31.2800000000000        -1.095038014431236E-019
  -31.0900000000000        -1.025446007807311E-019
  -30.9000000000000        -5.561786759616690E-020
  -30.7100000000000         1.644406980746234E-020
  -30.5200000000000         9.152259588136666E-020
  -30.3300000000000         1.466945220072049E-019
  -30.1400000000000         1.649314083294624E-019
  -29.9500000000000         1.400697010775969E-019
  -29.7600000000000         7.861412256244868E-020
  -29.5700000000000        -2.141335567646968E-021
  -29.3800000000000        -7.912569136996838E-020
  -29.1900000000000        -1.301851258687259E-019
  -29.0000000000000        -1.405231458233457E-019
  -28.8100000000000        -1.070213373597220E-019
  -28.6200000000000        -3.918274829180412E-020
  -28.4300000000000         4.358590013603757E-020
  -28.2400000000000         1.175745375693879E-019
  -28.0500000000000         1.616321896687277E-019
  -27.8600000000000         1.632987984057593E-019
  -27.6700000000000         1.224231562044918E-019
  -27.4800000000000         5.121455437047675E-020
  -27.2900000000000        -2.928745132218773E-020
  -27.1000000000000        -9.530189349199194E-020
  -26.9100000000000        -1.271906368043140E-019
  -26.7200000000000        -1.151454772914163E-019
  -26.5300000000000        -6.203147562239268E-020
  -26.3400000000000         1.743836907023840E-020
  -26.1500000000000         1.009599221733467E-019
  -25.9600000000000         1.650924955549685E-019
  -25.7700000000000         1.920365576565937E-019
  -25.5800000000000         1.747642074345376E-019
  -25.3900000000000         1.190123840471719E-019
  -25.2000000000000         4.156479606744369E-020
  -25.0100000000000        -3.466985153434825E-020
  -24.8200000000000        -8.734592933069910E-020
  -24.6300000000000        -1.011893386258576E-019
  -24.4400000000000        -7.243739777128632E-020
  -24.2500000000000        -9.923677408061489E-021
  -24.0600000000000         6.750603792213132E-020
  -23.8700000000000         1.364969611031523E-019
  -23.6800000000000         1.760089955748639E-019
  -23.4900000000000         1.734745992024137E-019
  -23.3000000000000         1.284949964292726E-019
  -23.1100000000000         5.299583973078732E-020
  -22.9200000000000        -3.220228722491642E-020
  -22.7300000000000        -1.033966083752297E-019
  -22.5400000000000        -1.408459669424835E-019
  -22.3500000000000        -1.344579742524419E-019
  -22.1600000000000        -8.667490942585529E-020
  -21.9700000000000        -1.172993979890026E-020
  -21.7800000000000         6.850494968118099E-020
  -21.5900000000000         1.308755049630165E-019
  -21.4000000000000         1.576663216400352E-019
  -21.2100000000000         1.417385867189710E-019
  -21.0200000000000         8.859042328553010E-020
  -20.8300000000000         1.473518659863735E-020
  -20.6400000000000        -5.713673910119739E-020
  -20.4500000000000        -1.048075730608127E-019
  -20.2600000000000        -1.130565811693923E-019
  -20.0700000000000        -7.815760850039111E-020
  -19.8800000000000        -9.038953541518648E-021
  -19.6900000000000         7.523370534002245E-020
  -19.5000000000000         1.509238533587380E-019
  -19.3100000000000         1.964593991967005E-019
  -19.1200000000000         1.986602949919186E-019
  -18.9300000000000         1.565564587600731E-019
  -18.7400000000000         8.168812904163106E-020
  -18.5500000000000        -5.203188035461889E-021
  -18.3600000000000        -8.013864339077290E-020
  -18.1700000000000        -1.227934039645143E-019
  -17.9800000000000        -1.223166560507497E-019
  -17.7900000000000        -8.039367982868972E-020
  -17.6000000000000        -1.066778690787964E-020
  -17.4100000000000         6.530077109855270E-020
  -17.2200000000000         1.243577954086914E-019
  -17.0300000000000         1.485211213545500E-019
  -16.8400000000000         1.302268278383042E-019
  -16.6500000000000         7.453550289772081E-020
  -16.4600000000000        -2.341538245027899E-021
  -16.2700000000000        -7.777065990174079E-020
  -16.0800000000000        -1.293078781180370E-019
  -15.8900000000000        -1.412721328741048E-019
  -15.7000000000000        -1.093648431021764E-019
  -15.5100000000000        -4.198787116754854E-020
  -15.3200000000000         4.212597678771646E-020
  -15.1300000000000         1.192819475656539E-019
  -14.9400000000000         1.676337783430298E-019
  -14.7500000000000         1.734642518148091E-019
  -14.5600000000000         1.351238961319747E-019
  -14.3700000000000         6.349583459208322E-020
  -14.1800000000000        -2.114368387835614E-020
  -13.9900000000000        -9.496283412361208E-020
  -13.8000000000000        -1.374263299955309E-019
  -13.6100000000000        -1.371835387795327E-019
  -13.4200000000000        -9.528904955608221E-020
  -13.2300000000000        -2.482228445988883E-020
  -13.0400000000000         5.298190810538239E-020
  -12.8500000000000         1.149633230132989E-019
  -12.6600000000000         1.428109770379691E-019
  -12.4700000000000         1.284103206722810E-019
  -12.2800000000000         7.621146941134951E-020
  -12.0900000000000         1.936188909263161E-021
  -11.9000000000000        -7.199585987468456E-020
  -11.7100000000000        -1.229924075695758E-019
  -11.5200000000000        -1.348732149043177E-019
  -11.3300000000000        -1.026048276715619E-019
  -11.1400000000000        -3.380989511594644E-020
  -10.9500000000000         5.339163299044537E-020
  -10.7600000000000         1.355871334488455E-019
  -10.5700000000000         1.908116452733840E-019
  -10.3800000000000         2.048648439979623E-019
  -10.1900000000000         1.753691308790846E-019
  -10.0000000000000         1.123928917000866E-019
  -9.81000000000000         3.546391507394969E-020
  -9.62000000000000        -3.215303003542375E-020
  -9.42999999999999        -7.024825644121740E-020
  -9.23999999999999        -6.755501395785325E-020
  -9.05000000000000        -2.502260191369834E-020
  -8.86000000000000         4.447814541250673E-020
  -8.67000000000000         1.199344335646241E-019
  -8.48000000000000         1.783578586785878E-019
  -8.28999999999999         2.015394729381314E-019
  -8.09999999999999         1.814195026206631E-019
  -7.91000000000000         1.225001701287445E-019
  -7.72000000000000         4.059403933930231E-020
  -7.53000000000000        -4.172892867606346E-020
  -7.34000000000000        -1.016706099380478E-019
  -7.15000000000001        -1.228134407925704E-019
  -6.95999999999999        -9.989251098704656E-020
  -6.77000000000000        -4.034814436221339E-020
  -6.58000000000000         3.779437715151625E-020
  -6.39000000000000         1.111111813398815E-019
  -6.20000000000000         1.575373692156779E-019
  -6.01000000000001         1.627409645754688E-019
  -5.81999999999999         1.242631853776023E-019
  -5.63000000000000         5.221915846976730E-020
  -5.44000000000000        -3.364674569005232E-020
  -5.25000000000000        -1.096929602900769E-019
  -5.06000000000000        -1.552292118756477E-019
  -4.87000000000000        -1.584884072840914E-019
  -4.67999999999999        -1.199892910016952E-019
  -4.48999999999999        -5.231954132764816E-020
  -4.30000000000000         2.359136543804647E-020
  -4.11000000000000         8.462425000547862E-020
  -3.92000000000000         1.122611054858215E-019
  -3.73000000000000         9.804238509730334E-020
  -3.53999999999999         4.610044031871257E-020
  -3.34999999999999        -2.797756117319024E-020
  -3.16000000000000        -1.016388592691107E-019
  -2.97000000000000        -1.519102780812766E-019
  -2.78000000000000        -1.621002850705635E-019
  -2.59000000000000        -1.267095416486945E-019
  -2.40000000000001        -5.312062504703030E-020
  -2.20999999999999         4.042747999215271E-020
  -2.02000000000000         1.299974230685208E-019
  -1.83000000000000         1.927553488133465E-019
  -1.64000000000000         2.134535583446655E-019
  -1.45000000000000         1.887228130081897E-019
  -1.26000000000001         1.279346594056581E-019
  -1.06999999999999         5.038612660731208E-020
 -0.879999999999995        -2.037315231375536E-020
 -0.689999999999998        -6.341906039656278E-020
 -0.500000000000000        -6.653275673114374E-020
 -0.310000000000002        -2.971317695509715E-020
 -0.120000000000005         3.489432624661408E-020
  7.000000000000739E-002    1.066220752713450E-019
  0.260000000000005         1.623918064679916E-019
  0.450000000000003         1.835305655030490E-019
  0.640000000000001         1.613089509276935E-019
  0.829999999999998         9.959359755158944E-020
   1.02000000000000         1.384143556539874E-020
   1.21000000000001        -7.327869590457394E-020
   1.40000000000001        -1.383742255340068E-019
   1.59000000000000        -1.640493353020782E-019
   1.78000000000000        -1.439082428763893E-019
   1.97000000000000        -8.438732532175944E-020
   2.16000000000000        -2.884276498043308E-021
   2.34999999999999         7.726874093645757E-020
   2.54000000000001         1.335244006892785E-019
   2.73000000000000         1.505826844357870E-019
   2.92000000000000         1.247299214344282E-019
   3.11000000000000         6.480912857432820E-020
   3.30000000000000        -1.044724544713043E-020
   3.48999999999999        -7.794180321704571E-020
   3.68000000000001        -1.169910004944883E-019
   3.87000000000000        -1.153931142497262E-019
   4.06000000000000        -7.302278428113466E-020
   4.25000000000000        -1.902876237880201E-021
   4.44000000000000         7.727357460164292E-020
   4.63000000000000         1.411643792303771E-019
   4.82000000000001         1.705924340965519E-019
   5.01000000000001         1.561705566033554E-019
   5.20000000000000         1.010993824381672E-019
   5.39000000000000         2.032215634151324E-020
   5.58000000000000        -6.372298393694516E-020
   5.77000000000000        -1.275279296585295E-019
   5.96000000000001        -1.532617242150819E-019
   6.15000000000001        -1.338893357940645E-019
   6.34000000000000        -7.517839591797342E-020
   6.53000000000000         5.991530185915843E-021