  -105.000000000000         2.850598482113078E-020
  -104.810000000000         6.362247730838900E-020
  -104.620000000000         5.376100063166007E-020
  -104.430000000000         1.758411456092825E-020
  -104.240000000000        -3.362626048188202E-021
  -104.050000000000         1.542130136075221E-020
  -103.860000000000         5.812834437741118E-020
  -103.670000000000         8.414944543025873E-020
  -103.480000000000         6.742478220835650E-020
  -103.290000000000         2.195772319110304E-020
  -103.100000000000        -1.098252508483993E-020
  -102.910000000000        -1.831647305722904E-021
  -102.720000000000         3.931925695688150E-020
  -102.530000000000         7.248440826668653E-020
  -102.340000000000         6.592683863119995E-020
  -102.150000000000         2.629085006447196E-020
  -101.960000000000        -7.968044152077250E-021
  -101.770000000000        -3.515665559370866E-021
  -101.580000000000         3.585243958567111E-020
  -101.390000000000         7.271305427145141E-020
  -101.200000000000         7.171266522253100E-020
  -101.010000000000         3.335317589545580E-020
  -100.820000000000        -6.455824272482556E-021
  -100.630000000000        -1.067697420269753E-020
  -100.440000000000         2.349487866927777E-020
  -100.250000000000         6.197451561811882E-020
  -100.060000000000         6.638502173533677E-020
  -99.8700000000000         3.081809871633097E-020
  -99.6800000000000        -1.234736620847631E-020
  -99.4900000000000        -2.319792663726603E-020
  -99.3000000000000         7.675819982174145E-021
  -99.1100000000000         5.015983955069035E-020
  -98.9200000000000         6.325092991761131E-020
  -98.7300000000000         3.403494690992460E-020
  -98.5400000000000        -1.013840746518910E-020
  -98.3500000000000        -2.781364725423906E-020
  -98.1600000000000        -2.912896061818962E-021
  -97.9700000000000         4.009290283341142E-020
  -97.7800000000000         5.972584311539887E-020
  -97.5900000000000         3.721242522277706E-020
  -97.4000000000000        -5.614450557475560E-021
  -97.2100000000000        -2.735004526179224E-020
  -97.0200000000000        -6.863887537756485E-021
  -96.8300000000000         3.617307755164294E-020
  -96.6400000000000         5.974839484840204E-020
  -96.4500000000000         3.939832663429468E-020
  -96.2600000000000        -8.461018893297153E-021
  -96.0700000000000        -4.196885851699478E-020
  -95.8800000000000        -3.330138039223369E-020
  -95.6900000000000         5.425894068133735E-021
  -95.5000000000000         3.447519631896764E-020
  -95.3100000000000         2.511417686606839E-020
  -95.1200000000000        -1.252970687502761E-020
  -94.9300000000000        -3.913756216315196E-020
  -94.7400000000000        -2.419115496554012E-020
  -94.5500000000000         2.405723536019083E-020
  -94.3600000000000         6.540912283126912E-020
  -94.1700000000000         6.506212472755576E-020
  -93.9800000000000         2.606031989790554E-020
  -93.7900000000000        -1.399362736229384E-020
  -93.6000000000000        -1.880702221954022E-020
  -93.4100000000000         1.235685643166974E-020
  -93.2200000000000         4.465276264343655E-020
  -93.0300000000000         4.171175857316497E-020
  -92.8400000000000         1.119229028643413E-021
  -92.6500000000000        -4.262914780006384E-020
  -92.4600000000000        -5.055153534978776E-020
  -92.2700000000000        -1.608438758488554E-020
  -92.0800000000000         2.872607066773132E-020
  -91.8900000000000         4.366994832488401E-020
  -91.7000000000000         1.842221871915620E-020
  -91.5100000000000        -1.809860841034417E-020
  -91.3200000000000        -2.592645815253507E-020
  -91.1300000000000         7.215618312589442E-021
  -90.9400000000000         5.367622874978661E-020
  -90.7500000000000         7.184037703275060E-020
  -90.5600000000000         4.555764007142371E-020
  -90.3700000000000        -5.434558290501467E-022
  -90.1800000000000        -2.445104297107770E-020
  -89.9900000000000        -6.546113016637824E-021
  -89.8000000000000         3.220752799943262E-020
  -89.6100000000000         5.096593135586201E-020
  -89.4200000000000         2.867664919875832E-020
  -89.2300000000000        -1.534120992784057E-020
  -89.0400000000000        -3.966695651901350E-020
  -88.8500000000000        -2.047683565064307E-020
  -88.6600000000000         2.528339095196966E-020
  -88.4700000000000         5.551952041998117E-020
  -88.2800000000000         4.268789156429181E-020
  -88.0900000000000        -1.858972092466227E-022
  -87.9000000000000        -3.196951102032971E-020
  -87.7100000000000        -2.249354147184758E-020
  -87.5200000000000         1.899504861031654E-020
  -87.3300000000000         5.300910231240691E-020
  -87.1400000000000         4.770068306342371E-020
  -86.9500000000000         9.204494162330477E-021
  -86.7600000000000        -2.449965145779827E-020
  -86.5700000000000        -2.027814740994880E-020
  -86.3800000000000         1.805148934419075E-020
  -86.1900000000000         5.301745557906846E-020
  -86.0000000000000         4.918931937309909E-020
  -85.8100000000000         7.239364822333088E-021
  -85.6200000000000        -3.618625111938744E-020
  -85.4300000000000        -4.275016718428055E-020
  -85.2400000000000        -8.284041526745603E-021
  -85.0500000000000         3.381057262047507E-020
  -84.8600000000000         4.471868553221638E-020
  -84.6700000000000         1.717363061566784E-020
  -84.4800000000000        -1.805519602013203E-020
  -84.2900000000000        -2.227473759111107E-020
  -84.1000000000000         1.333444321983152E-020
  -83.9100000000000         5.853967293762466E-020
  -83.7200000000000         7.241408634949423E-020
  -83.5300000000000         4.221265997840231E-020
  -83.3400000000000        -4.355768906349160E-021
  -83.1500000000000        -2.524456328656865E-020
  -82.9600000000000        -3.770709976439937E-021
  -82.7700000000000         3.588587423356372E-020
  -82.5800000000000         5.215086451890098E-020
  -82.3900000000000         2.610000553810661E-020
  -82.2000000000000        -2.015158623996365E-020
  -82.0100000000000        -4.427686888250931E-020
  -81.8200000000000        -2.390898109297547E-020
  -81.6300000000000         2.212351442344183E-020
  -81.4400000000000         5.165802921516932E-020
  -81.2500000000000         3.905641730991530E-020
  -81.0600000000000        -9.242810155643366E-022
  -80.8700000000000        -2.791247996039336E-020
  -80.6800000000000        -1.510095580942050E-020
  -80.4900000000000         2.473896458878389E-020
  -80.3000000000000         5.136893896616951E-020
  -80.1100000000000         3.578090924518530E-020
  -79.9200000000000        -1.152161650347748E-020
  -79.7300000000000        -4.973896152195092E-020
  -79.5400000000000        -4.581248145618731E-020
  -79.3500000000000        -5.163183820070491E-021
  -79.1600000000000         3.401590842382580E-020
  -78.9700000000000         3.733955519405746E-020
  -78.7800000000000         6.708497852160713E-021
  -78.5900000000000        -2.229171150559179E-020
  -78.4000000000000        -1.542034297810798E-020
  -78.2100000000000         2.649096683008123E-020
  -78.0200000000000         6.757886954101298E-020
  -77.8300000000000         7.085180534331395E-020
  -77.6400000000000         3.358986563466928E-020
  -77.4500000000000        -9.662907101975761E-021
  -77.2600000000000        -1.956505369781316E-020
  -77.0700000000000         1.090261703462216E-020
  -76.8800000000000         5.001879823621985E-020
  -76.6900000000000         5.774232027520962E-020
  -76.5000000000000         2.396034399591629E-020
  -76.3100000000000        -2.189951317731798E-020
  -76.1200000000000        -3.897878951434289E-020
  -75.9300000000000        -1.391505255296780E-020
  -75.7400000000000         2.656706952028278E-020
  -75.5500000000000         4.138011144847364E-020
  -75.3600000000000         1.453325294076598E-020
  -75.1700000000000        -2.938240855745771E-020
  -74.9800000000000        -4.854346202587162E-020
  -74.7900000000000        -2.384216857730922E-020
  -74.6000000000000         2.271179575373312E-020
  -74.4100000000000         4.874019273845744E-020
  -74.2200000000000         3.164146121051725E-020
  -74.0300000000000        -1.010419041283329E-020
  -73.8400000000000        -3.473308574892508E-020
  -73.6500000000000        -1.711611137357274E-020
  -73.4600000000000         2.725141879902541E-020
  -73.2700000000000         5.705656631018999E-020
  -73.0800000000000         4.462181719764243E-020
  -72.8900000000000         2.303976150860446E-021
  -72.7000000000000        -2.937493711279046E-020
  -72.5100000000000        -2.046963262811574E-020
  -72.3200000000000         1.984180035260108E-020
  -72.1300000000000         5.218099449401451E-020
  -71.9400000000000         4.481614816567946E-020
  -71.7500000000000         4.255549250137481E-021
  -71.5600000000000        -3.070101494829050E-020
  -71.3700000000000        -2.587973629501731E-020
  -71.1800000000000         1.556310754357240E-020
  -70.9900000000000         5.587277719239746E-020
  -70.8000000000000         5.828516858104906E-020
  -70.6100000000000         2.157799509706171E-020
  -70.4200000000000        -1.922950315587632E-020
  -70.2300000000000        -2.650943974904499E-020
  -70.0400000000000         4.190245803985160E-021
  -69.8500000000000         4.031836113014549E-020
  -69.6600000000000         4.399946342445890E-020
  -69.4700000000000         8.842832181429595E-021
  -69.2800000000000        -3.342350938325845E-020
  -69.0900000000000        -4.295510653345487E-020
  -68.9000000000000        -9.816270347973906E-021
  -68.7100000000000         3.630961289561116E-020
  -68.5200000000000         5.404692335381158E-020
  -68.3300000000000         2.931002307403578E-020
  -68.1400000000000        -1.177243619557293E-020
  -67.9500000000000        -2.825284188445702E-020
  -67.7600000000000        -3.779638400785356E-021
  -67.5700000000000         3.767489793936365E-020
  -67.3800000000000         5.484621631132394E-020
  -67.1900000000000         2.892423833135227E-020
  -67.0000000000000        -1.807151548702813E-020
  -66.8100000000000        -4.393443189123902E-020
  -66.6200000000000        -2.625250374767474E-020
  -66.4300000000000         1.643438861801253E-020
  -66.2400000000000         4.250365155277203E-020
  -66.0500000000000         2.711338176886779E-020
  -65.8600000000000        -1.399019680166268E-020
  -65.6700000000000        -3.950183544752712E-020
  -65.4800000000000        -2.213708594131518E-020
  -65.2900000000000         2.500504022690183E-020
  -65.1000000000000         6.048114668695701E-020
  -64.9100000000000         5.350839103817681E-020
  -64.7200000000000         1.283371079304432E-020
  -64.5300000000000        -2.192969736135144E-020
  -64.3400000000000        -1.815898539512334E-020
  -64.1500000000000         1.882101146751869E-020
  -63.9600000000000         5.116140729763381E-020
  -63.7700000000000         4.505868739286897E-020
  -63.5800000000000         3.475255466428591E-021
  -63.3900000000000        -3.632166932304245E-020
  -63.2000000000000        -3.809856279368348E-020
  -63.0100000000000        -1.135939837336830E-021
  -62.8200000000000         3.906288843706302E-020
  -62.6300000000000         4.451832792394745E-020
  -62.4400000000000         1.080709599879646E-020
  -62.2500000000000        -2.896044649281794E-020
  -62.0600000000000        -3.596794320703910E-020
  -61.8700000000000        -2.872536941838670E-021
  -61.6800000000000         3.922491337277768E-020
  -61.4900000000000         5.064545206604456E-020
  -61.3000000000000         2.119385438132140E-020
  -61.1100000000000        -2.003001759601494E-020
  -60.9200000000000        -3.246286897169167E-020
  -60.7300000000000        -2.969840708967910E-021
  -60.5400000000000         4.136122839913859E-020
  -60.3500000000000         5.881635679393240E-020
  -60.1600000000000         3.271135054824563E-020
  -59.9700000000000        -1.269582459801714E-020
  -59.7800000000000        -3.523196272606325E-020
  -59.5900000000000        -1.482126480028946E-020
  -59.4000000000000         2.765338779539249E-020
  -59.2100000000000         5.055340521822078E-020
  -59.0200000000000         3.140789213347038E-020
  -58.8300000000000        -1.154375863896032E-020
  -58.6400000000000        -3.674416182064329E-020
  -58.4500000000000        -1.906972481494335E-020
  -58.2600000000000         2.600200483319615E-020
  -58.0700000000000         5.692998357547368E-020
  -57.8800000000000         4.551381522754233E-020
  -57.6900000000000         3.553572642994430E-021
  -57.5000000000000        -2.865097404236475E-020
  -57.3100000000000        -2.090740838258031E-020
  -57.1200000000000         1.805734360431735E-020
  -56.9300000000000         4.907182961517668E-020
  -56.7400000000000         4.015292566278399E-020
  -56.5500000000000        -2.685858937363044E-021
  -56.3600000000000        -4.093525306854998E-020
  -56.1700000000000        -4.017900718529778E-020
  -55.9800000000000        -2.797092668200214E-021
  -55.7900000000000         3.447247640221612E-020
  -55.6000000000000         3.574204534214965E-020
  -55.4100000000000         2.735556779759640E-022
  -55.2200000000000        -3.689830267426407E-020
  -55.0300000000000        -3.861537408025332E-020
  -54.8400000000000        -1.390467154906261E-021
  -54.6500000000000         4.088712264800976E-020
  -54.4600000000000         4.899871111573714E-020
  -54.2700000000000         1.570208832385421E-020
  -54.0800000000000        -2.729664031394279E-020
  -53.8900000000000        -3.938716594739976E-020
  -53.7000000000000        -9.492862362860756E-021
  -53.5100000000000         3.369270900331317E-020
  -53.3200000000000         4.935761201374447E-020
  -53.1300000000000         2.370009885801341E-020
  -52.9400000000000        -1.680925004849340E-020
  -52.7500000000000        -3.072408032856738E-020
  -52.5600000000000        -1.364360028458985E-021
  -52.3700000000000         4.695415999438227E-020
  -52.1800000000000         7.173618018035730E-020
  -51.9900000000000         5.241108193433529E-020
  -51.8000000000000         9.496681973426692E-021
  -51.6100000000000        -1.535608720233772E-020
  -51.4200000000000         7.110643431450162E-022
  -51.2300000000000         4.000054012196308E-020
  -51.0400000000000         6.139836041300535E-020
  -50.8500000000000         3.998972470241162E-020
  -50.6600000000000        -8.764760680890467E-021
  -50.4700000000000        -4.344987583051031E-020
  -50.2800000000000        -3.594041284477700E-020
  -50.0900000000000         2.043139987573025E-021
  -49.9000000000000         3.041532485854222E-020
  -49.7100000000000         1.923456842098630E-020
  -49.5200000000000        -2.255027765599344E-020
  -49.3300000000000        -5.557566173850846E-020
  -49.1400000000000        -4.770612818608353E-020
  -48.9500000000000        -4.913556910612952E-021
  -48.7600000000000         3.415541107935098E-020
  -48.5700000000000         3.482143263197338E-020
  -48.3800000000000        -7.213453763345995E-022
  -48.1900000000000        -3.563911602413936E-020
  -48.0000000000000        -3.369330673259986E-020
  -47.8100000000000         6.133061506959280E-021
  -47.6200000000000         4.862540622899125E-020
  -47.4300000000000         5.590252072360011E-020
  -47.2400000000000         2.354051851507642E-020
  -47.0500000000000        -1.524130436174770E-020
  -46.8600000000000        -2.137005874852948E-020
  -46.6700000000000         1.265866879639674E-020
  -46.4800000000000         5.547191851828512E-020
  -46.2900000000000         6.659694093001677E-020
  -46.1000000000000         3.490364952027574E-020
  -45.9100000000000        -1.091442652720812E-020
  -45.7200000000000        -2.973066056712905E-020
  -45.5300000000000        -7.058444353940975E-021
  -45.3400000000000         3.147938440066035E-020
  -45.1500000000000         4.509175311680086E-020
  -44.9600000000000         1.725102804313220E-020
  -44.7700000000000        -2.816885570866803E-020
  -44.5800000000000        -4.952654421898348E-020
  -44.3900000000000        -2.718806762272071E-020
  -44.2000000000000         1.757498683097196E-020
  -44.0100000000000         4.264128167557159E-020
  -43.8200000000000         2.496761569997708E-020
  -43.6300000000000        -1.765119460252000E-020
  -43.4400000000000        -4.373584840399304E-020
  -43.2500000000000        -2.781847770580481E-020
  -43.0600000000000         1.523980120783628E-020
  -42.8700000000000         4.455440840702229E-020
  -42.6800000000000         3.245871290906472E-020
  -42.4900000000000        -8.853875806058792E-021
  -42.3000000000000        -3.878732576540054E-020
  -42.1100000000000        -2.702976182750101E-020
  -41.9200000000000         1.739778905925477E-020
  -41.7300000000000         5.447095574005194E-020
  -41.5400000000000         5.102093903076842E-020
  -41.3500000000000         1.209158691472161E-020
  -41.1600000000000        -2.407855430235257E-020
  -40.9700000000000        -2.261616981673761E-020
  -40.7800000000000         1.480711051248215E-020
  -40.5900000000000         5.179238671026702E-020
  -40.4000000000000         5.218139729186432E-020
  -40.2100000000000         1.472555077564316E-020
  -40.0200000000000        -2.563884891482816E-020
  -39.8300000000000        -3.111018218114438E-020
  -39.6400000000000         2.891943041990756E-021
  -39.4500000000000         4.335932153655584E-020
  -39.2600000000000         5.122517285183898E-020
  -39.0700000000000         1.864355948173850E-020
  -38.8800000000000        -2.360660314515416E-020
  -38.6900000000000        -3.562743155706737E-020
  -38.5000000000000        -6.597291387528535E-021
  -38.3100000000000         3.482879342186981E-020
  -38.1200000000000         4.786563233591417E-020
  -37.9300000000000         1.862295182218314E-020
  -37.7400000000000        -2.645322173717490E-020
  -37.5500000000000        -4.561509563823221E-020
  -37.3600000000000        -2.146599142483335E-020
  -37.1700000000000         2.261570135889712E-020
  -36.9800000000000         4.492683172693744E-020
  -36.7900000000000         2.526642713574986E-020
  -36.6000000000000        -1.592280590549270E-020
  -36.4100000000000        -3.738267562605744E-020
  -36.2200000000000        -1.690522486438757E-020
  -36.0300000000000         2.688940048943822E-020
  -35.8400000000000         5.182191168535406E-020
  -35.6500000000000         3.217142482684347E-020
  -35.4600000000000        -1.665602750850821E-020
  -35.2700000000000        -5.233796893662866E-020
  -35.0800000000000        -4.521175181290451E-020
  -34.8900000000000        -5.604659267932602E-021
  -34.7000000000000         2.690145362688837E-020
  -34.5100000000000         2.177916713221767E-020
  -34.3200000000000        -1.324921032178478E-020
  -34.1300000000000        -3.999960432655386E-020
  -33.9400000000000        -2.706175208096255E-020
  -33.7500000000000         1.926702780876384E-020
  -33.5600000000000         6.011523227994135E-020
  -33.3700000000000         6.049635047210765E-020
  -33.1800000000000         2.236033769925148E-020
  -32.9900000000000        -1.728260861146922E-020
  -32.8000000000000        -2.140213431890721E-020
  -32.6100000000000         1.217741832168333E-020
  -32.4200000000000         4.920734817976421E-020
  -32.2300000000000         5.214473870296731E-020
  -32.0400000000000         1.628734790250746E-020
  -31.8500000000000        -2.563500303522035E-020
  -31.6600000000000        -3.477712590254475E-020
  -31.4700000000000        -3.396455176820258E-021
  -31.2800000000000         3.767172534606461E-020
  -31.0900000000000         4.846273639615313E-020
  -30.9000000000000         1.813525857150124E-020
  -30.7100000000000        -2.453459386572847E-020
  -30.5200000000000        -3.853671917418175E-020
  -30.3300000000000        -9.848467203404764E-021
  -30.1400000000000         3.494101804543793E-020
  -29.9500000000000         5.369225764248410E-020
  -29.7600000000000         2.863240003452684E-020
  -29.5700000000000        -1.688654913169789E-020
  -29.3800000000000        -4.068462867916133E-020
  -29.1900000000000        -2.177951351396511E-020
  -29.0000000000000         1.998152568071215E-020
  -28.8100000000000         4.326890859284879E-020
  -28.6200000000000         2.500492877899468E-020
  -28.4300000000000        -1.751853243857126E-020
  -28.2400000000000        -4.327523544917875E-020
  -28.0500000000000        -2.694349359622701E-020
  -27.8600000000000         1.664551367632020E-020
  -27.6700000000000         4.650615217790482E-020
  -27.4800000000000         3.461605862088885E-020
  -27.2900000000000        -7.196565585740003E-021
  -27.1000000000000        -3.830578104492869E-020
  -26.9100000000000        -2.784138652243269E-020
  -26.7200000000000         1.592500502777407E-020
  -26.5300000000000         5.334848193528090E-020
  -26.3400000000000         5.092737675759876E-020
  -26.1500000000000         1.278886366887336E-020
  -25.9600000000000        -2.382662842755191E-020
  -25.7700000000000        -2.459434723587464E-020
  -25.5800000000000         8.941127380315255E-021
  -25.3900000000000         4.104875114410184E-020
  -25.2000000000000         3.651527342297685E-020
  -25.0100000000000        -4.865236925615205E-021
  -24.8200000000000        -4.716100307635684E-020
  -24.6300000000000        -5.189346616234799E-020
  -24.4400000000000        -1.448729405690892E-020
  -24.2500000000000         3.117095587316765E-020
  -24.0600000000000         4.449150369511253E-020
  -23.8700000000000         1.610097417290123E-020
  -23.6800000000000        -2.402927338729604E-020
  -23.4900000000000        -3.575823716575623E-020
  -23.3000000000000        -7.287662901523740E-021
  -23.1100000000000         3.371795845918229E-020
  -22.9200000000000         4.691657171637568E-020
  -22.7300000000000         1.827586235878844E-020
  -22.5400000000000        -2.611332598112859E-020
  -22.3500000000000        -4.469637680234258E-020
  -22.1600000000000        -2.005217323094720E-020
  -21.9700000000000         2.442785501232401E-020
  -21.7800000000000         4.675808889164763E-020
  -21.5900000000000         2.633944661778640E-020
  -21.4000000000000        -1.637520280934073E-020
  -21.2100000000000        -3.928365335445849E-020
  -21.0200000000000        -1.866074812904700E-020
  -20.8300000000000         2.829996459823853E-020
  -20.6400000000000         5.986798850595809E-020
  -20.4500000000000         4.936450065616917E-020
  -20.2600000000000         1.012909116761647E-020
  -20.0700000000000        -1.787701847851959E-020
  -19.8800000000000        -6.842235110666104E-021
  -19.6900000000000         3.195178709316709E-020
  -19.5000000000000         5.885310979737435E-020
  -19.3100000000000         4.403420688399733E-020
  -19.1200000000000        -3.374231536073155E-021
  -18.9300000000000        -4.321366161697856E-020
  -18.7400000000000        -4.193214072238272E-020
  -18.5500000000000        -4.128389225911135E-021
  -18.3600000000000         3.203904957937566E-020
  -18.1700000000000         3.116987654783289E-020
  -17.9800000000000        -5.933091298295878E-021
  -17.7900000000000        -4.345186989106395E-020
  -17.6000000000000        -4.507890231427853E-020
  -17.4100000000000        -8.837215349080337E-021
  -17.2200000000000         3.107568637490671E-020
  -17.0300000000000         3.715641237791565E-020
  -16.8400000000000         4.680445559890302E-021
  -16.6500000000000        -3.361140831469335E-020
  -16.4600000000000        -3.879934094136385E-020
  -16.2700000000000        -3.179652510549515E-021
  -16.0800000000000         4.198461863952933E-020
  -15.8900000000000         5.586925075147344E-020
  -15.7000000000000         2.674285138223099E-020
  -15.5100000000000        -1.691524515604333E-020
  -15.3200000000000        -3.345867102914433E-020
  -15.1300000000000        -7.549073232708988E-021
  -14.9400000000000         3.553429823254562E-020
  -14.7500000000000         5.430882283621337E-020
  -14.5600000000000         3.080505910583566E-020
  -14.3700000000000        -1.237240555658690E-020
  -14.1800000000000        -3.386270765130406E-020
  -13.9900000000000        -1.331732670138867E-020
  -13.8000000000000         2.893343544544069E-020
  -13.6100000000000         5.118567822924396E-020
  -13.4200000000000         3.028075938432731E-020
  -13.2300000000000        -1.599255455034857E-020
  -13.0400000000000        -4.549601851709554E-020
  -12.8500000000000        -3.159408369260814E-020
  -12.6600000000000         1.168399451614702E-020
  -12.4700000000000         4.307628064682815E-020
  -12.2800000000000         3.323958674385611E-020
  -12.0900000000000        -7.666357853797747E-021
  -11.9000000000000        -4.012710988864952E-020
  -11.7100000000000        -3.332234244252452E-020
  -11.5200000000000         5.351067838506102E-021
  -11.3300000000000         3.752093067613326E-020
  -11.1400000000000         3.087733311056685E-020
  -10.9500000000000        -9.517847884046260E-021
  -10.7600000000000        -4.570434535450037E-020
  -10.5700000000000        -4.290006137933421E-020
  -10.3800000000000        -2.775279170329163E-021
  -10.1900000000000         3.786523059094615E-020
  -10.0000000000000         4.184867090966565E-020
  -9.81000000000000         6.805793018717769E-021
  -9.62000000000000        -3.274991557752239E-020
  -9.42999999999999        -3.840136780621340E-020
  -9.23999999999999        -4.364426919144979E-021
  -9.05000000000000         3.728047918667264E-020
  -8.86000000000000         4.755056330117990E-020
  -8.67000000000000         1.802512585346421E-020
  -8.48000000000000        -2.102677651980198E-020
  -8.28999999999999        -2.963824705945745E-020
  -8.09999999999999         3.420123759666987E-021
  -7.91000000000000         4.951443083426974E-020
  -7.72000000000000         6.707606509810771E-020
  -7.53000000000000         4.097857338265688E-020
  -7.34000000000000        -3.189480096808395E-021
  -7.15000000000001        -2.356032354660682E-020
  -6.95999999999999        -1.803712089832490E-021
  -6.77000000000000         3.961154871560186E-020
  -6.58000000000000         5.907634202913739E-020
  -6.39000000000000         3.569133614371955E-020
  -6.20000000000000        -1.072201463784674E-020
  -6.01000000000001        -3.853921565212332E-020
  -5.81999999999999        -2.409171179843696E-020
  -5.63000000000000         1.576650606854840E-020
  -5.44000000000000         3.989150556637690E-020
  -5.25000000000000         2.235728145908181E-020
  -5.06000000000000        -2.255764932156060E-020
  -4.87000000000000        -5.382499962844077E-020
  -4.67999999999999        -4.277826721483596E-020
  -4.48999999999999        -5.892695904550364E-022
  -4.30000000000000         3.215787721602532E-020
  -4.11000000000000         2.396102239187661E-020
  -3.92000000000000        -1.768707218651105E-020
  -3.73000000000000        -5.348703894656939E-020
  -3.53999999999999        -4.973811962164911E-020
  -3.34999999999999        -1.025058392040853E-020
  -3.16000000000000         2.761979634180213E-020
  -2.97000000000000         2.890297233018115E-020
  -2.78000000000000        -5.468036861906028E-021
  -2.59000000000000        -3.957953114680146E-020
  -2.40000000000001        -3.705038065212990E-020
  -2.20999999999999         3.808299810810677E-021
  -2.02000000000000         4.782910359177454E-020
  -1.83000000000000         5.600129080975078E-020
  -1.64000000000000         2.224707941872136E-020
  -1.45000000000000        -2.103263639936269E-020
  -1.26000000000001        -3.381988111241387E-020
  -1.06999999999999        -6.270991905468985E-021
 -0.879999999999995         3.251024106637581E-020
 -0.689999999999998         4.291082262290928E-020
 -0.500000000000000         1.315385257210713E-020
 -0.310000000000002        -2.918077869736401E-020
 -0.120000000000005        -4.351119339176470E-020
  7.000000000000739E-002   -1.523885034984485E-020
  0.260000000000005         3.001766563536163E-020
  0.450000000000003         5.063610171206414E-020
  0.640000000000001         2.855645054431094E-020
  0.829999999999998        -1.357884353903863E-020
   1.02000000000000        -3.410028667234210E-020
   1.21000000000001        -1.216602288436757E-020
   1.40000000000001         3.223275426189237E-020
   1.59000000000000         5.726876784758590E-020
   1.78000000000000         3.918442427218443E-020
   1.97000000000000        -5.026174834946374E-021
   2.16000000000000        -3.385992845877655E-020
   2.34999999999999        -2.096052161477395E-020
   2.54000000000001         1.969294342230787E-020
   2.73000000000000         4.713050604067037E-020
   2.92000000000000         3.258288297449607E-020
   3.11000000000000        -1.284031796858997E-020
   3.30000000000000        -4.844562849921195E-020
   3.48999999999999        -4.250854061248754E-020
   3.68000000000001        -2.362413939591111E-021
   3.87000000000000         3.267579691957448E-020
   4.06000000000000         2.878642573409753E-020
   4.25000000000000        -1.020111700874177E-020
   4.44000000000000        -4.656414085025585E-020
   4.63000000000000        -4.467833945406511E-020
   4.82000000000001        -4.924283050366994E-021
   5.01000000000001         3.675243210448343E-020
   5.20000000000000         4.312730160768582E-020
   5.39000000000000         1.105034585759473E-020
   5.58000000000000        -2.589908670059624E-020
   5.77000000000000        -2.991951505603316E-020
   5.96000000000001         4.518812491628047E-021
   6.15000000000001         4.513404314211776E-020
   6.34000000000000         5.255650852119752E-020
   6.53000000000000         1.798899451181986E-020