  -105.000000000000        -4.897772834247354E-020
  -104.810000000000        -1.350527769709092E-019
  -104.620000000000        -1.894800455661308E-019
  -104.430000000000        -2.020246801112742E-019
  -104.240000000000        -1.741475872952638E-019
  -104.050000000000        -1.184674572268783E-019
  -103.860000000000        -5.501254231377844E-020
  -103.670000000000        -5.352285053445608E-021
  -103.480000000000         1.368475358012577E-020
  -103.290000000000        -5.118814391595093E-021
  -103.100000000000        -5.732204463223208E-020
  -102.910000000000        -1.281878482032882E-019
  -102.720000000000        -1.970481492234312E-019
  -102.530000000000        -2.433960869694765E-019
  -102.340000000000        -2.529331923622682E-019
  -102.150000000000        -2.218159813204870E-019
  -101.960000000000        -1.578680454558587E-019
  -101.770000000000        -7.840086589323396E-020
  -101.580000000000        -5.268746144777658E-021
  -101.390000000000         4.141216817496993E-020
  -101.200000000000         4.905843506538101E-020
  -101.010000000000         1.624222701757642E-020
  -100.820000000000        -4.691274935464719E-020
  -100.630000000000        -1.216780526019738E-019
  -100.440000000000        -1.861523286433975E-019
  -100.250000000000        -2.215992046280851E-019
  -100.060000000000        -2.178529142346239E-019
  -99.8700000000000        -1.762282167075808E-019
  -99.6800000000000        -1.090971823128160E-019
  -99.4900000000000        -3.626059921014033E-020
  -99.3000000000000         2.083210113746890E-020
  -99.1100000000000         4.533841597560299E-020
  -98.9200000000000         2.993807560760368E-020
  -98.7300000000000        -2.102250944339043E-020
  -98.5400000000000        -9.278392268960459E-020
  -98.3500000000000        -1.644620108025970E-019
  -98.1600000000000        -2.151197945758516E-019
  -97.9700000000000        -2.298514522310235E-019
  -97.7800000000000        -2.041067126005433E-019
  -97.5900000000000        -1.450015223472037E-019
  -97.4000000000000        -6.924034983666595E-020
  -97.2100000000000         1.741305930249326E-021
  -97.0200000000000         4.800219058536761E-020
  -96.8300000000000         5.688141546542202E-020
  -96.6400000000000         2.666474756428485E-020
  -96.4500000000000        -3.293620591469076E-020
  -96.2600000000000        -1.036330870183181E-019
  -96.0700000000000        -1.639091417887155E-019
  -95.8800000000000        -1.953081003673877E-019
  -95.6900000000000        -1.878298262790609E-019
  -95.5000000000000        -1.428589971282335E-019
  -95.3100000000000        -7.277222307552242E-020
  -95.1200000000000         2.662392174866246E-021
  -94.9300000000000         6.204408600416011E-020
  -94.7400000000000         8.857884538103302E-020
  -94.5500000000000         7.498193284702173E-020
  -94.3600000000000         2.561483213088892E-020
  -94.1700000000000        -4.476848090115074E-020
  -93.9800000000000        -1.153051921875472E-019
  -93.7900000000000        -1.650932639498151E-019
  -93.6000000000000        -1.792790263997013E-019
  -93.4100000000000        -1.533855521775005E-019
  -93.2200000000000        -9.461771769407443E-020
  -93.0300000000000        -1.976652001637950E-020
  -92.8400000000000         4.966912627751777E-020
  -92.6500000000000         9.371750245560495E-020
  -92.4600000000000         9.971580924954286E-020
  -92.2700000000000         6.596930223261663E-020
  -92.0800000000000         2.236457140144122E-021
  -91.8900000000000        -7.309604556587108E-020
  -91.7000000000000        -1.383312073880999E-019
  -91.5100000000000        -1.747339161651893E-019
  -91.3200000000000        -1.719389513041726E-019
  -91.1300000000000        -1.309235987269271E-019
  -90.9400000000000        -6.368092219291363E-020
  -90.7500000000000         1.030867524927467E-020
  -90.5600000000000         6.977668987305024E-020
  -90.3700000000000         9.787402852659592E-020
  -90.1800000000000         8.707808549293186E-020
  -89.9900000000000         4.137276271217798E-020
  -89.8000000000000        -2.492634891512606E-020
  -89.6100000000000        -9.135006994620600E-020
  -89.4200000000000        -1.372355809400860E-019
  -89.2300000000000        -1.477390221603907E-019
  -89.0400000000000        -1.181662897855519E-019
  -88.8500000000000        -5.537894693243048E-020
  -88.6600000000000         2.412364044674092E-020
  -88.4700000000000         9.888857478656143E-020
  -88.2800000000000         1.486077407273677E-019
  -88.0900000000000         1.598741352527071E-019
  -87.9000000000000         1.299460616623644E-019
  -87.7100000000000         6.745170515002703E-020
  -87.5200000000000        -1.014893017740356E-020
  -87.3300000000000        -8.160112517581668E-020
  -87.1400000000000        -1.279412739157237E-019
  -86.9500000000000        -1.378871801221256E-019
  -86.7600000000000        -1.109877346357905E-019
  -86.5700000000000        -5.762819268880680E-020
  -86.3800000000000         4.105994980332323E-021
  -86.1900000000000         5.379282061613404E-020
  -86.0000000000000         7.470432952906377E-020
  -85.8100000000000         5.875270383134521E-020
  -85.6200000000000         8.919028978175784E-021
  -85.4300000000000        -6.153584583424803E-020
  -85.2400000000000        -1.328480589478548E-019
  -85.0500000000000        -1.844242932462149E-019
  -84.8600000000000        -2.007776741887214E-019
  -84.6700000000000        -1.760196832334502E-019
  -84.4800000000000        -1.156201638203641E-019
  -84.2900000000000        -3.493170261094473E-020
  -84.1000000000000         4.510317931311698E-020
  -83.9100000000000         1.038434002686771E-019
  -83.7200000000000         1.267626217272629E-019
  -83.5300000000000         1.095208760419127E-019
  -83.3400000000000         5.912011843078641E-020
  -83.1500000000000        -8.195400114308908E-021
  -82.9600000000000        -7.169111438319680E-020
  -82.7700000000000        -1.121737927698928E-019
  -82.5800000000000        -1.175600462579545E-019
  -82.3900000000000        -8.637395239375424E-020
  -82.2000000000000        -2.816256358504254E-020
  -82.0100000000000         3.929690058410658E-020
  -81.8200000000000         9.520024577869313E-020
  -81.6300000000000         1.218287522918663E-019
  -81.4400000000000         1.097923858626981E-019
  -81.2500000000000         6.086435307498051E-020
  -81.0600000000000        -1.243753106591628E-020
  -80.8700000000000        -9.041828830231272E-020
  -80.6800000000000        -1.518945743909651E-019
  -80.4900000000000        -1.803503125893761E-019
  -80.3000000000000        -1.687575757847734E-019
  -80.1100000000000        -1.216418252578718E-019
  -79.9200000000000        -5.377298670322571E-020
  -79.7300000000000         1.414686726569360E-020
  -79.5400000000000         6.154577463851048E-020
  -79.3500000000000         7.402527063791088E-020
  -79.1600000000000         4.761745294503743E-020
  -78.9700000000000        -9.996533687273952E-021
  -78.7800000000000        -8.167962240980822E-020
  -78.5900000000000        -1.458242710784196E-019
  -78.4000000000000        -1.826891056110692E-019
  -78.2100000000000        -1.802359687167166E-019
  -78.0200000000000        -1.377486094797513E-019
  -77.8300000000000        -6.615682060163819E-020
  -77.6400000000000         1.504689461690028E-020
  -77.4500000000000         8.341349491642241E-020
  -77.2600000000000         1.200405561899791E-019
  -77.0700000000000         1.150747280353657E-019
  -76.8800000000000         7.059532854746749E-020
  -76.6900000000000         1.845688193831390E-023
  -76.5000000000000        -7.581871343118436E-020
  -76.3100000000000        -1.347507230730659E-019
  -76.1200000000000        -1.597610933731728E-019
  -75.9300000000000        -1.439346595653548E-019
  -75.7400000000000        -9.242956222134927E-020
  -75.5500000000000        -2.089968201303050E-020
  -75.3600000000000         4.915232850621594E-020
  -75.1700000000000         9.671175853122859E-020
  -74.9800000000000         1.074129019435071E-019
  -74.7900000000000         7.772595855120599E-020
  -74.6000000000000         1.596288055283666E-020
  -74.4100000000000        -6.017219545411530E-020
  -74.2200000000000        -1.287643251393711E-019
  -74.0300000000000        -1.700948474409004E-019
  -73.8400000000000        -1.724154234918341E-019
  -73.6500000000000        -1.354070401975075E-019
  -73.4600000000000        -7.030550099051443E-020
  -73.2700000000000         3.357690581985664E-021
  -73.0800000000000         6.345733412792607E-020
  -72.8900000000000         9.175403550752231E-020
  -72.7000000000000         7.925176585835878E-020
  -72.5100000000000         2.886347651057511E-020
  -72.3200000000000        -4.539153662034622E-020
  -72.1300000000000        -1.224160641590945E-019
  -71.9400000000000        -1.801049972249123E-019
  -71.7500000000000        -2.016841352298455E-019
  -71.5600000000000        -1.804812543683814E-019
  -71.3700000000000        -1.217677980111240E-019
  -71.1800000000000        -4.117329813812670E-020
  -70.9900000000000         3.983393722689992E-020
  -70.8000000000000         1.000741750942310E-019
  -70.6100000000000         1.246247429704301E-019
  -70.4200000000000         1.089305003085948E-019
  -70.2300000000000         5.990720377554883E-020
  -70.0400000000000        -6.242880288553834E-021
  -69.8500000000000        -6.884771577810453E-020
  -69.6600000000000        -1.088186189055648E-019
  -69.4700000000000        -1.142021653843831E-019
  -69.2800000000000        -8.364196142880635E-020
  -69.0900000000000        -2.675725099837226E-020
  -68.9000000000000         3.867523288654673E-020
  -68.7100000000000         9.192877808104039E-020
  -68.5200000000000         1.154160742251358E-019
  -68.3300000000000         9.988643648112839E-020
  -68.1400000000000         4.721380470860130E-020
  -67.9500000000000        -3.003477907333529E-020
  -67.7600000000000        -1.121187626078676E-019
  -67.5700000000000        -1.777050012454981E-019
  -67.3800000000000        -2.098950890313840E-019
  -67.1900000000000        -2.009696070997752E-019
  -67.0000000000000        -1.545042099460602E-019
  -66.8100000000000        -8.427507025367646E-020
  -66.6200000000000        -1.028694965894330E-020
  -66.4300000000000         4.693324509134905E-020
  -66.2400000000000         7.215343996224035E-020
  -66.0500000000000         5.971557042568970E-020
  -65.8600000000000         1.506381362294787E-020
  -65.6700000000000        -4.691611282974255E-020
  -65.4800000000000        -1.062791624757586E-019
  -65.2900000000000        -1.438728147860693E-019
  -65.1000000000000        -1.469726502598957E-019
  -64.9100000000000        -1.130669382023239E-019
  -64.7200000000000        -5.068174126862028E-020
  -64.5300000000000         2.301239395459708E-020
  -64.3400000000000         8.713997658751836E-020
  -64.1500000000000         1.231862585788760E-019
  -63.9600000000000         1.204243509682344E-019
  -63.7700000000000         7.910879678590750E-020
  -63.5800000000000         1.048519354954494E-020
  -63.3900000000000        -6.640086465622785E-020
  -63.2000000000000        -1.301680266904547E-019
  -63.0100000000000        -1.632402979847967E-019
  -62.8200000000000        -1.568760934035225E-019
  -62.6300000000000        -1.136302827336102E-019
  -62.4400000000000        -4.654658702150493E-020
  -62.2500000000000         2.467500277923088E-020
  -62.0600000000000         7.942042961802874E-020
  -61.8700000000000         1.021519951392530E-019
  -61.6800000000000         8.691830588852363E-020
  -61.4900000000000         3.908051469689867E-020
  -61.3000000000000        -2.625414153864601E-020
  -61.1100000000000        -8.865736888416482E-020
  -60.9200000000000        -1.283972359098277E-019
  -60.7300000000000        -1.323003866092026E-019
  -60.5400000000000        -9.773248117995064E-020
  -60.3500000000000        -3.350330390802243E-020
  -60.1600000000000         4.259828655943566E-020
  -59.9700000000000         1.089344087967315E-019
  -59.7800000000000         1.463109447048230E-019
  -59.5900000000000         1.435815284799010E-019
  -59.4000000000000         1.009136289908725E-019
  -59.2100000000000         2.975638481047155E-020
  -59.0200000000000        -5.048029969718478E-020
  -58.8300000000000        -1.180590746453009E-019
  -58.6400000000000        -1.552069832746487E-019
  -58.4500000000000        -1.532259507721685E-019
  -58.2600000000000        -1.149385775552096E-019
  -58.0700000000000        -5.377116895627861E-020
  -57.8800000000000         1.024469746397639E-020
  -57.6900000000000         5.638077959094641E-020
  -57.5000000000000         6.931299857573565E-020
  -57.3100000000000         4.364621103654377E-020
  -57.1200000000000        -1.444977044333116E-020
  -56.9300000000000        -8.897554453343935E-020
  -56.7400000000000        -1.587201534282522E-019
  -56.5500000000000        -2.034351048298845E-019
  -56.3600000000000        -2.097754509079158E-019
  -56.1700000000000        -1.752706211379691E-019
  -55.9800000000000        -1.091459629195656E-019
  -55.7900000000000        -2.972913208144719E-020
  -55.6000000000000         4.081736019760107E-020
  -55.4100000000000         8.289819035990034E-020
  -55.2200000000000         8.514322395368780E-020
  -55.0300000000000         4.766718831219366E-020
  -54.8400000000000        -1.800933431540544E-020
  -54.6500000000000        -9.233508063982480E-020
  -54.4600000000000        -1.533987250484706E-019
  -54.2700000000000        -1.832397841566589E-019
  -54.0800000000000        -1.729769256477424E-019
  -53.8900000000000        -1.252866855211508E-019
  -53.7000000000000        -5.353504736089594E-020
  -53.5100000000000         2.217243715702392E-020
  -53.3200000000000         8.087138090516036E-020
  -53.1300000000000         1.068451742357482E-019
  -52.9400000000000         9.418755292525330E-020
  -52.7500000000000         4.849505999331251E-020
  -52.5600000000000        -1.480735204026126E-020
  -52.3700000000000        -7.502455267404453E-020
  -52.1800000000000        -1.123062976305702E-019
  -51.9900000000000        -1.135353007507902E-019
  -51.8000000000000        -7.626852352250916E-020
  -51.6100000000000        -9.575045715110931E-021
  -51.4200000000000         6.848613621153930E-020
  -51.2300000000000         1.360251916942090E-019
  -51.0400000000000         1.736203073399371E-019
  -50.8500000000000         1.699228451461793E-019
  -50.6600000000000         1.249388774701727E-019
  -50.4700000000000         5.004027439101781E-020
  -50.2800000000000        -3.528296778873439E-020
  -50.0900000000000        -1.089705060398957E-019
  -49.9000000000000        -1.526258019051497E-019
  -49.7100000000000        -1.566441948570709E-019
  -49.5200000000000        -1.227787782696517E-019
  -49.3300000000000        -6.343413059419619E-020
  -49.1400000000000         2.080371665547554E-021
  -48.9500000000000         5.323748206950184E-020
  -48.7600000000000         7.427182890391818E-020
  -48.5700000000000         5.873086780526515E-020
  -48.3800000000000         1.129020643032840E-020
  -48.1900000000000        -5.368595401717374E-020
  -48.0000000000000        -1.164166119360518E-019
  -47.8100000000000        -1.575593039716374E-019
  -47.6200000000000        -1.639359610060072E-019
  -47.4300000000000        -1.324548164623613E-019
  -47.2400000000000        -7.108496548935835E-020
  -47.0500000000000         3.394941562320679E-021
  -46.8600000000000         7.021206878632959E-020
  -46.6700000000000         1.105779919040604E-019
  -46.4800000000000         1.131005753624859E-019
  -46.2900000000000         7.706610630205815E-020
  -46.1000000000000         1.264314432259276E-020
  -45.9100000000000        -6.204875621672028E-020
  -45.7200000000000        -1.261505936558977E-019
  -45.5300000000000        -1.620413878221022E-019
  -45.3400000000000        -1.603548173918661E-019
  -45.1500000000000        -1.225975361406349E-019
  -44.9600000000000        -6.063017502013205E-020
  -44.7700000000000         6.824755425250306E-021
  -44.5800000000000         5.963441878259179E-020
  -44.3900000000000         8.209736413274936E-020
  -44.2000000000000         6.749826930906963E-020
  -44.0100000000000         2.006738193519035E-020
  -43.8200000000000        -4.622109779747497E-020
  -43.6300000000000        -1.116713392980646E-019
  -43.4400000000000        -1.565585166711918E-019
  -43.2500000000000        -1.668576132839302E-019
  -43.0600000000000        -1.383536307006209E-019
  -42.8700000000000        -7.793363443344822E-020
  -42.6800000000000        -1.673026917798281E-021
  -42.4900000000000         6.973583306112897E-020
  -42.3000000000000         1.168880243459808E-019
  -42.1100000000000         1.271959879154321E-019
  -41.9200000000000         9.845480516876148E-020
  -41.7300000000000         3.942543029599651E-020
  -41.5400000000000        -3.272408058019296E-020
  -41.3500000000000        -9.738166694660275E-020
  -41.1600000000000        -1.364340349895158E-019
  -40.9700000000000        -1.394798765892968E-019
  -40.7800000000000        -1.068070440285379E-019
  -40.5900000000000        -4.926816458137114E-020
  -40.4000000000000         1.491339264401294E-020
  -40.2100000000000         6.548686276530325E-020
  -40.0200000000000         8.612672036871566E-020
  -39.8300000000000         6.927607818069272E-020
  -39.6400000000000         1.847204081880854E-020
  -39.4500000000000        -5.254075462032144E-020
  -39.2600000000000        -1.236791281242924E-019
  -39.0700000000000        -1.742771709304697E-019
  -38.8800000000000        -1.890764453467055E-019
  -38.6900000000000        -1.627149500480956E-019
  -38.5000000000000        -1.013983756611336E-019
  -38.3100000000000        -2.124349537398686E-020
  -38.1200000000000         5.625317052746467E-020
  -37.9300000000000         1.103273745734157E-019
  -37.7400000000000         1.268739452571077E-019
  -37.5500000000000         1.024642262779477E-019
  -37.3600000000000         4.528252406404404E-020
  -37.1700000000000        -2.728810855675608E-020
  -36.9800000000000        -9.372361172562626E-020
  -36.7900000000000        -1.345925196273584E-019
  -36.6000000000000        -1.381656613817747E-019
  -36.4100000000000        -1.037828171996499E-019
  -36.2200000000000        -4.199894331687858E-020
  -36.0300000000000         2.853999558959913E-020
  -35.8400000000000         8.659003126420765E-020
  -35.6500000000000         1.145709984198036E-019
  -35.4600000000000         1.037619343234195E-019
  -35.2700000000000         5.690066254155038E-020
  -35.0800000000000        -1.258075597611921E-020
  -34.8900000000000        -8.446461528362978E-020
  -34.7000000000000        -1.376594067140913E-019
  -34.5100000000000        -1.563880377490776E-019
  -34.3200000000000        -1.348410339638739E-019
  -34.1300000000000        -7.892784286707036E-020
  -33.9400000000000        -4.607730711671875E-021
  -33.7500000000000         6.671613486426455E-020
  -33.5600000000000         1.143972821927898E-019
  -33.3700000000000         1.245335547634201E-019
  -33.1800000000000         9.399458550060044E-020
  -32.9900000000000         3.131302043239543E-020
  -32.8000000000000        -4.581846449193983E-020
  -32.6100000000000        -1.157069539560331E-019
  -32.4200000000000        -1.589609286233267E-019
  -32.2300000000000        -1.640888937982827E-019
  -32.0400000000000        -1.307649062859939E-019
  -31.8500000000000        -6.982343289633571E-020
  -31.6600000000000        -4.575759871990175E-024
  -31.4700000000000         5.758911891184101E-020
  -31.2800000000000         8.570685167645431E-020
  -31.0900000000000         7.602445233314799E-020
  -30.9000000000000         3.159685646509845E-020
  -30.7100000000000        -3.403286386214078E-020
  -30.5200000000000        -1.008097693752741E-019
  -30.3300000000000        -1.480643212730179E-019
  -30.1400000000000        -1.606028725184168E-019
  -29.9500000000000        -1.332090445550184E-019
  -29.7600000000000        -7.224263367431554E-020
  -29.5700000000000         6.126819376186775E-021
  -29.3800000000000         8.053629469146306E-020
  -29.1900000000000         1.305569078712488E-019
  -29.0000000000000         1.425586561490662E-019
  -28.8100000000000         1.136135314416553E-019
  -28.6200000000000         5.230685425304332E-020
  -28.4300000000000        -2.377515511819540E-020
  -28.2400000000000        -9.314923809235589E-020
  -28.0500000000000        -1.366473106938586E-019
  -27.8600000000000        -1.429323088166797E-019
  -27.6700000000000        -1.117160619019987E-019
  -27.4800000000000        -5.375026330669487E-020
  -27.2900000000000         1.239476611743697E-020
  -27.1000000000000         6.581549339129115E-020
  -26.9100000000000         8.942589956705497E-020
  -26.7200000000000         7.498981997561821E-020
  -26.5300000000000         2.558017915354367E-020
  -26.3400000000000        -4.524610658753772E-020
  -26.1500000000000        -1.173259945980275E-019
  -25.9600000000000        -1.697121647921597E-019
  -25.7700000000000        -1.867622765701639E-019
  -25.5800000000000        -1.627267831961874E-019
  -25.3900000000000        -1.034898697226878E-019
  -25.2000000000000        -2.494322337637497E-020
  -25.0100000000000         5.154420479044936E-020
  -24.8200000000000         1.052485406446584E-019
  -24.6300000000000         1.220288470643183E-019
  -24.4400000000000         9.835851556857309E-020
  -24.2500000000000         4.228480353093026E-020
  -24.0600000000000        -2.895633462650240E-020
  -23.8700000000000        -9.397611125070892E-020
  -23.6800000000000        -1.334605770617729E-019
  -23.4900000000000        -1.357855319561651E-019
  -23.3000000000000        -1.003899293875490E-019
  -23.1100000000000        -3.792900873996665E-020
  -22.9200000000000         3.283719233013772E-020
  -22.7300000000000         9.051800983571226E-020
  -22.5400000000000         1.173411607484077E-019
  -22.3500000000000         1.043617176144998E-019
  -22.1600000000000         5.411747848722235E-020
  -21.9700000000000        -2.004056618534552E-020
  -21.7800000000000        -9.775083694415098E-020
  -21.5900000000000        -1.574806377614624E-019
  -21.4000000000000        -1.827166806129381E-019
  -21.2100000000000        -1.667141437026196E-019
  -21.0200000000000        -1.144235984769688E-019
  -20.8300000000000        -4.103140238159485E-020
  -20.6400000000000         3.246497142369186E-020
  -20.4500000000000         8.535607890350780E-020
  -20.2600000000000         1.032087696013518E-019
  -20.0700000000000         8.199165463685035E-020
  -19.8800000000000         2.914134876389635E-020
  -19.6900000000000        -3.872133751857743E-020
  -19.5000000000000        -1.007367009677351E-019
  -19.3100000000000        -1.379575280545632E-019
  -19.1200000000000        -1.389123904310468E-019
  -18.9300000000000        -1.029676168927438E-019
  -18.7400000000000        -4.051787830624941E-020
  -18.5500000000000         3.004791349606467E-020
  -18.3600000000000         8.772841602119051E-020
  -18.1700000000000         1.150788746202944E-019
  -17.9800000000000         1.033681511623075E-019
  -17.7900000000000         5.521013420567345E-020
  -17.6000000000000        -1.611018555427537E-020
  -17.4100000000000        -9.042898672484098E-020
  -17.2200000000000        -1.465135145300472E-019
  -17.0300000000000        -1.681972367940785E-019
  -16.8400000000000        -1.490539658491495E-019
  -16.6500000000000        -9.425546985734234E-020
  -16.4600000000000        -1.908011258446243E-020
  -16.2700000000000         5.548943383588169E-020
  -16.0800000000000         1.088014865079305E-019
  -15.8900000000000         1.264551718825446E-019
  -15.7000000000000         1.043933662341592E-019
  -15.5100000000000         4.999340227169009E-020
  -15.3200000000000        -2.014484227876354E-020
  -15.1300000000000        -8.505805788129029E-020
  -14.9400000000000        -1.255091437219317E-019
  -14.7500000000000        -1.295424516621481E-019
  -14.5600000000000        -9.590515116769940E-020
  -14.3700000000000        -3.436167850229124E-020
  -14.1800000000000         3.717339887352425E-020
  -13.9900000000000         9.784784308332180E-020
  -13.8000000000000         1.299239257955867E-019
  -13.6100000000000         1.239243258890497E-019
  -13.4200000000000         8.138491165250479E-020
  -13.2300000000000         1.441449399408040E-020
  -13.0400000000000        -5.781776224626051E-020
  -12.8500000000000        -1.146527581551365E-019
  -12.6600000000000        -1.399488328261251E-019
  -12.4700000000000        -1.267743187186261E-019
  -12.2800000000000        -7.942292586093732E-020
  -12.0900000000000        -1.217665984217835E-020
  -11.9000000000000         5.481549106208197E-020
  -11.7100000000000         1.013483169076152E-019
  -11.5200000000000         1.129871123772996E-019
  -11.3300000000000         8.523844797805184E-020
  -11.1400000000000         2.487092580342153E-020
  -10.9500000000000        -5.199337913578642E-020
  -10.7600000000000        -1.244740869477089E-019
  -10.5700000000000        -1.728999755951466E-019
  -10.3800000000000        -1.844355438667193E-019
  -10.1900000000000        -1.567483239610807E-019
  -10.0000000000000        -9.866096877176901E-020
  -9.81000000000000        -2.759788601754117E-020
  -9.62000000000000         3.544123819209886E-020
  -9.42999999999999         7.193249837328003E-020
  -9.23999999999999         7.115706082513597E-020
  -9.05000000000000         3.327347250668102E-020
  -8.86000000000000        -3.074868926181811E-020
  -8.67000000000000        -1.023133952346217E-019
  -8.48000000000000        -1.605837656662606E-019
  -8.28999999999999        -1.885114696007227E-019
  -8.09999999999999        -1.777588779230234E-019
  -7.91000000000000        -1.310809458124278E-019
  -7.72000000000000        -6.147475478317453E-020
  -7.53000000000000         1.164845656605418E-020
  -7.34000000000000         6.814104167460283E-020
  -7.15000000000001         9.298218489499793E-020
  -6.95999999999999         8.062144845108486E-020
  -6.77000000000000         3.655236487696807E-020
  -6.58000000000000        -2.432994436453633E-020
  -6.39000000000000        -8.211001907640739E-020
  -6.20000000000000        -1.177065404863787E-019
  -6.01000000000001        -1.185042510749823E-019
  -5.81999999999999        -8.212556493870820E-020
  -5.63000000000000        -1.723588488828984E-020
  -5.44000000000000         5.887044947762075E-020
  -5.25000000000000         1.252224368305738E-019
  -5.06000000000000         1.632335227582677E-019
  -4.87000000000000         1.621059697415889E-019
  -4.67999999999999         1.219965507128821E-019
  -4.48999999999999         5.401189759509200E-020
  -4.30000000000000        -2.297340437094952E-020
  -4.11000000000000        -8.775354305148813E-020
  -3.92000000000000        -1.229013416954422E-019
  -3.73000000000000        -1.197766653209365E-019
  -3.53999999999999        -8.098249589291440E-020
  -3.34999999999999        -1.955573954002447E-020
  -3.16000000000000         4.487690918332298E-020
  -2.97000000000000         9.186236117888691E-020
  -2.78000000000000         1.061221976246208E-019
  -2.59000000000000         8.204061047709395E-020
  -2.40000000000001         2.533548382846115E-020
  -2.20999999999999        -4.856887585905346E-020
  -2.02000000000000        -1.189938761672549E-019
  -1.83000000000000        -1.659953566252665E-019
  -1.64000000000000        -1.761593149408488E-019
  -1.45000000000000        -1.465308607166867E-019
  -1.26000000000001        -8.553354276333386E-020
  -1.06999999999999        -1.059376248798614E-020
 -0.879999999999995         5.686401456492760E-020
 -0.689999999999998         9.761225334787070E-020
 -0.500000000000000         1.002061985179354E-019
 -0.310000000000002         6.432666293843350E-020
 -0.120000000000005         8.899070185825671E-022
  7.000000000000739E-002   -7.112451482699095E-020
  0.260000000000005        -1.302091135190732E-019
  0.450000000000003        -1.586066454335397E-019
  0.640000000000001        -1.474956356230191E-019
  0.829999999999998        -9.957738428139793E-020
   1.02000000000000        -2.831987039459313E-020
   1.21000000000001         4.591941154492541E-020
   1.40000000000001         1.017711364148511E-019
   1.59000000000000         1.230372836776105E-019
   1.78000000000000         1.033974981895040E-019
   1.97000000000000         4.827744464172136E-020
   2.16000000000000        -2.667038013181082E-020
   2.34999999999999        -1.000437269837625E-019
   2.54000000000001        -1.508333320581050E-019
   2.73000000000000        -1.644554968684098E-019
   2.92000000000000        -1.369350247888072E-019
   3.11000000000000        -7.603282707872765E-020
   3.30000000000000         1.011097042718779E-021
   3.48999999999999         7.247099833189496E-020
   3.68000000000001         1.184190550449255E-019
   3.87000000000000         1.264757322189259E-019
   4.06000000000000         9.535602083370155E-020
   4.25000000000000         3.517646249807017E-020
   4.44000000000000        -3.557101001827679E-020
   4.63000000000000        -9.549233927439606E-020
   4.82000000000001        -1.266009326436910E-019
   5.01000000000001        -1.196070121787855E-019
   5.20000000000000        -7.663454962208397E-020
   5.39000000000000        -1.057501522215372E-020
   5.58000000000000         5.871797794601833E-020
   5.77000000000000         1.102606641740887E-019
   5.96000000000001         1.280864325133150E-019
   6.15000000000001         1.059269710753591E-019
   6.34000000000000         4.907981694680180E-020
   6.53000000000000        -2.707769189482325E-020