  -105.000000000000         0.000000000000000E+000
  -104.810000000000         2.167909983492743E-010
  -104.620000000000         4.748815676773140E-010
  -104.430000000000         7.280290827323974E-010
  -104.240000000000         1.083998676978338E-009
  -104.050000000000         1.521322129730903E-009
  -103.860000000000         1.843848117031669E-009
  -103.670000000000         1.970199165183826E-009
  -103.480000000000         1.949914678153737E-009
  -103.290000000000         2.492064248796501E-009
  -103.100000000000         3.273943681064804E-009
  -102.910000000000         4.464315059333281E-009
  -102.720000000000         5.730255951587587E-009
  -102.530000000000         6.819745920569230E-009
  -102.340000000000         7.670134518037267E-009
  -102.150000000000         8.205463163271477E-009
  -101.960000000000         8.553744098814234E-009
  -101.770000000000         8.590247865957194E-009
  -101.580000000000         8.814955091981219E-009
  -101.390000000000         9.228391638076090E-009
  -101.200000000000         9.476661042808131E-009
  -101.010000000000         9.464541174002079E-009
  -100.820000000000         8.970952009744943E-009
  -100.630000000000         8.300889564547802E-009
  -100.440000000000         7.634361324304368E-009
  -100.250000000000         7.099592955542434E-009
  -100.060000000000         6.825563054395248E-009
  -99.8700000000000         6.845444073359453E-009
  -99.6800000000000         6.835944435040811E-009
  -99.4900000000000         6.420463374017307E-009
  -99.3000000000000         5.494421750259236E-009
  -99.1100000000000         4.413090729229135E-009
  -98.9200000000000         3.199367258287832E-009
  -98.7300000000000         2.187432132092522E-009
  -98.5400000000000         1.802775238312950E-009
  -98.3500000000000         1.380921073968819E-009
  -98.1600000000000         1.318820193111172E-009
  -97.9700000000000         1.228740560746113E-009
  -97.7800000000000         1.208582603557181E-009
  -97.5900000000000         1.178938155105459E-009
  -97.4000000000000         1.030809820378649E-009
  -97.2100000000000         9.424666475127034E-010
  -97.0200000000000         9.115319017400103E-010
  -96.8300000000000         1.455724833875856E-009
  -96.6400000000000         2.214282221739751E-009
  -96.4500000000000         3.004970383750422E-009
  -96.2600000000000         3.827773140346798E-009
  -96.0700000000000         4.519261665134889E-009
  -95.8800000000000         4.866087068988380E-009
  -95.6900000000000         5.044401631209218E-009
  -95.5000000000000         5.091095920208964E-009
  -95.3100000000000         5.393834922176549E-009
  -95.1200000000000         5.708612563234842E-009
  -94.9300000000000         6.077321978399347E-009
  -94.7400000000000         6.249484808043719E-009
  -94.5500000000000         6.417605708885257E-009
  -94.3600000000000         6.521154801190061E-009
  -94.1700000000000         6.660838327745625E-009
  -93.9800000000000         6.883936682698495E-009
  -93.7900000000000         6.821900668540846E-009
  -93.6000000000000         7.520195785026123E-009
  -93.4100000000000         8.045276970665316E-009
  -93.2200000000000         8.299908173709026E-009
  -93.0300000000000         8.512315194907663E-009
  -92.8400000000000         8.402166457609410E-009
  -92.6500000000000         7.659325821316556E-009
  -92.4600000000000         6.420448022893249E-009
  -92.2700000000000         4.957951044373803E-009
  -92.0800000000000         3.620379349869391E-009
  -91.8900000000000         2.702632725599126E-009
  -91.7000000000000         2.306686175204981E-009
  -91.5100000000000         2.065250502225038E-009
  -91.3200000000000         1.956719620831026E-009
  -91.1300000000000         1.067636149959893E-009
  -90.9400000000000        -3.178067945556230E-011
  -90.7500000000000        -6.906865921683187E-010
  -90.5600000000000        -7.551724796574975E-010
  -90.3700000000000        -1.465426233330161E-010
  -90.1800000000000         9.853468659256866E-010
  -89.9900000000000         2.264705960467550E-009
  -89.8000000000000         3.256398426311838E-009
  -89.6100000000000         3.290132009537709E-009
  -89.4200000000000         3.154869136888630E-009
  -89.2300000000000         3.222494221905026E-009
  -89.0400000000000         4.212909745183105E-009
  -88.8500000000000         4.488695708442678E-009
  -88.6600000000000         5.545284548065803E-009
  -88.4700000000000         6.162034193740703E-009
  -88.2800000000000         6.429326164512597E-009
  -88.0900000000000         6.406182520438387E-009
  -87.9000000000000         6.068264669620838E-009
  -87.7100000000000         5.768276651462830E-009
  -87.5200000000000         5.564533087987463E-009
  -87.3300000000000         5.451292961633283E-009
  -87.1400000000000         5.293211699005607E-009
  -86.9500000000000         5.391711910615024E-009
  -86.7600000000000         5.515069643967800E-009
  -86.5700000000000         5.648616389988270E-009
  -86.3800000000000         5.972494808481217E-009
  -86.1900000000000         6.500788071636151E-009
  -86.0000000000000         7.200800618878899E-009
  -85.8100000000000         8.109125607221454E-009
  -85.6200000000000         9.430149209396602E-009
  -85.4300000000000         1.086096006731007E-008
  -85.2400000000000         1.221175202146227E-008
  -85.0500000000000         1.366190288519580E-008
  -84.8600000000000         1.484992802628571E-008
  -84.6700000000000         1.577614539488351E-008
  -84.4800000000000         1.660686271319815E-008
  -84.2900000000000         1.755654241833098E-008
  -84.1000000000000         1.874365189441592E-008
  -83.9100000000000         2.040836759550634E-008
  -83.7200000000000         2.074360847920627E-008
  -83.5300000000000         2.372812743685045E-008
  -83.3400000000000         2.365883255711652E-008
  -83.1500000000000         2.388110098159608E-008
  -82.9600000000000         2.348288465062655E-008
  -82.7700000000000         2.289642249203787E-008
  -82.5800000000000         2.219415922600949E-008
  -82.3900000000000         2.147514396463954E-008
  -82.2000000000000         2.088972347457242E-008
  -82.0100000000000         2.024572400348784E-008
  -81.8200000000000         1.930200219139560E-008
  -81.6300000000000         1.800235367996918E-008
  -81.4400000000000         1.663690854175627E-008
  -81.2500000000000         1.560964370333955E-008
  -81.0600000000000         1.482184518556908E-008
  -80.8700000000000         1.442591510968434E-008
  -80.6800000000000         1.461282835979791E-008
  -80.4900000000000         1.493948347207481E-008
  -80.3000000000000         1.525611847814629E-008
  -80.1100000000000         1.545635776061795E-008
  -79.9200000000000         1.559561312613463E-008
  -79.7300000000000         1.580970837682623E-008
  -79.5400000000000         1.630944148911051E-008
  -79.3500000000000         1.743774212928567E-008
  -79.1600000000000         1.872037020121829E-008
  -78.9700000000000         1.968224487254052E-008
  -78.7800000000000         2.036318018517333E-008
  -78.5900000000000         2.082064109206474E-008
  -78.4000000000000         2.110618956464171E-008
  -78.2100000000000         2.109351646180467E-008
  -78.0200000000000         2.083843842682628E-008
  -77.8300000000000         2.045378448563046E-008
  -77.6400000000000         1.993210568072009E-008
  -77.4500000000000         1.937142840692826E-008
  -77.2600000000000         1.893880158541034E-008
  -77.0700000000000         1.866850438456110E-008
  -76.8800000000000         1.862870814223139E-008
  -76.6900000000000         1.881617355831939E-008
  -76.5000000000000         1.942471767676516E-008
  -76.3100000000000         2.016326087024499E-008
  -76.1200000000000         2.033554562064231E-008
  -75.9300000000000         2.055848366830464E-008
  -75.7400000000000         2.053995138684152E-008
  -75.5500000000000         2.060852525958271E-008
  -75.3600000000000         2.062411848629559E-008
  -75.1700000000000         2.060124077233931E-008
  -74.9800000000000         2.034449567922665E-008
  -74.7900000000000         1.990022324748513E-008
  -74.6000000000000         1.939140273038540E-008
  -74.4100000000000         1.895182300703977E-008
  -74.2200000000000         1.870773272565727E-008
  -74.0300000000000         1.861962643150495E-008
  -73.8400000000000         1.887366300099182E-008
  -73.6500000000000         1.935164854748580E-008
  -73.4600000000000         1.983536610828144E-008
  -73.2700000000000         2.051378196436866E-008
  -73.0800000000000         2.140543413650863E-008
  -72.8900000000000         2.299435980442835E-008
  -72.7000000000000         2.467227587425885E-008
  -72.5100000000000         2.655486671960318E-008
  -72.3200000000000         2.837553504116258E-008
  -72.1300000000000         2.975879599500238E-008
  -71.9400000000000         3.014016940344307E-008
  -71.7500000000000         3.283768304833961E-008
  -71.5600000000000         3.328008884806002E-008
  -71.3700000000000         3.371617676396652E-008
  -71.1800000000000         3.479059895028117E-008
  -70.9900000000000         3.518968334552631E-008
  -70.8000000000000         3.885560940214156E-008
  -70.6100000000000         3.935530077628255E-008
  -70.4200000000000         3.973388269560646E-008
  -70.2300000000000         4.488295985612033E-008
  -70.0400000000000         4.510570090189072E-008
  -69.8500000000000         4.563911876063056E-008
  -69.6600000000000         4.724806591188860E-008
  -69.4700000000000         4.772907458042334E-008
  -69.2800000000000         4.832464497867677E-008
  -69.0900000000000         4.844208886638070E-008
  -68.9000000000000         4.851125867748848E-008
  -68.7100000000000         4.836525894896348E-008
  -68.5200000000000         4.792737564905690E-008
  -68.3300000000000         4.725547451073377E-008
  -68.1400000000000         4.649070422136911E-008
  -67.9500000000000         4.596022063193980E-008
  -67.7600000000000         4.593728130080122E-008
  -67.5700000000000         4.631569554553268E-008
  -67.3800000000000         4.796087189111765E-008
  -67.1900000000000         5.043258762689771E-008
  -67.0000000000000         5.159919531090529E-008
  -66.8100000000000         5.491531723489972E-008
  -66.6200000000000         5.554600324064879E-008
  -66.4300000000000         5.681625247428055E-008
  -66.2400000000000         6.155138278701967E-008
  -66.0500000000000         6.195772771909256E-008
  -65.8600000000000         6.254470978945392E-008
  -65.6700000000000         6.314680040088523E-008
  -65.4800000000000         6.346293906199243E-008
  -65.2900000000000         6.380015868024655E-008
  -65.1000000000000         6.418761721208128E-008
  -64.9100000000000         6.460994467242437E-008
  -64.7200000000000         6.502017696888414E-008
  -64.5300000000000         6.559357888108770E-008
  -64.3400000000000         6.605772167317731E-008
  -64.1500000000000         6.642351185535220E-008
  -63.9600000000000         6.671409012547922E-008
  -63.7700000000000         6.705005178532797E-008
  -63.5800000000000         6.753532305610015E-008
  -63.3900000000000         6.784406577765084E-008
  -63.2000000000000         6.794317357489490E-008
  -63.0100000000000         6.791682070238542E-008
  -62.8200000000000         6.795633009056302E-008
  -62.6300000000000         6.807258559682073E-008
  -62.4400000000000         6.815538013541965E-008
  -62.2500000000000         6.820209603786183E-008
  -62.0600000000000         6.812485560831107E-008
  -61.8700000000000         6.803653397297162E-008
  -61.6800000000000         6.804917117251020E-008
  -61.4900000000000         6.813256240351811E-008
  -61.3000000000000         6.844995557248604E-008
  -61.1100000000000         6.944835090705839E-008
  -60.9200000000000         7.102642019048841E-008
  -60.7300000000000         7.287001828860599E-008
  -60.5400000000000         7.429785069184269E-008
  -60.3500000000000         7.537837660996497E-008
  -60.1600000000000         7.630502281718639E-008
  -59.9700000000000         7.725073541728271E-008
  -59.7800000000000         7.834422255365695E-008
  -59.5900000000000         7.965853682961619E-008
  -59.4000000000000         8.074592117184360E-008
  -59.2100000000000         8.155098795224865E-008
  -59.0200000000000         8.213018271148624E-008
  -58.8300000000000         8.260548903394943E-008
  -58.6400000000000         8.331865615769213E-008
  -58.4500000000000         8.452777587511278E-008
  -58.2600000000000         8.608730034244556E-008
  -58.0700000000000         8.713989229000282E-008
  -57.8800000000000         8.850829196805791E-008
  -57.6900000000000         8.900989699567881E-008
  -57.5000000000000         8.978223974435621E-008
  -57.3100000000000         9.045948781680884E-008
  -57.1200000000000         9.296047017534223E-008
  -56.9300000000000         9.339684070119365E-008
  -56.7400000000000         9.538021809407755E-008
  -56.5500000000000         9.760567019626288E-008
  -56.3600000000000         9.868628670225665E-008
  -56.1700000000000         1.005554898745269E-007
  -55.9800000000000         1.012998848508057E-007
  -55.7900000000000         1.026352906748058E-007
  -55.6000000000000         1.033947627188323E-007
  -55.4100000000000         1.039397110023862E-007
  -55.2200000000000         1.037446872529982E-007
  -55.0300000000000         1.032425798423552E-007
  -54.8400000000000         1.025264983208365E-007
  -54.6500000000000         1.019447251995559E-007
  -54.4600000000000         1.015902182664772E-007
  -54.2700000000000         1.015737073289492E-007
  -54.0800000000000         1.019172616464393E-007
  -53.8900000000000         1.025824191322666E-007
  -53.7000000000000         1.036579091811499E-007
  -53.5100000000000         1.052449474781288E-007
  -53.3200000000000         1.073338714460046E-007
  -53.1300000000000         1.101395088139910E-007
  -52.9400000000000         1.129309468496748E-007
  -52.7500000000000         1.154410415001298E-007
  -52.5600000000000         1.175179025819643E-007
  -52.3700000000000         1.200785818169103E-007
  -52.1800000000000         1.210116889467568E-007
  -51.9900000000000         1.265520320598341E-007
  -51.8000000000000         1.275302071312765E-007
  -51.6100000000000         1.297370818701906E-007
  -51.4200000000000         1.317723286712630E-007
  -51.2300000000000         1.344674716400125E-007
  -51.0400000000000         1.353088413532379E-007
  -50.8500000000000         1.375127050024294E-007
  -50.6600000000000         1.384996558620515E-007
  -50.4700000000000         1.440535397639668E-007
  -50.2800000000000         1.448532427211075E-007
  -50.0900000000000         1.472317318028110E-007
  -49.9000000000000         1.497142881392253E-007
  -49.7100000000000         1.507916432527434E-007
  -49.5200000000000         1.531939441298810E-007
  -49.3300000000000         1.537765428402740E-007
  -49.1400000000000         1.560885518666727E-007
  -48.9500000000000         1.563619276564525E-007
  -48.7600000000000         1.581052349953725E-007
  -48.5700000000000         1.584060974963721E-007
  -48.3800000000000         1.597622142651838E-007
  -48.1900000000000         1.607712984530539E-007
  -48.0000000000000         1.621681443847653E-007
  -47.8100000000000         1.643552307614784E-007
  -47.6200000000000         1.668100733991678E-007
  -47.4300000000000         1.696364256459533E-007
  -47.2400000000000         1.728443719809971E-007
  -47.0500000000000         1.753796145434719E-007
  -46.8600000000000         1.781865790657660E-007
  -46.6700000000000         1.806402577565952E-007
  -46.4800000000000         1.830389128815642E-007
  -46.2900000000000         1.853553995277046E-007
  -46.1000000000000         1.873851679679528E-007
  -45.9100000000000         1.893182691432884E-007
  -45.7200000000000         1.908226635031845E-007
  -45.5300000000000         1.920044813362488E-007
  -45.3400000000000         1.926188737863767E-007
  -45.1500000000000         1.930819233367654E-007
  -44.9600000000000         1.936751086568485E-007
  -44.7700000000000         1.944948169744265E-007
  -44.5800000000000         1.952806152865988E-007
  -44.3900000000000         1.961792587932292E-007
  -44.2000000000000         1.971840274574707E-007
  -44.0100000000000         1.981938523096857E-007
  -43.8200000000000         1.992061919410265E-007
  -43.6300000000000         2.001922198841195E-007
  -43.4400000000000         2.015320213768467E-007
  -43.2500000000000         2.029087378134030E-007
  -43.0600000000000         2.046495215862967E-007
  -42.8700000000000         2.060663018228317E-007
  -42.6800000000000         2.077404295326535E-007
  -42.4900000000000         2.089821636411326E-007
  -42.3000000000000         2.103873297867791E-007
  -42.1100000000000         2.113105027863939E-007
  -41.9200000000000         2.125186624836515E-007
  -41.7300000000000         2.134027392140306E-007
  -41.5400000000000         2.146448209280938E-007
  -41.3500000000000         2.155541964151606E-007
  -41.1600000000000         2.170149639599599E-007
  -40.9700000000000         2.178156187108965E-007
  -40.7800000000000         2.199788171263817E-007
  -40.5900000000000         2.212024142623054E-007
  -40.4000000000000         2.249786732490862E-007
  -40.2100000000000         2.260966884799584E-007
  -40.0200000000000         2.302580507998271E-007
  -39.8300000000000         2.313693681679580E-007
  -39.6400000000000         2.361366976945066E-007
  -39.4500000000000         2.370606773767939E-007
  -39.2600000000000         2.411419138754853E-007
  -39.0700000000000         2.421655781068097E-007
  -38.8800000000000         2.458608635361257E-007
  -38.6900000000000         2.465985839212067E-007
  -38.5000000000000         2.506207930649476E-007
  -38.3100000000000         2.516659949900176E-007
  -38.1200000000000         2.559300958567174E-007
  -37.9300000000000         2.573543311364672E-007
  -37.7400000000000         2.614568939349731E-007
  -37.5500000000000         2.628224289209254E-007
  -37.3600000000000         2.664405480029077E-007
  -37.1700000000000         2.678646680416802E-007
  -36.9800000000000         2.715334195893695E-007
  -36.7900000000000         2.731881680929123E-007
  -36.6000000000000         2.771449410049876E-007
  -36.4100000000000         2.786300654809034E-007
  -36.2200000000000         2.824316088613906E-007
  -36.0300000000000         2.835985214422726E-007
  -35.8400000000000         2.866220372025945E-007
  -35.6500000000000         2.876318677845273E-007
  -35.4600000000000         2.905395430113004E-007
  -35.2700000000000         2.917617162253113E-007
  -35.0800000000000         2.953921657514050E-007
  -34.8900000000000         2.967767283505739E-007
  -34.7000000000000         3.013581931589112E-007
  -34.5100000000000         3.028637429379482E-007
  -34.3200000000000         3.076556298286168E-007
  -34.1300000000000         3.093423837138183E-007
  -33.9400000000000         3.147693603106803E-007
  -33.7500000000000         3.163549911557310E-007
  -33.5600000000000         3.217352745611117E-007
  -33.3700000000000         3.233057960237517E-007
  -33.1800000000000         3.282896895420907E-007
  -32.9900000000000         3.295984642117016E-007
  -32.8000000000000         3.338379732096639E-007
  -32.6100000000000         3.352515699188722E-007
  -32.4200000000000         3.393630306419992E-007
  -32.2300000000000         3.408351252685730E-007
  -32.0400000000000         3.453092811895582E-007
  -31.8500000000000         3.469727551824431E-007
  -31.6600000000000         3.519490984903094E-007
  -31.4700000000000         3.536930771738178E-007
  -31.2800000000000         3.590612726749948E-007
  -31.0900000000000         3.609694728055645E-007
  -30.9000000000000         3.664423012873594E-007
  -30.7100000000000         3.682912643503833E-007
  -30.5200000000000         3.731597210186386E-007
  -30.3300000000000         3.748368546830290E-007
  -30.1400000000000         3.794915494619871E-007
  -29.9500000000000         3.811874973142466E-007
  -29.7600000000000         3.860216391929254E-007
  -29.5700000000000         3.875827201337971E-007
  -29.3800000000000         3.916981941834965E-007
  -29.1900000000000         3.930308264812658E-007
  -29.0000000000000         3.960357170815551E-007
  -28.8100000000000         3.972470043925493E-007
  -28.6200000000000         3.998187552883373E-007
  -28.4300000000000         4.010400207422871E-007
  -28.2400000000000         4.034041747444251E-007
  -28.0500000000000         4.044156681562074E-007
  -27.8600000000000         4.065364234311265E-007
  -27.6700000000000         4.077328716700112E-007
  -27.4800000000000         4.097835588695664E-007
  -27.2900000000000         4.117315493834783E-007
  -27.1000000000000         4.136713725568149E-007
  -26.9100000000000         4.155756654986290E-007
  -26.7200000000000         4.173798615895487E-007
  -26.5300000000000         4.193348397983468E-007
  -26.3400000000000         4.210268362380533E-007
  -26.1500000000000         4.229021740885021E-007
  -25.9600000000000         4.246751659465663E-007
  -25.7700000000000         4.265747257084102E-007
  -25.5800000000000         4.285138518193467E-007
  -25.3900000000000         4.304136002328122E-007
  -25.2000000000000         4.323856161249337E-007
  -25.0100000000000         4.347920790937657E-007
  -24.8200000000000         4.372699983465668E-007
  -24.6300000000000         4.402086327732187E-007
  -24.4400000000000         4.431658780305540E-007
  -24.2500000000000         4.458584374927939E-007
  -24.0600000000000         4.488025764219208E-007
  -23.8700000000000         4.514553121719463E-007
  -23.6800000000000         4.540798982135533E-007
  -23.4900000000000         4.569153482373830E-007
  -23.3000000000000         4.597889459208831E-007
  -23.1100000000000         4.625672497723151E-007
  -22.9200000000000         4.652122246334959E-007
  -22.7300000000000         4.676370811630067E-007
  -22.5400000000000         4.698393582582704E-007
  -22.3500000000000         4.722484396517782E-007
  -22.1600000000000         4.750130156197471E-007
  -21.9700000000000         4.779138501189277E-007
  -21.7800000000000         4.807438990805002E-007
  -21.5900000000000         4.837301095265816E-007
  -21.4000000000000         4.863733347224474E-007
  -21.2100000000000         4.888031193507706E-007
  -21.0200000000000         4.919949901685068E-007
  -20.8300000000000         4.930563207106441E-007
  -20.6400000000000         4.973648699080359E-007
  -20.4500000000000         4.981933644968641E-007
  -20.2600000000000         5.039125907108206E-007
  -20.0700000000000         5.054410792554714E-007
  -19.8800000000000         5.090059821757501E-007
  -19.6900000000000         5.148317959926797E-007
  -19.5000000000000         5.154793551626141E-007
  -19.3100000000000         5.217953192884010E-007
  -19.1200000000000         5.231628277009104E-007
  -18.9300000000000         5.274608940831743E-007
  -18.7400000000000         5.285243048945797E-007
  -18.5500000000000         5.331754036101569E-007
  -18.3600000000000         5.341281033402639E-007
  -18.1700000000000         5.379764360539567E-007
  -17.9800000000000         5.419398284650197E-007
  -17.7900000000000         5.422921130332410E-007
  -17.6000000000000         5.463582181265743E-007
  -17.4100000000000         5.466063451367471E-007
  -17.2200000000000         5.496259585599734E-007
  -17.0300000000000         5.501053800582320E-007
  -16.8400000000000         5.538390408739307E-007
  -16.6500000000000         5.544304245578946E-007
  -16.4600000000000         5.580496125752673E-007
  -16.2700000000000         5.588093152440006E-007
  -16.0800000000000         5.629167149379681E-007
  -15.8900000000000         5.640594664766291E-007
  -15.7000000000000         5.697380138369284E-007
  -15.5100000000000         5.709916634294606E-007
  -15.3200000000000         5.779472070420851E-007
  -15.1300000000000         5.793552479531897E-007
  -14.9400000000000         5.853546303910321E-007
  -14.7500000000000         5.862990626045356E-007
  -14.5600000000000         5.922638564929249E-007
  -14.3700000000000         5.934510648912429E-007
  -14.1800000000000         5.990432404551698E-007
  -13.9900000000000         6.000904002064528E-007
  -13.8000000000000         6.060229269969188E-007
  -13.6100000000000         6.064845346158819E-007
  -13.4200000000000         6.111098361171935E-007
  -13.2300000000000         6.116239229532347E-007
  -13.0400000000000         6.166845411840805E-007
  -12.8500000000000         6.171602633909717E-007
  -12.6600000000000         6.221914885247285E-007
  -12.4700000000000         6.229155325378191E-007
  -12.2800000000000         6.288679146753148E-007
  -12.0900000000000         6.293832377539336E-007
  -11.9000000000000         6.349982600865203E-007
  -11.7100000000000         6.357024407250714E-007
  -11.5200000000000         6.418956557620543E-007
  -11.3300000000000         6.426759462384880E-007
  -11.1400000000000         6.485258682046369E-007
  -10.9500000000000         6.493642893301525E-007
  -10.7600000000000         6.567158609404866E-007
  -10.5700000000000         6.577112837571091E-007
  -10.3800000000000         6.641317046275717E-007
  -10.1900000000000         6.651979874555865E-007
  -10.0000000000000         6.725249886608612E-007
  -9.81000000000000         6.731831846567226E-007
  -9.62000000000000         6.782027547433318E-007
  -9.42999999999999         6.791007065606282E-007
  -9.23999999999999         6.848254814325609E-007
  -9.05000000000000         6.851274595118676E-007
  -8.86000000000000         6.903375996813191E-007
  -8.67000000000000         6.908211247750769E-007
  -8.48000000000000         6.962054748758503E-007
  -8.28999999999999         6.965672613596554E-007
  -8.09999999999999         7.013980899924645E-007
  -7.91000000000000         7.019311520871479E-007
  -7.72000000000000         7.073340232465551E-007
  -7.53000000000000         7.077720390702925E-007
  -7.34000000000000         7.129207912533830E-007
  -7.15000000000001         7.134058214436081E-007
  -6.95999999999999         7.186024757087679E-007
  -6.77000000000000         7.187809711625912E-007
  -6.58000000000000         7.229561778665765E-007
  -6.39000000000000         7.233083396936876E-007
  -6.20000000000000         7.281643757624848E-007
  -6.01000000000001         7.283525565483635E-007
  -5.81999999999999         7.310427795236594E-007
  -5.63000000000000         7.354773163772531E-007
  -5.44000000000000         7.354229023165123E-007
  -5.25000000000000         7.392277836829407E-007
  -5.06000000000000         7.394610628398420E-007
  -4.87000000000000         7.435672509097773E-007
  -4.67999999999999         7.437671724758006E-007
  -4.48999999999999         7.455618356580986E-007
  -4.30000000000000         7.502924990821994E-007
  -4.11000000000000         7.502736990814935E-007
  -3.92000000000000         7.522377573772185E-007
  -3.73000000000000         7.564818869449890E-007
  -3.53999999999999         7.564421288003306E-007
  -3.34999999999999         7.583110340107194E-007
  -3.16000000000000         7.624994982171058E-007
  -2.97000000000000         7.626838499120394E-007
  -2.78000000000000         7.666171160431673E-007
  -2.59000000000000         7.665614812855230E-007
  -2.40000000000001         7.684306603371046E-007
  -2.20999999999999         7.727235684074356E-007
  -2.02000000000000         7.727525776342564E-007
  -1.83000000000000         7.748695555397783E-007
  -1.64000000000000         7.795619697546019E-007
  -1.45000000000000         7.795739412298794E-007
  -1.26000000000001         7.821323740158469E-007
  -1.06999999999999         7.869738847774000E-007
 -0.879999999999995         7.873739186810576E-007
 -0.689999999999998         7.898526861521858E-007
 -0.500000000000000         7.927722519344628E-007
 -0.310000000000002         7.972797137813386E-007
 -0.120000000000005         7.974322033618089E-007
  7.000000000000739E-002    7.996494123206722E-007
  0.260000000000005         8.024257568185140E-007
  0.450000000000003         8.029282358596822E-007
  0.640000000000001         8.066845232575559E-007
  0.829999999999998         8.078613688460092E-007
   1.02000000000000         8.106565819862166E-007
   1.21000000000001         8.138523894317830E-007
   1.40000000000001         8.158842215251018E-007
   1.59000000000000         8.172992110502365E-007
   1.78000000000000         8.183429047063680E-007
   1.97000000000000         8.192238240565411E-007
   2.16000000000000         8.200195649097587E-007
   2.34999999999999         8.230206231153346E-007
   2.54000000000001         8.261143284872877E-007
   2.73000000000000         8.300628904792790E-007
   2.92000000000000         8.341117987545879E-007
   3.11000000000000         8.374136917391654E-007
   3.30000000000000         8.400580437782655E-007
   3.48999999999999         8.423905022907524E-007
   3.68000000000001         8.444557348107896E-007
   3.87000000000000         8.467005054611419E-007
   4.06000000000000         8.484378337201675E-007
   4.25000000000000         8.508601267429544E-007
   4.44000000000000         8.526671194624529E-007
   4.63000000000000         8.552700269396653E-007
   4.82000000000001         8.571901024122920E-007
   5.01000000000001         8.601289558683422E-007
   5.20000000000000         8.619636258120289E-007
   5.39000000000000         8.646833235640042E-007
   5.58000000000000         8.666922055658380E-007
   5.77000000000000         8.689773053682296E-007
   5.96000000000001         8.712930007903809E-007
   6.15000000000001         8.734864308466904E-007
   6.34000000000000         8.757597791679397E-007
   6.53000000000000         8.778204655391935E-007