  -105.000000000000         5.605819707098422E-019
  -104.810000000000         4.246029596152720E-019
  -104.620000000000         1.983525112617964E-019
  -104.430000000000        -5.477106070210813E-020
  -104.240000000000        -2.643004628725092E-019
  -104.050000000000        -3.729948912747322E-019
  -103.860000000000        -3.532878956385148E-019
  -103.670000000000        -2.151060187646284E-019
  -103.480000000000        -2.785194507981815E-021
  -103.290000000000         2.180043829557277E-019
  -103.100000000000         3.794956479416900E-019
  -102.910000000000         4.316095327434872E-019
  -102.720000000000         3.565412969988957E-019
  -102.530000000000         1.739412194374481E-019
  -102.340000000000        -6.478226543208262E-020
  -102.150000000000        -2.913746865136937E-019
  -101.960000000000        -4.405532744172730E-019
  -101.770000000000        -4.690027036636656E-019
  -101.580000000000        -3.680393881944765E-019
  -101.390000000000        -1.662440210380463E-019
  -101.200000000000         7.873709241957578E-020
  -101.010000000000         2.968589158043029E-019
  -100.820000000000         4.259594119805654E-019
  -100.630000000000         4.297386202835994E-019
  -100.440000000000         3.082037126917912E-019
  -100.250000000000         9.756848201459083E-020
  -100.060000000000        -1.403263913237258E-019
  -99.8700000000000        -3.359781017679784E-019
  -99.6800000000000        -4.323660661152569E-019
  -99.4900000000000        -4.014617325737475E-019
  -99.3000000000000        -2.523404634437180E-019
  -99.1100000000000        -2.854176083911371E-020
  -98.9200000000000         2.045796292121025E-019
  -98.7300000000000         3.788610164876421E-019
  -98.5400000000000         4.431750983264331E-019
  -98.3500000000000         3.783222453288238E-019
  -98.1600000000000         2.026244961473814E-019
  -97.9700000000000        -3.340358955676970E-020
  -97.7800000000000        -2.617388014461753E-019
  -97.5900000000000        -4.166014557518163E-019
  -97.4000000000000        -4.535368198417344E-019
  -97.2100000000000        -3.623021325085959E-019
  -97.0200000000000        -1.698348902166511E-019
  -96.8300000000000         6.756176315745700E-020
  -96.6400000000000         2.805682086490623E-019
  -96.4500000000000         4.070026131981229E-019
  -96.2600000000000         4.099240768333497E-019
  -96.0700000000000         2.884035809791233E-019
  -95.8800000000000         7.780981328530949E-020
  -95.6900000000000        -1.604784052617269E-019
  -95.5000000000000        -3.569274888910664E-019
  -95.3100000000000        -4.540646074412265E-019
  -95.1200000000000        -4.231799887906744E-019
  -94.9300000000000        -2.726855529992840E-019
  -94.7400000000000        -4.572251705309977E-020
  -94.5500000000000         1.922918020219383E-019
  -94.3600000000000         3.725922711686151E-019
  -94.1700000000000         4.430069442619162E-019
  -93.9800000000000         3.831311636985378E-019
  -93.7900000000000         2.103074679243943E-019
  -93.6000000000000        -2.535983906595992E-020
  -93.4100000000000        -2.555253237160691E-019
  -93.2200000000000        -4.134281821526166E-019
  -93.0300000000000        -4.532397459443943E-019
  -92.8400000000000        -3.633077754764053E-019
  -92.6500000000000        -1.694777262229002E-019
  -92.4600000000000         7.243255049177707E-020
  -92.2700000000000         2.927960184052798E-019
  -92.0800000000000         4.282973546015082E-019
  -91.8900000000000         4.402096525216940E-019
  -91.7000000000000         3.255575877419505E-019
  -91.5100000000000         1.179344278640894E-019
  -91.3200000000000        -1.222823726076181E-019
  -91.1300000000000        -3.254951475561318E-019
  -90.9400000000000        -4.331283451613735E-019
  -90.7500000000000        -4.146522738949402E-019
  -90.5600000000000        -2.764283035525752E-019
  -90.3700000000000        -5.981021420079330E-020
  -90.1800000000000         1.709252942376234E-019
  -89.9900000000000         3.472940362438797E-019
  -89.8000000000000         4.165340638316668E-019
  -89.6100000000000         3.569887738445131E-019
  -89.4200000000000         1.845013038813939E-019
  -89.2300000000000        -5.203898959629321E-020
  -89.0400000000000        -2.847352371197035E-019
  -88.8500000000000        -4.462660823775849E-019
  -88.6600000000000        -4.893446143908397E-019
  -88.4700000000000        -4.003996953849264E-019
  -88.2800000000000        -2.034983701203201E-019
  -88.0900000000000         4.662472342166437E-020
  -87.9000000000000         2.803857505885382E-019
  -87.7100000000000         4.334064209820993E-019
  -87.5200000000000         4.649890541954566E-019
  -87.3300000000000         3.696813659383363E-019
  -87.1400000000000         1.786111308379435E-019
  -86.9500000000000        -4.977736073163185E-020
  -86.7600000000000        -2.468966665918751E-019
  -86.5700000000000        -3.541169304303998E-019
  -86.3800000000000        -3.399429343585512E-019
  -86.1900000000000        -2.092424655344465E-019
  -86.0000000000000        -1.807380712052309E-021
  -85.8100000000000         2.193435848098084E-019
  -85.6200000000000         3.864900126002570E-019
  -85.4300000000000         4.471292481235480E-019
  -85.2400000000000         3.794667159476866E-019
  -85.0500000000000         1.989729751878004E-019
  -84.8600000000000        -4.588229245101870E-020
  -84.6700000000000        -2.874751260974835E-019
  -84.4800000000000        -4.584532823784072E-019
  -84.2900000000000        -5.111446299684329E-019
  -84.1000000000000        -4.313428623416283E-019
  -83.9100000000000        -2.424616504498988E-019
  -83.7200000000000         1.185337304175802E-021
  -83.5300000000000         2.300635689533626E-019
  -83.3400000000000         3.795152638212924E-019
  -83.1500000000000         4.084296427449976E-019
  -82.9600000000000         3.110532714351180E-019
  -82.7700000000000         1.185174163532940E-019
  -82.5800000000000        -1.103374386904663E-019
  -82.3900000000000        -3.061543871328472E-019
  -82.2000000000000        -4.092799285788238E-019
  -82.0100000000000        -3.871636466142673E-019
  -81.8200000000000        -2.439070982510895E-019
  -81.6300000000000        -1.918581836715071E-020
  -81.4400000000000         2.231699166837420E-019
  -81.2500000000000         4.136497448216203E-019
  -81.0600000000000         4.972399907021207E-019
  -80.8700000000000         4.494311170189976E-019
  -80.6800000000000         2.833854333280510E-019
  -80.4900000000000         4.617302559967270E-020
  -80.3000000000000        -1.948235976562357E-019
  -80.1100000000000        -3.713792534504436E-019
  -79.9200000000000        -4.341270206681504E-019
  -79.7300000000000        -3.667989222095388E-019
  -79.5400000000000        -1.908957493992102E-019
  -79.3500000000000         4.057286623477118E-020
  -79.1600000000000         2.584911241467219E-019
  -78.9700000000000         3.977454354613692E-019
  -78.7800000000000         4.162109252202969E-019
  -78.5900000000000         3.070798543641665E-019
  -78.4000000000000         1.009151014370636E-019
  -78.2100000000000        -1.431850691985412E-019
  -78.0200000000000        -3.547303232848038E-019
  -77.8300000000000        -4.722839857106735E-019
  -77.6400000000000        -4.612655537998278E-019
  -77.4500000000000        -3.239641684703127E-019
  -77.2600000000000        -9.889612883620772E-020
  -77.0700000000000         1.502801436478061E-019
  -76.8800000000000         3.530829323487156E-019
  -76.6900000000000         4.524825310105052E-019
  -76.5000000000000         4.212900935692856E-019
  -76.3100000000000         2.699222610498174E-019
  -76.1200000000000         4.328594318925503E-020
  -75.9300000000000        -1.923142899175998E-019
  -75.7400000000000        -3.684330986378904E-019
  -75.5500000000000        -4.342953361486516E-019
  -75.3600000000000        -3.714036228535796E-019
  -75.1700000000000        -1.987267453378149E-019
  -74.9800000000000         3.298566930827779E-020
  -74.7900000000000         2.560619410040580E-019
  -74.6000000000000         4.056095335952858E-019
  -74.4100000000000         4.383574539833740E-019
  -74.2200000000000         3.451981855140877E-019
  -74.0300000000000         1.538001803455722E-019
  -73.8400000000000        -7.947596670413871E-020
  -73.6500000000000        -2.860233807751580E-019
  -73.4600000000000        -4.050202548887016E-019
  -73.2700000000000        -4.012103655930650E-019
  -73.0800000000000        -2.752458531507124E-019
  -72.8900000000000        -6.358032612538942E-020
  -72.7000000000000         1.720480238880354E-019
  -72.5100000000000         3.624828945558576E-019
  -72.3200000000000         4.511919660332115E-019
  -72.1300000000000         4.106949817515238E-019
  -71.9400000000000         2.506298588384683E-019
  -71.7500000000000         1.510785149415668E-020
  -71.5600000000000        -2.299111679801579E-019
  -71.3700000000000        -4.156021479154698E-019
  -71.1800000000000        -4.901264926099251E-019
  -70.9900000000000        -4.335739866703509E-019
  -70.8000000000000        -2.636278361847895E-019
  -70.6100000000000        -3.029890221282272E-020
  -70.4200000000000         1.987169120501790E-019
  -70.2300000000000         3.577651221879083E-019
  -70.0400000000000         4.022881360973769E-019
  -69.8500000000000         3.216812782602981E-019
  -69.6600000000000         1.422438914793548E-019
  -69.4700000000000        -8.060752863558627E-020
  -69.2800000000000        -2.786027656488960E-019
  -69.0900000000000        -3.906505649068099E-019
  -68.9000000000000        -3.808252755940196E-019
  -68.7100000000000        -2.490547239057712E-019
  -68.5200000000000        -3.135713338347387E-020
  -68.3300000000000         2.104788885149915E-019
  -68.1400000000000         4.067800420643613E-019
  -67.9500000000000         5.002245965042729E-019
  -67.7600000000000         4.625289899144009E-019
  -67.5700000000000         3.027360789885417E-019
  -67.3800000000000         6.471573670291482E-020
  -67.1900000000000        -1.853839884202322E-019
  -67.0000000000000        -3.781090850215143E-019
  -66.8100000000000        -4.606319269268094E-019
  -66.6200000000000        -4.119021988702481E-019
  -66.4300000000000        -2.486367634631240E-019
  -66.2400000000000        -2.039682362100721E-020
  -66.0500000000000         2.048457514195030E-019
  -65.8600000000000         3.604796409530350E-019
  -65.6700000000000         4.006178572797848E-019
  -65.4800000000000         3.134173773785540E-019
  -65.2900000000000         1.244845224374612E-019
  -65.1000000000000        -1.106078394186561E-019
  -64.9100000000000        -3.225022882789434E-019
  -64.7200000000000        -4.482395880315393E-019
  -64.5300000000000        -4.495983404337278E-019
  -64.3400000000000        -3.242820517224193E-019
  -64.1500000000000        -1.067019407165706E-019
  -63.9600000000000         1.418966096055322E-019
  -63.7700000000000         3.511244941541830E-019
  -63.5800000000000         4.618245826413721E-019
  -63.3900000000000         4.431939035915691E-019
  -63.2000000000000         3.016545696950574E-019
  -63.0100000000000         7.889757419759160E-020
  -62.8200000000000        -1.603004931813234E-019
  -62.6300000000000        -3.469088325341612E-019
  -62.4400000000000        -4.276350271376777E-019
  -62.2500000000000        -3.802929325737427E-019
  -62.0600000000000        -2.201273290615870E-019
  -61.8700000000000         4.706289836584513E-021
  -61.6800000000000         2.271923848426309E-019
  -61.4900000000000         3.809797276192794E-019
  -61.3000000000000         4.197286064288200E-019
  -61.1100000000000         3.306574007475752E-019
  -60.9200000000000         1.383336405929687E-019
  -60.7300000000000        -1.024040879844316E-019
  -60.5400000000000        -3.223265246452027E-019
  -60.3500000000000        -4.578572344858697E-019
  -60.1600000000000        -4.694427333615251E-019
  -59.9700000000000        -3.529341865298985E-019
  -59.7800000000000        -1.407252814511847E-019
  -59.5900000000000         1.076376747500592E-019
  -59.4000000000000         3.226357887980397E-019
  -59.2100000000000         4.447872083221000E-019
  -59.0200000000000         4.417195068240273E-019
  -58.8300000000000         3.173775739186007E-019
  -58.6400000000000         1.106987906590742E-019
  -58.4500000000000        -1.158662860045975E-019
  -58.2600000000000        -2.946501184776784E-019
  -58.0700000000000        -3.725448559231020E-019
  -57.8800000000000        -3.264895493749804E-019
  -57.6900000000000        -1.701623606483590E-019
  -57.5000000000000         5.005073075902361E-020
  -57.3100000000000         2.686186412542453E-019
  -57.1200000000000         4.200111124200334E-019
  -56.9300000000000         4.578725111714189E-019
  -56.7400000000000         3.686595285549502E-019
  -56.5500000000000         1.757676477647404E-019
  -56.3600000000000        -6.708842392837019E-020
  -56.1700000000000        -2.913562500625498E-019
  -55.9800000000000        -4.335066506851006E-019
  -55.7900000000000        -4.534885871827058E-019
  -55.6000000000000        -3.463895888740874E-019
  -55.4100000000000        -1.439014316629012E-019
  -55.2200000000000         9.482662488794661E-020
  -55.0300000000000         3.002775422072447E-019
  -54.8400000000000         4.126419761164566E-019
  -54.6500000000000         3.990828670033988E-019
  -54.4600000000000         2.632172836612015E-019
  -54.2700000000000         4.407881399975083E-020
  -54.0800000000000        -1.951629495303894E-019
  -53.8900000000000        -3.854978643679654E-019
  -53.7000000000000        -4.721054104503582E-019
  -53.5100000000000        -4.302958619990656E-019
  -53.3200000000000        -2.726948325680060E-019
  -53.1300000000000        -4.554775529569070E-020
  -52.9400000000000         1.847885861099692E-019
  -52.7500000000000         3.512172208905860E-019
  -52.5600000000000         4.054743002939575E-019
  -52.3700000000000         3.322057683196089E-019
  -52.1800000000000         1.534686274724799E-019
  -51.9900000000000        -7.763917174535013E-020
  -51.8000000000000        -2.923782872828091E-019
  -51.6100000000000        -4.263509222652531E-019
  -51.4200000000000        -4.382864500336580E-019
  -51.2300000000000        -3.221710096368435E-019
  -51.0400000000000        -1.091668397437178E-019
  -50.8500000000000         1.412758286699520E-019
  -50.6600000000000         3.585549277007687E-019
  -50.4700000000000         4.813203790146328E-019
  -50.2800000000000         4.752072660263011E-019
  -50.0900000000000         3.427486624698887E-019
  -49.9000000000000         1.226072137212715E-019
  -49.7100000000000        -1.216318653326675E-019
  -49.5200000000000        -3.198508804739077E-019
  -49.3300000000000        -4.156552212197379E-019
  -49.1400000000000        -3.826435770069428E-019
  -48.9500000000000        -2.319851398865282E-019
  -48.7600000000000        -9.098010540322428E-021
  -48.5700000000000         2.196200542963866E-019
  -48.3800000000000         3.861550965805237E-019
  -48.1900000000000         4.406930413089942E-019
  -48.0000000000000         3.661148647039448E-019
  -47.8100000000000         1.829644834601735E-019
  -47.6200000000000        -5.652438395807159E-020
  -47.4300000000000        -2.835743822382211E-019
  -47.2400000000000        -4.327773225987711E-019
  -47.0500000000000        -4.610195569801548E-019
  -46.8600000000000        -3.599684447506888E-019
  -46.6700000000000        -1.585182961279748E-019
  -46.4800000000000         8.552860518255091E-020
  -46.2900000000000         3.021676886508739E-019
  -46.1000000000000         4.294609752294219E-019
  -45.9100000000000         4.314800398868928E-019
  -45.7200000000000         3.086873746983994E-019
  -45.5300000000000         9.772361239888694E-020
  -45.3400000000000        -1.393255932095669E-019
  -45.1500000000000        -3.330299299681605E-019
  -44.9600000000000        -4.267949848517894E-019
  -44.7700000000000        -3.932643393380455E-019
  -44.5800000000000        -2.422139365338039E-019
  -44.3900000000000        -1.768512490077925E-020
  -44.2000000000000         2.147967896955393E-019
  -44.0100000000000         3.872244705086797E-019
  -43.8200000000000         4.488432443780226E-019
  -43.6300000000000         3.809040656707496E-019
  -43.4400000000000         2.021435314788588E-019
  -43.2500000000000        -3.661589583381096E-020
  -43.0600000000000        -2.671797265299732E-019
  -42.8700000000000        -4.237216377919779E-019
  -42.6800000000000        -4.618038717002237E-019
  -42.4900000000000        -3.711633954126003E-019
  -42.3000000000000        -1.785839747134596E-019
  -42.1100000000000         5.994417313547774E-020
  -41.9200000000000         2.754875888012458E-019
  -41.7300000000000         4.061493470132894E-019
  -41.5400000000000         4.149912468406335E-019
  -41.3500000000000         3.007084005710712E-019
  -41.1600000000000         9.794837112992239E-020
  -40.9700000000000        -1.328346100619398E-019
  -40.7800000000000        -3.230474929829420E-019
  -40.5900000000000        -4.159990500710416E-019
  -40.4000000000000        -3.834661350864288E-019
  -40.2100000000000        -2.339604340812030E-019
  -40.0200000000000        -1.030255330751297E-020
  -39.8300000000000         2.227762310329195E-019
  -39.6400000000000         3.974020969529616E-019
  -39.4500000000000         4.622659979038147E-019
  -39.2600000000000         3.975718202290472E-019
  -39.0700000000000         2.208873206026330E-019
  -38.8800000000000        -1.783111041992680E-020
  -38.6900000000000        -2.506392864570195E-019
  -38.5000000000000        -4.112746810224367E-019
  -38.3100000000000        -4.543697660973994E-019
  -38.1200000000000        -3.685937044376562E-019
  -37.9300000000000        -1.798818372437341E-019
  -37.7400000000000         5.617330541882075E-020
  -37.5500000000000         2.705208752543731E-019
  -37.3600000000000         4.007032819702297E-019
  -37.1700000000000         4.089391517776619E-019
  -36.9800000000000         2.930214898595033E-019
  -36.7900000000000         8.690517039985553E-020
  -36.6000000000000        -1.491745643606385E-019
  -36.4100000000000        -3.462015414230169E-019
  -36.2200000000000        -4.464403109312632E-019
  -36.0300000000000        -4.202409669709372E-019
  -35.8400000000000        -2.746882345168603E-019
  -35.6500000000000        -5.155642988999431E-020
  -35.4600000000000         1.848458041069708E-019
  -35.2700000000000         3.663951571386028E-019
  -35.0800000000000         4.409741960137603E-019
  -34.8900000000000         3.876221258344650E-019
  -34.7000000000000         2.226229443449702E-019
  -34.5100000000000        -5.222417678105617E-021
  -34.3200000000000        -2.287660332098034E-019
  -34.1300000000000        -3.820283671690267E-019
  -33.9400000000000        -4.194136825864680E-019
  -33.7500000000000        -3.290484570545074E-019
  -33.5600000000000        -1.363460970310012E-019
  -33.3700000000000         1.032717305159381E-019
  -33.1800000000000         3.204042330788967E-019
  -32.9900000000000         4.517926577992096E-019
  -32.8000000000000         4.586762825319694E-019
  -32.6100000000000         3.380508508240296E-019
  -32.4200000000000         1.235767150054932E-019
  -32.2300000000000        -1.241086030898947E-019
  -32.0400000000000        -3.348629836011028E-019
  -31.8500000000000        -4.492541772179367E-019
  -31.6600000000000        -4.356873861488978E-019
  -31.4700000000000        -2.994959202363738E-019
  -31.2800000000000        -8.134679680421833E-020
  -31.0900000000000         1.546015406188755E-019
  -30.9000000000000         3.393640718502214E-019
  -30.7100000000000         4.191826376616653E-019
  -30.5200000000000         3.711176368004857E-019
  -30.3300000000000         2.096394803136016E-019
  -30.1400000000000        -1.767225586878698E-020
  -29.9500000000000        -2.440299257297963E-019
  -29.7600000000000        -4.028709007454484E-019
  -29.5700000000000        -4.471865532555584E-019
  -29.3800000000000        -3.631750867688774E-019
  -29.1900000000000        -1.742926447969915E-019
  -29.0000000000000         6.547138211678310E-020
  -28.8100000000000         2.871792332897824E-019
  -28.6200000000000         4.269111779514587E-019
  -28.4300000000000         4.443377528679275E-019
  -28.2400000000000         3.344900095883917E-019
  -28.0500000000000         1.292747493520277E-019
  -27.8600000000000        -1.117314994885375E-019
  -27.6700000000000        -3.185384184195415E-019
  -27.4800000000000        -4.310258114121962E-019
  -27.2900000000000        -4.163637221947985E-019
  -27.1000000000000        -2.785251427505089E-019
  -26.9100000000000        -5.714583948446018E-020
  -26.7200000000000         1.839369922518047E-019
  -26.5300000000000         3.751577621589702E-019
  -26.3400000000000         4.613669188160939E-019
  -26.1500000000000         4.178073243745201E-019
  -25.9600000000000         2.572723954320254E-019
  -25.7700000000000         2.634931090087132E-020
  -25.5800000000000        -2.081635237646196E-019
  -25.3900000000000        -3.786977750497567E-019
  -25.2000000000000        -4.365399931579085E-019
  -25.0100000000000        -3.659299815977962E-019
  -24.8200000000000        -1.885550478374762E-019
  -24.6300000000000         4.283494999370221E-020
  -24.4400000000000         2.598170590017853E-019
  -24.2500000000000         3.982221027163708E-019
  -24.0600000000000         4.168275323382905E-019
  -23.8700000000000         3.093927116724565E-019
  -23.6800000000000         1.065234406613496E-019
  -23.4900000000000        -1.332012972134560E-019
  -23.3000000000000        -3.402682056617140E-019
  -23.1100000000000        -4.544597595854997E-019
  -22.9200000000000        -4.423626294219082E-019
  -22.7300000000000        -3.070512774234947E-019
  -22.5400000000000        -8.715249696865032E-020
  -22.3500000000000         1.543945252848777E-019
  -22.1600000000000         3.485851044686654E-019
  -21.9700000000000         4.403093126571769E-019
  -21.7800000000000         4.042684713436784E-019
  -21.5900000000000         2.522636895177486E-019
  -21.4000000000000         2.974490708244811E-020
  -21.2100000000000        -1.974052746725983E-019
  -21.0200000000000        -3.620490772583583E-019
  -20.8300000000000        -4.153744668141973E-019
  -20.6400000000000        -3.411721194998525E-019
  -20.4500000000000        -1.606261327066240E-019
  -20.2600000000000         7.379446840578654E-020
  -20.0700000000000         2.935631386363308E-019
  -19.8800000000000         4.340016504044319E-019
  -19.6900000000000         4.530789694012637E-019
  -19.5000000000000         3.436594307957422E-019
  -19.3100000000000         1.356621043407053E-019
  -19.1200000000000        -1.124947801805151E-019
  -18.9300000000000        -3.307034959441750E-019
  -18.7400000000000        -4.573841853025825E-019
  -18.5500000000000        -4.572612576141853E-019
  -18.3600000000000        -3.315330092838255E-019
  -18.1700000000000        -1.174644704397677E-019
  -17.9800000000000         1.224828695320267E-019
  -17.7900000000000         3.188116170159728E-019
  -17.6000000000000         4.151451505715018E-019
  -17.4100000000000         3.845238810751545E-019
  -17.2200000000000         2.371290063999892E-019
  -17.0300000000000         1.722179303010136E-020
  -16.8400000000000        -2.097933037274262E-019
  -16.6500000000000        -3.764311693313460E-019
  -16.4600000000000        -4.328008426975878E-019
  -16.2700000000000        -3.611899115836004E-019
  -16.0800000000000        -1.813071222721492E-019
  -15.8900000000000         5.536759852406677E-020
  -15.7000000000000         2.804986096014957E-019
  -15.5100000000000         4.287326739209027E-019
  -15.3200000000000         4.566762519239922E-019
  -15.1300000000000         3.554918615279815E-019
  -14.9400000000000         1.534747782338694E-019
  -14.7500000000000        -9.210137326777128E-020
  -14.5600000000000        -3.114813181304858E-019
  -14.3700000000000        -4.424982770262661E-019
  -14.1800000000000        -4.484440226625693E-019
  -13.9900000000000        -3.285996641295988E-019
  -13.8000000000000        -1.183845029432308E-019
  -13.6100000000000         1.209401999537385E-019
  -13.4200000000000         3.200544234510034E-019
  -13.2300000000000         4.217009986141899E-019
  -13.0400000000000         3.972905020728756E-019
  -12.8500000000000         2.551454443262458E-019
  -12.6600000000000         3.798775593343960E-020
  -12.4700000000000        -1.895736124143662E-019
  -12.2800000000000        -3.598879798059655E-019
  -12.0900000000000        -4.219570781107328E-019
  -11.9000000000000        -3.562750143518748E-019
  -11.7100000000000        -1.805307508575065E-019
  -11.5200000000000         5.546962101811803E-020
  -11.3300000000000         2.841976130108906E-019
  -11.1400000000000         4.399595717850615E-019
  -10.9500000000000         4.779512503874840E-019
  -10.7600000000000         3.872645439114648E-019
  -10.5700000000000         1.940461068731508E-019
  -10.3800000000000        -4.611769924601147E-020
  -10.1900000000000        -2.643634914790165E-019
  -10.0000000000000        -3.985442893525419E-019
  -9.81000000000000        -4.112344119752145E-019
  -9.62000000000000        -3.005229049655586E-019
  -9.42999999999999        -1.004794782533217E-019
  -9.23999999999999         1.288293991308389E-019
  -9.05000000000000         3.188802013339498E-019
  -8.86000000000000         4.127066126261036E-019
  -8.67000000000000         3.815701047646059E-019
  -8.48000000000000         2.334133174876434E-019
  -8.28999999999999         1.060367471807879E-020
  -8.09999999999999        -2.223928359545871E-019
  -7.91000000000000        -3.978106639603449E-019
  -7.72000000000000        -4.643591338232575E-019
  -7.53000000000000        -4.021984242332242E-019
  -7.34000000000000        -2.287666416824002E-019
  -7.15000000000001         6.210527424267693E-021
  -6.95999999999999         2.350624178970354E-019
  -6.77000000000000         3.917203886801559E-019
  -6.58000000000000         4.308324693591036E-019
  -6.39000000000000         3.409233642026362E-019
  -6.20000000000000         1.477733502794312E-019
  -6.01000000000001        -9.299866228163266E-020
  -5.81999999999999        -3.120305924327513E-019
  -5.63000000000000        -4.463275855444597E-019
  -5.44000000000000        -4.575240371904838E-019
  -5.25000000000000        -3.429624322834588E-019
  -5.06000000000000        -1.363665317751810E-019
  -4.87000000000000         1.020592116862999E-019
  -4.67999999999999         3.031946439178709E-019
  -4.48999999999999         4.091185105457820E-019
  -4.30000000000000         3.899436659352141E-019
  -4.11000000000000         2.525077505640715E-019
  -3.92000000000000         3.840651765006446E-020
  -3.73000000000000        -1.880772585818346E-019
  -3.53999999999999        -3.586800548770160E-019
  -3.34999999999999        -4.210883818798557E-019
  -3.16000000000000        -3.542937033403593E-019
  -2.97000000000000        -1.748791262613880E-019
  -2.78000000000000         6.761589479521132E-020
  -2.59000000000000         3.049182464876194E-019
  -2.40000000000001         4.697019282667410E-019
  -2.20999999999999         5.150149668825539E-019
  -2.02000000000000         4.278265391844780E-019
  -1.83000000000000         2.327832054978983E-019
  -1.64000000000000        -1.490731569454081E-020
  -1.45000000000000        -2.454163194262563E-019
  -1.26000000000001        -3.944589816530241E-019
  -1.06999999999999        -4.218413635927236E-019
 -0.879999999999995        -3.229931513658811E-019
 -0.689999999999998        -1.301216705584073E-019
 -0.500000000000000         9.734591966808122E-020
 -0.310000000000002         2.902286042903041E-019
 -0.120000000000005         3.898503767803404E-019
  7.000000000000739E-002    3.651785603220908E-019
  0.260000000000005         2.218712417478725E-019
  0.450000000000003         6.420112527326093E-022
  0.640000000000001        -2.345537436248959E-019
  0.829999999999998        -4.150815550709367E-019
   1.02000000000000        -4.875727816258075E-019
   1.21000000000001        -4.294812338475890E-019
   1.40000000000001        -2.557348675148615E-019
   1.59000000000000        -1.452944583325925E-020
   1.78000000000000         2.265409450510376E-019
   1.97000000000000         3.999950292082237E-019
   2.16000000000000         4.579318005151039E-019
   2.34999999999999         3.857841724796420E-019
   2.54000000000001         2.063806670237359E-019
   2.73000000000000        -2.681978548154049E-020
   2.92000000000000        -2.453145619011842E-019
   3.11000000000000        -3.854306260998683E-019
   3.30000000000000        -4.067417320207491E-019
   3.48999999999999        -3.037272971362540E-019
   3.68000000000001        -1.073168847315621E-019
   3.87000000000000         1.241367399395840E-019
   4.06000000000000         3.218667334140106E-019
   4.25000000000000         4.267638775676154E-019
   4.44000000000000         4.066724470589439E-019
   4.63000000000000         2.658623385066790E-019
   4.82000000000001         4.390666008463425E-020
   5.01000000000001        -1.957158968551236E-019
   5.20000000000000        -3.839806733047523E-019
   5.39000000000000        -4.663059171863421E-019
   5.58000000000000        -4.183797699553251E-019
   5.77000000000000        -2.532512376402995E-019
   5.96000000000001        -1.763081032341013E-020
   6.15000000000001         2.215506884393827E-019
   6.34000000000000         3.964592049931554E-019
   6.53000000000000         4.579610697846265E-019