  -105.000000000000         8.895800118165162E-021
  -104.810000000000         1.985452671941618E-020
  -104.620000000000         1.677707690817013E-020
  -104.430000000000         5.487434826273504E-021
  -104.240000000000        -1.049369170840846E-021
  -104.050000000000         4.812489330969723E-021
  -103.860000000000         1.813998235755572E-020
  -103.670000000000         2.626033082257638E-020
  -103.480000000000         2.104110119022051E-020
  -103.290000000000         6.852292082012745E-021
  -103.100000000000        -3.427294515779996E-021
  -102.910000000000        -5.715766084033729E-022
  -102.720000000000         1.227029392512102E-020
  -102.530000000000         2.261997502499782E-020
  -102.340000000000         2.057349170129237E-020
  -102.150000000000         8.204625570595294E-021
  -101.960000000000        -2.485950864798474E-021
  -101.770000000000        -1.096634727270543E-021
  -101.580000000000         1.118725855439821E-020
  -101.390000000000         2.268843150440751E-020
  -101.200000000000         2.237769705530452E-020
  -101.010000000000         1.041333832685420E-020
  -100.820000000000        -2.003441805161615E-021
  -100.630000000000        -3.324530513913545E-021
  -100.440000000000         7.320770860878211E-021
  -100.250000000000         1.930668986058059E-020
  -100.060000000000         2.068110909126018E-020
  -99.8700000000000         9.617557084497409E-021
  -99.6800000000000        -3.791115660385832E-021
  -99.4900000000000        -7.131880377981017E-021
  -99.3000000000000         2.483924833265947E-021
  -99.1100000000000         1.564352504464816E-020
  -98.9200000000000         1.958834043925961E-020
  -98.7300000000000         1.036346718856665E-020
  -98.5400000000000        -3.422125316147801E-021
  -98.3500000000000        -8.797787554572382E-021
  -98.1600000000000        -7.711458065961992E-022
  -97.9700000000000         1.294502317229004E-020
  -97.7800000000000         1.930531646877806E-020
  -97.5900000000000         1.235566408313383E-020
  -97.4000000000000        -1.153905309878163E-021
  -97.2100000000000        -8.317028255567720E-021
  -97.0200000000000        -2.497805711137748E-021
  -96.8300000000000         1.026482742815282E-020
  -96.6400000000000         1.701070322641114E-020
  -96.4500000000000         1.028381024300097E-020
  -96.2600000000000        -4.630214449686061E-021
  -96.0700000000000        -1.457510703715603E-020
  -95.8800000000000        -1.088650967537244E-020
  -95.6900000000000         2.515903168462309E-021
  -95.5000000000000         1.299555664130622E-020
  -95.3100000000000         1.129293354886927E-020
  -95.1200000000000         2.650578699324356E-022
  -94.9300000000000        -8.069178832532333E-021
  -94.7400000000000        -4.303519295557981E-021
  -94.5500000000000         9.076862901769981E-021
  -94.3600000000000         1.984000764081443E-020
  -94.1700000000000         1.758322607411226E-020
  -93.9800000000000         3.713065745780111E-021
  -93.7900000000000        -9.723665187733553E-021
  -93.6000000000000        -1.129951789106249E-020
  -93.4100000000000        -8.630491394775537E-022
  -93.2200000000000         1.053824016392948E-020
  -93.0300000000000         1.136125541406988E-020
  -92.8400000000000         6.632624671389111E-022
  -92.6500000000000        -1.099574094301507E-020
  -92.4600000000000        -1.169584378176127E-020
  -92.2700000000000         3.411691530930045E-022
  -92.0800000000000         1.488679866797916E-020
  -91.8900000000000         1.929172467347638E-020
  -91.7000000000000         1.040109141838313E-020
  -91.5100000000000        -2.562279088530696E-021
  -91.3200000000000        -6.887604002123698E-021
  -91.1300000000000         1.460906199874641E-021
  -90.9400000000000         1.401886235162994E-020
  -90.7500000000000         1.797475562686375E-020
  -90.5600000000000         8.514070679490712E-021
  -90.3700000000000        -6.430289882541176E-021
  -90.1800000000000        -1.357273874484980E-020
  -89.9900000000000        -6.786940563462602E-021
  -89.8000000000000         7.176514016407207E-021
  -89.6100000000000         1.519075684236599E-020
  -89.4200000000000         1.023642958167521E-020
  -89.2300000000000        -2.045571559350262E-021
  -89.0400000000000        -8.940792313857844E-021
  -88.8500000000000        -2.993184313181824E-021
  -88.6600000000000         1.073498787545961E-020
  -88.4700000000000         1.943369289435630E-020
  -88.2800000000000         1.480153433824179E-020
  -88.0900000000000         1.064673027670640E-021
  -87.9000000000000        -8.944348848409381E-021
  -87.7100000000000        -5.944181255634863E-021
  -87.5200000000000         6.988524635436278E-021
  -87.3300000000000         1.736041464827756E-020
  -87.1400000000000         1.514337281606075E-020
  -86.9500000000000         2.277701180029893E-021
  -86.7600000000000        -9.237931742574094E-021
  -86.5700000000000        -8.815896932426119E-021
  -86.3800000000000         2.659500557137993E-021
  -86.1900000000000         1.378820798775475E-020
  -86.0000000000000         1.368625352787032E-020
  -85.8100000000000         2.501119594373716E-021
  -85.6200000000000        -8.682183857940267E-021
  -85.4300000000000        -8.472541397898232E-021
  -85.2400000000000         3.817792609293360E-021
  -85.0500000000000         1.732141203041086E-020
  -84.8600000000000         1.978046951591740E-020
  -84.6700000000000         9.081075489244183E-021
  -84.4800000000000        -4.814055967714345E-021
  -84.2900000000000        -9.365736505646323E-021
  -84.1000000000000        -1.319890281610008E-021
  -83.9100000000000         1.038179674737873E-020
  -83.7200000000000         1.338224557581089E-020
  -83.5300000000000         3.941533229091143E-021
  -83.3400000000000        -9.315626561264937E-021
  -83.1500000000000        -1.355130035857365E-020
  -82.9600000000000        -4.002207389896505E-021
  -82.7700000000000         1.134034830992331E-020
  -82.5800000000000         1.917239920046515E-020
  -82.3900000000000         1.338037180917614E-020
  -82.2000000000000         6.863924738130716E-022
  -82.0100000000000        -5.946448978806269E-021
  -81.8200000000000         1.618294145297343E-022
  -81.6300000000000         1.292707326289487E-020
  -81.4400000000000         1.926551313177501E-020
  -81.2500000000000         1.162718091951701E-020
  -81.0600000000000        -4.639395057299127E-021
  -80.8700000000000        -1.612574059507192E-020
  -80.6800000000000        -1.382999660537733E-020
  -80.4900000000000        -1.413742165714533E-021
  -80.3000000000000         8.565492978518944E-021
  -80.1100000000000         6.787279056537654E-021
  -79.9200000000000        -3.948020631357685E-021
  -79.7300000000000        -1.155307022021193E-020
  -79.5400000000000        -6.462481397755048E-021
  -79.3500000000000         8.896278882877919E-021
  -79.1600000000000         2.206187465594804E-020
  -78.9700000000000         2.212474956098593E-020
  -78.7800000000000         9.938658857747623E-021
  -78.5900000000000        -2.758328848115598E-021
  -78.4000000000000        -4.464769543907814E-021
  -78.2100000000000         5.321772682495605E-021
  -78.0200000000000         1.591575996400245E-020
  -77.8300000000000         1.591740296676284E-020
  -77.6400000000000         4.274746524815018E-021
  -77.4500000000000        -8.654179387776583E-021
  -77.2600000000000        -1.103537988371637E-020
  -77.0700000000000        -9.530405478269517E-022
  -76.8800000000000         1.168192379236672E-020
  -76.6900000000000         1.457555018961563E-020
  -76.5000000000000         4.826053443035744E-021
  -76.3100000000000        -8.245519149015708E-021
  -76.1200000000000        -1.194325110075684E-020
  -75.9300000000000        -2.300825687153259E-021
  -75.7400000000000         1.209318706790637E-020
  -75.5500000000000         1.820134583635853E-020
  -75.3600000000000         1.085968584968341E-020
  -75.1700000000000        -2.424662390298130E-021
  -74.9800000000000        -8.768547957708381E-021
  -74.7900000000000        -2.314561086530415E-021
  -74.6000000000000         1.013616303425654E-020
  -74.4100000000000         1.566284231329442E-020
  -74.2200000000000         7.692532709597558E-021
  -74.0300000000000        -7.525262363760010E-021
  -73.8400000000000        -1.665376787593217E-020
  -73.6500000000000        -1.179101208255973E-020
  -73.4600000000000         2.129652504068571E-021
  -73.2700000000000         1.210905866317803E-020
  -73.0800000000000         9.471609492253990E-021
  -72.8900000000000        -1.947711159830992E-021
  -72.7000000000000        -9.619835359885702E-021
  -72.5100000000000        -4.469735471447562E-021
  -72.3200000000000         1.026247089448734E-020
  -72.1300000000000         2.191216580646215E-020
  -71.9400000000000         2.028717737490236E-020
  -71.7500000000000         7.250697578665671E-021
  -71.5600000000000        -5.119080380476089E-021
  -71.3700000000000        -6.013484404216125E-021
  -71.1800000000000         3.949009110663673E-021
  -70.9900000000000         1.357515069140304E-020
  -70.8000000000000         1.209565157760650E-020
  -70.6100000000000        -2.630684462157532E-022
  -70.4200000000000        -1.229040820210629E-020
  -70.2300000000000        -1.241631442189917E-020
  -70.0400000000000         1.755037539018569E-022
  -69.8500000000000         1.457178566071119E-020
  -69.6600000000000         1.827803314105113E-020
  -69.4700000000000         8.867944068158074E-021
  -69.2800000000000        -3.937542536622563E-021
  -69.0900000000000        -7.705231557846817E-021
  -68.9000000000000         8.046517182544097E-022
  -68.7100000000000         1.263465503939270E-020
  -68.5200000000000         1.536115341993698E-020
  -68.3300000000000         5.173752721480462E-021
  -68.1400000000000        -9.275058582372597E-021
  -67.9500000000000        -1.496834860961840E-020
  -67.7600000000000        -6.873479828229185E-021
  -67.5700000000000         7.244254235419292E-021
  -67.3800000000000         1.416369874948745E-020
  -67.1900000000000         7.729494701405087E-021
  -67.0000000000000        -5.365867870286302E-021
  -66.8100000000000        -1.202351068303374E-020
  -66.6200000000000        -5.238282152919972E-021
  -66.4300000000000         9.253233500847546E-021
  -66.2400000000000         1.848254535607057E-020
  -66.0500000000000         1.462530005470284E-020
  -65.8600000000000         2.407392772951924E-021
  -65.6700000000000        -5.539066840113248E-021
  -65.4800000000000        -9.147318292738365E-022
  -65.2900000000000         1.215094759209737E-020
  -65.1000000000000         2.092494814499616E-020
  -64.9100000000000         1.618522041006225E-020
  -64.7200000000000         1.061662783912025E-021
  -64.5300000000000        -1.183979849501989E-020
  -64.3400000000000        -1.229871989262490E-020
  -64.1500000000000        -2.024442332094491E-021
  -63.9600000000000         7.212899230035430E-021
  -63.7700000000000         5.060984519081955E-021
  -63.5800000000000        -7.322776278322274E-021
  -63.3900000000000        -1.824199789108105E-020
  -63.2000000000000        -1.658918704004025E-020
  -63.0100000000000        -2.512091451355757E-021
  -62.8200000000000         1.256628299684017E-020
  -62.6300000000000         1.661456391886607E-020
  -62.4400000000000         8.208422818310241E-021
  -62.2500000000000        -2.371525542784572E-021
  -62.0600000000000        -3.187759757683449E-021
  -61.8700000000000         7.769983362002848E-021
  -61.6800000000000         2.055199947332712E-020
  -61.4900000000000         2.273170607550601E-020
  -61.3000000000000         1.135845927930864E-020
  -61.1100000000000        -4.034807814738785E-021
  -60.9200000000000        -1.026231799697952E-020
  -60.7300000000000        -2.779079806104142E-021
  -60.5400000000000         1.022563191320051E-020
  -60.3500000000000         1.578608866384060E-020
  -60.1600000000000         8.545729290043029E-021
  -59.9700000000000        -4.250626331048018E-021
  -59.7800000000000        -9.883118151028621E-021
  -59.5900000000000        -2.526284165978160E-021
  -59.4000000000000         1.100929287458861E-020
  -59.2100000000000         1.766623781636279E-020
  -59.0200000000000         1.055946663021361E-020
  -58.8300000000000        -4.430511825667609E-021
  -58.6400000000000        -1.418689315664001E-020
  -58.4500000000000        -1.074271995215785E-020
  -58.2600000000000         1.287031222114728E-021
  -58.0700000000000         9.306018336262143E-021
  -57.8800000000000         4.941692378314401E-021
  -57.6900000000000        -7.843725864793635E-021
  -57.5000000000000        -1.650507554233630E-020
  -57.3100000000000        -1.194112549126878E-020
  -57.1200000000000         2.706439596274661E-021
  -56.9300000000000         1.491096439605190E-020
  -56.7400000000000         1.457965110061010E-020
  -56.5500000000000         3.564315274654028E-021
  -56.3600000000000        -6.229114153764248E-021
  -56.1700000000000        -4.338973799066953E-021
  -55.9800000000000         8.140569277810561E-021
  -55.7900000000000         1.951846558817966E-020
  -55.6000000000000         1.863974070280960E-020
  -55.4100000000000         5.574153279516050E-021
  -55.2200000000000        -8.339995232061115E-021
  -55.0300000000000        -1.115654048785014E-020
  -54.8400000000000        -1.546385589519310E-021
  -54.6500000000000         1.010050213776959E-020
  -54.4600000000000         1.173796483456404E-020
  -54.2700000000000         1.277794104402359E-021
  -54.0800000000000        -1.134058182539938E-020
  -53.8900000000000        -1.360173706531011E-020
  -53.7000000000000        -2.367047755373741E-021
  -53.5100000000000         1.306589395445147E-020
  -53.3200000000000         1.970624954055237E-020
  -53.1300000000000         1.308260443514895E-020
  -52.9400000000000         1.292684757317806E-021
  -52.7500000000000        -2.956399596654130E-021
  -52.5600000000000         5.303858823575904E-021
  -52.3700000000000         1.838916775338189E-020
  -52.1800000000000         2.320010640541518E-020
  -51.9900000000000         1.371050265376048E-020
  -51.8000000000000        -3.208328466459682E-021
  -51.6100000000000        -1.417510956208469E-020
  -51.4200000000000        -1.180409227852905E-020
  -51.2300000000000        -1.421203346774235E-021
  -51.0400000000000         4.376803501902124E-021
  -50.8500000000000        -1.924600743039892E-021
  -50.6600000000000        -1.534449665076657E-020
  -50.4700000000000        -2.305750194092244E-020
  -50.2800000000000        -1.667940308560119E-020
  -50.0900000000000        -4.409133888416605E-022
  -49.9000000000000         1.258014849518674E-020
  -49.7100000000000         1.261297067269911E-020
  -49.5200000000000         2.195461000414676E-021
  -49.3300000000000        -6.508333929926183E-021
  -49.1400000000000        -3.481435649318079E-021
  -48.9500000000000         9.531512995379981E-021
  -48.7600000000000         2.074281427563093E-020
  -48.5700000000000         1.970369182790300E-020
  -48.3800000000000         7.433345501853397E-021
  -48.1900000000000        -4.416376622765585E-021
  -48.0000000000000        -4.582620021799877E-021
  -47.8100000000000         7.109952959732476E-021
  -47.6200000000000         1.957717497775862E-020
  -47.4300000000000         2.099920903645075E-020
  -47.2400000000000         1.001023925735642E-020
  -47.0500000000000        -3.112634967949264E-021
  -46.8600000000000        -6.372552969278972E-021
  -46.6700000000000         2.425509212166564E-021
  -46.4800000000000         1.358471776815452E-020
  -46.2900000000000         1.484665751039972E-020
  -46.1000000000000         3.204947049359830E-021
  -45.9100000000000        -1.210089265814259E-020
  -45.7200000000000        -1.828809309241187E-020
  -45.5300000000000        -1.113626466269620E-020
  -45.3400000000000         1.064155276683327E-021
  -45.1500000000000         5.508813220499598E-021
  -44.9600000000000        -2.807690189987895E-021
  -44.7700000000000        -1.623650380655905E-020
  -44.5800000000000        -2.173170085913048E-020
  -44.3900000000000        -1.329913029702228E-020
  -44.2000000000000         2.244608199981989E-021
  -44.0100000000000         1.170539849964625E-020
  -43.8200000000000         8.014816642159649E-021
  -43.6300000000000        -3.117996111640113E-021
  -43.4400000000000        -8.767233047336686E-021
  -43.2500000000000        -1.275122973132329E-021
  -43.0600000000000         1.426031627009017E-020
  -42.8700000000000         2.466436013180573E-020
  -42.6800000000000         2.109035450456046E-020
  -42.4900000000000         7.341867688764021E-021
  -42.3000000000000        -3.792640960759508E-021
  -42.1100000000000        -2.675943325526064E-021
  -41.9200000000000         8.138447173829793E-021
  -41.7300000000000         1.656185889874286E-020
  -41.5400000000000         1.276035234389189E-020
  -41.3500000000000        -1.204448933410392E-021
  -41.1600000000000        -1.311897657784091E-020
  -40.9700000000000        -1.210500715652275E-020
  -40.7800000000000         1.092523212697335E-021
  -40.5900000000000         1.480199235191699E-020
  -40.4000000000000         1.741255450162098E-020
  -40.2100000000000         8.178607059485505E-021
  -40.0200000000000        -2.416987326321555E-021
  -39.8300000000000        -3.018739881678566E-021
  -39.6400000000000         7.482211660054771E-021
  -39.4500000000000         1.874112561301895E-020
  -39.2600000000000         1.884058449067732E-020
  -39.0700000000000         5.800438843020154E-021
  -38.8800000000000        -1.031665909762736E-020
  -38.6900000000000        -1.675071567562139E-020
  -38.5000000000000        -9.952685567403202E-021
  -38.3100000000000         1.276285315171681E-021
  -38.1200000000000         4.386298285786119E-021
  -37.9300000000000        -4.802343453342013E-021
  -37.7400000000000        -1.804344751498649E-020
  -37.5500000000000        -2.254749578870810E-020
  -37.3600000000000        -1.325358250412870E-020
  -37.1700000000000         2.260283974479059E-021
  -36.9800000000000         1.093002122425336E-020
  -36.7900000000000         6.584870199364071E-021
  -36.6000000000000        -4.273164105848789E-021
  -36.4100000000000        -8.814938840865953E-021
  -36.2200000000000        -3.077613638638530E-022
  -36.0300000000000         1.525007793546226E-020
  -35.8400000000000         2.465500153588959E-020
  -35.6500000000000         1.995283888542478E-020
  -35.4600000000000         5.958670521775830E-021
  -35.2700000000000        -4.323082470689975E-021
  -35.0800000000000        -2.001898585528413E-021
  -34.8900000000000         9.395089827535457E-021
  -34.7000000000000         1.749905957064477E-020
  -34.5100000000000         1.309788700379839E-020
  -34.3200000000000        -9.275320947517213E-022
  -34.1300000000000        -1.228689300936679E-020
  -33.9400000000000        -1.103395426552750E-020
  -33.7500000000000         8.549281255840832E-022
  -33.5600000000000         1.126720547559155E-020
  -33.3700000000000         9.434966429187982E-021
  -33.1800000000000        -3.827840917314790E-021
  -32.9900000000000        -1.688323030388357E-020
  -32.8000000000000        -1.829043298770079E-020
  -32.6100000000000        -7.587746886552039E-021
  -32.4200000000000         4.429890711022406E-021
  -32.2300000000000         6.180875431184640E-021
  -32.0400000000000        -3.508126190138886E-021
  -31.8500000000000        -1.420591532023079E-020
  -31.6600000000000        -1.384326579288132E-020
  -31.4700000000000        -3.270997446259871E-022
  -31.2800000000000         1.629076868498724E-020
  -31.0900000000000         2.317079992410159E-020
  -30.9000000000000         1.666787683606071E-020
  -30.7100000000000         5.543217971699013E-021
  -30.5200000000000         2.366271539527192E-021
  -30.3300000000000         1.132704728148343E-020
  -30.1400000000000         2.411424609531112E-020
  -29.9500000000000         2.781628766522894E-020
  -29.7600000000000         1.730670772129886E-020
  -29.5700000000000         2.834659981744813E-022
  -29.3800000000000        -9.855467603509885E-021
  -29.1900000000000        -6.522862564445194E-021
  -29.0000000000000         4.053180054645143E-021
  -28.8100000000000         9.012271725892101E-021
  -28.6200000000000         1.303437013767050E-021
  -28.4300000000000        -1.349996792533893E-020
  -28.2400000000000        -2.251045979093813E-020
  -28.0500000000000        -1.785939799772163E-020
  -27.8600000000000        -4.237644884833635E-021
  -27.6700000000000         5.567504768512827E-021
  -27.4800000000000         2.861798753208376E-021
  -27.2900000000000        -8.691201136379571E-021
  -27.1000000000000        -1.662523728426743E-020
  -26.9100000000000        -1.166361392667799E-020
  -26.7200000000000         3.291017878552015E-021
  -26.5300000000000         1.576319043186675E-020
  -26.3400000000000         1.544046431937617E-020
  -26.1500000000000         3.850489835278950E-021
  -25.9600000000000        -7.234410570620430E-021
  -25.7700000000000        -7.098625015753166E-021
  -25.5800000000000         3.732977394702903E-021
  -25.3900000000000         1.415129309158265E-020
  -25.2000000000000         1.330651803977524E-020
  -25.0100000000000         1.241334856308030E-021
  -24.8200000000000        -1.090763627446472E-020
  -24.6300000000000        -1.140446315366759E-020
  -24.4400000000000         8.845869135844594E-022
  -24.2500000000000         1.529461731618756E-020
  -24.0600000000000         1.934731587818618E-020
  -23.8700000000000         1.042491129665511E-020
  -23.6800000000000        -1.957693882088174E-021
  -23.4900000000000        -5.400029110023446E-021
  -23.3000000000000         3.467128967457497E-021
  -23.1100000000000         1.577032106602737E-020
  -22.9200000000000         1.894751499353083E-020
  -22.7300000000000         8.882475120541251E-021
  -22.5400000000000        -6.005250405086749E-021
  -22.3500000000000        -1.265695784467294E-020
  -22.1600000000000        -5.736303737054502E-021
  -21.9700000000000         7.334918904491475E-021
  -21.7800000000000         1.346478026926100E-020
  -21.5900000000000         6.346874064280073E-021
  -21.4000000000000        -7.580092248001191E-021
  -21.2100000000000        -1.534388798892486E-020
  -21.0200000000000        -9.891552481199854E-021
  -20.8300000000000         3.116617989464672E-021
  -20.6400000000000         1.067864872495144E-020
  -20.4500000000000         4.864335250438660E-021
  -20.2600000000000        -9.586772597192699E-021
  -20.0700000000000        -1.973138667512956E-020
  -19.8800000000000        -1.668181770231079E-020
  -19.6900000000000        -3.966786877093692E-021
  -19.5000000000000         5.968328961048870E-021
  -19.3100000000000         3.768587049566607E-021
  -19.1200000000000        -7.796433018677644E-021
  -18.9300000000000        -1.642506763805735E-020
  -18.7400000000000        -1.204318294255168E-020
  -18.5500000000000         3.503271174274500E-021
  -18.3600000000000         1.808413370693996E-020
  -18.1700000000000         2.069133040422403E-020
  -17.9800000000000         1.174746162115592E-020
  -17.7900000000000         2.508377643140875E-021
  -17.6000000000000         4.142981082602668E-021
  -17.4100000000000         1.690938978208271E-020
  -17.2200000000000         2.976510258582852E-020
  -17.0300000000000         3.079839146651003E-020
  -16.8400000000000         1.852822263907990E-020
  -16.6500000000000         3.290575083256122E-021
  -16.4600000000000        -2.590512329177717E-021
  -16.2700000000000         3.554970086881324E-021
  -16.0800000000000         1.239440889719646E-020
  -15.8900000000000         1.175839973027379E-020
  -15.7000000000000        -1.449668753896954E-021
  -15.5100000000000        -1.800287589977284E-020
  -15.3200000000000        -2.490775196182920E-020
  -15.1300000000000        -1.762917102249168E-020
  -14.9400000000000        -4.319761495650694E-021
  -14.7500000000000         1.973293127224060E-021
  -14.5600000000000        -4.326845291675880E-021
  -14.3700000000000        -1.617421490667596E-020
  -14.1800000000000        -2.083063752775395E-020
  -13.9900000000000        -1.222266687064954E-020
  -13.8000000000000         3.095699541615716E-021
  -13.6100000000000         1.208820389046756E-020
  -13.4200000000000         7.629927707580771E-021
  -13.2300000000000        -4.705041619119080E-021
  -13.0400000000000        -1.197054460269555E-020
  -12.8500000000000        -6.211589835831765E-021
  -12.6600000000000         7.940953886407226E-021
  -12.4700000000000         1.768998476922178E-020
  -12.2800000000000         1.428925020199542E-020
  -12.0900000000000         1.407147859621372E-021
  -11.9000000000000        -8.349746415053461E-021
  -11.7100000000000        -5.452915354809954E-021
  -11.5200000000000         7.459553081826177E-021
  -11.3300000000000         1.810975988671381E-020
  -11.1400000000000         1.630549380867541E-020
  -10.9500000000000         3.653048842068675E-021
  -10.7600000000000        -8.012889330259164E-021
  -10.5700000000000        -7.961721388532683E-021
  -10.3800000000000         3.171620461431485E-021
  -10.1900000000000         1.400223657498866E-020
  -10.0000000000000         1.331838765190961E-020
  -9.81000000000000         8.916388411040461E-022
  -9.62000000000000        -1.216907791016410E-020
  -9.42999999999999        -1.388972554057982E-020
  -9.23999999999999        -2.752228815712982E-021
  -9.05000000000000         1.092233083927966E-020
  -8.86000000000000         1.482231305067083E-020
  -8.67000000000000         6.318185741138305E-021
  -8.48000000000000        -5.164658671226767E-021
  -8.28999999999999        -7.322214905257835E-021
  -8.09999999999999         3.073867041687373E-021
  -7.91000000000000         1.689028832141719E-020
  -7.72000000000000         2.120118741769503E-020
  -7.53000000000000         1.155905276618798E-020
  -7.34000000000000        -3.745782515970418E-021
  -7.15000000000001        -1.150439879386425E-020
  -6.95999999999999        -6.031635262489951E-021
  -6.77000000000000         5.612346533181893E-021
  -6.58000000000000         1.056616015798724E-020
  -6.39000000000000         2.626980976751261E-021
  -6.20000000000000        -1.168423316936555E-020
  -6.01000000000001        -1.926619421525857E-020
  -5.81999999999999        -1.293601592443988E-020
  -5.63000000000000         1.659663356234797E-021
  -5.44000000000000         1.132899131439986E-020
  -5.25000000000000         7.776619025588896E-021
  -5.06000000000000        -4.643547647841987E-021
  -4.87000000000000        -1.321587264236300E-020
  -4.67999999999999        -9.071752105350349E-021
  -4.48999999999999         4.328716605424955E-021
  -4.30000000000000         1.452786200620107E-020
  -4.11000000000000         1.202124069587087E-020
  -3.92000000000000        -6.108493176857196E-022
  -3.73000000000000        -1.113658873164838E-020
  -3.53999999999999        -9.345939540049880E-021
  -3.34999999999999         3.194215558067047E-021
  -3.16000000000000         1.461503929735557E-020
  -2.97000000000000         1.403992773585391E-020
  -2.78000000000000         1.928996271574196E-021
  -2.59000000000000        -1.038800928135144E-020
  -2.40000000000001        -1.153856711385378E-020
  -2.20999999999999        -9.408919972979791E-022
  -2.02000000000000         1.071891857747486E-020
  -1.83000000000000         1.180638956388995E-020
  -1.64000000000000         9.523700674052643E-022
  -1.45000000000000        -1.158420653175495E-020
  -1.26000000000001        -1.371604916181722E-020
  -1.06999999999999        -3.134529867926520E-021
 -0.879999999999995         1.036956469466710E-020
 -0.689999999999998         1.412847794752267E-020
 -0.500000000000000         4.604861774555390E-021
 -0.310000000000002        -9.262766035858206E-021
 -0.120000000000005        -1.457204366280593E-020
  7.000000000000739E-002   -6.695056918672128E-021
  0.260000000000005         6.438099445060176E-021
  0.450000000000003         1.207282487370916E-020
  0.640000000000001         4.964787657420663E-021
  0.829999999999998        -7.487066819954795E-021
   1.02000000000000        -1.224925709672724E-020
   1.21000000000001        -3.156448828691828E-021
   1.40000000000001         1.302422690920675E-020
   1.59000000000000         2.279901419721070E-020
   1.78000000000000         1.854822411812332E-020
   1.97000000000000         5.534251914903317E-021
   2.16000000000000        -3.323257852691231E-021
   2.34999999999999         1.258854398351547E-022
   2.54000000000001         1.150086954702712E-020
   2.73000000000000         1.817974084023213E-020
   2.92000000000000         1.152723874813359E-020
   3.11000000000000        -4.632257840747124E-021
   3.30000000000000        -1.742351684220497E-020
   3.48999999999999        -1.699382453744496E-020
   3.68000000000001        -5.742683933558472E-021
   3.87000000000000         4.087119489802142E-021
   4.06000000000000         2.137228825167016E-021
   4.25000000000000        -1.020944451515137E-020
   4.44000000000000        -2.121542917381039E-020
   4.63000000000000        -2.006524852404845E-020
   4.82000000000001        -7.257560311524188E-021
   5.01000000000001         5.819675149168278E-021
   5.20000000000000         7.737037262135323E-021
   5.39000000000000        -2.075653108299929E-021
   5.58000000000000        -1.280810630856975E-020
   5.77000000000000        -1.262697697804569E-020
   5.96000000000001        -1.049924531191619E-023
   6.15000000000001         1.475762152551346E-020
   6.34000000000000         1.935032350851143E-020
   6.53000000000000         1.109859798344404E-020