  -105.000000000000         5.609070605597535E-019
  -104.810000000000         4.248491870109840E-019
  -104.620000000000         1.984675224857439E-019
  -104.430000000000        -5.480285010633420E-020
  -104.240000000000        -2.644537684926091E-019
  -104.050000000000        -3.732112310623029E-019
  -103.860000000000        -3.534928004523711E-019
  -103.670000000000        -2.152307773562930E-019
  -103.480000000000        -2.786809525208144E-021
  -103.290000000000         2.181308220795159E-019
  -103.100000000000         3.797157479843848E-019
  -102.910000000000         4.318598558764002E-019
  -102.720000000000         3.567480835987770E-019
  -102.530000000000         1.740421086899770E-019
  -102.340000000000        -6.481983433173232E-020
  -102.150000000000        -2.915437047665074E-019
  -101.960000000000        -4.408088332658190E-019
  -101.770000000000        -4.692746890052267E-019
  -101.580000000000        -3.682526490323731E-019
  -101.390000000000        -1.663401496766484E-019
  -101.200000000000         7.878287828530544E-020
  -101.010000000000         2.970307777353557E-019
  -100.820000000000         4.262056679948993E-019
  -100.630000000000         4.299868205396738E-019
  -100.440000000000         3.083817485735732E-019
  -100.250000000000         9.762555408082679E-020
  -100.060000000000        -1.404053375383533E-019
  -99.8700000000000        -3.361686733247340E-019
  -99.6800000000000        -4.326120975031473E-019
  -99.4900000000000        -4.016919677313828E-019
  -99.3000000000000        -2.524896947748547E-019
  -99.1100000000000        -2.856995546249215E-020
  -98.9200000000000         2.046769432441155E-019
  -98.7300000000000         3.790544264481671E-019
  -98.5400000000000         4.434129199012734E-019
  -98.3500000000000         3.785466146778765E-019
  -98.1600000000000         2.027864491750728E-019
  -97.9700000000000        -3.333443520894669E-020
  -97.7800000000000        -2.617726376162174E-019
  -97.5900000000000        -4.167337140234100E-019
  -97.4000000000000        -4.537553916157689E-019
  -97.2100000000000        -3.625905536019920E-019
  -97.0200000000000        -1.701694590044022E-019
  -96.8300000000000         6.721864364572105E-020
  -96.6400000000000         2.802741702910651E-019
  -96.4500000000000         4.068363022777515E-019
  -96.2600000000000         4.099767875154861E-019
  -96.0700000000000         2.887593089510169E-019
  -95.8800000000000         7.851519923184330E-020
  -95.6900000000000        -1.594482377965823E-019
  -95.5000000000000        -3.556968762483569E-019
  -95.3100000000000        -4.528661492178623E-019
  -95.1200000000000        -4.223327339663268E-019
  -94.9300000000000        -2.725378044229108E-019
  -94.7400000000000        -4.656530980909193E-020
  -94.5500000000000         1.903222298278408E-019
  -94.3600000000000         3.695949148949805E-019
  -94.1700000000000         4.393494576167680E-019
  -93.9800000000000         3.794165641430024E-019
  -93.7900000000000         2.072747610022986E-019
  -93.6000000000000        -2.697800084765056E-020
  -93.4100000000000        -2.551499331723954E-019
  -93.2200000000000        -4.107476015852705E-019
  -93.0300000000000        -4.482657182411615E-019
  -92.8400000000000        -3.563716263924054E-019
  -92.6500000000000        -1.611832893081507E-019
  -92.4600000000000         8.127551570999532E-020
  -92.2700000000000         3.012397888955556E-019
  -92.0800000000000         4.353219671862837E-019
  -91.8900000000000         4.447972603774079E-019
  -91.7000000000000         3.267896485076832E-019
  -91.5100000000000         1.151130812873986E-019
  -91.3200000000000        -1.295088517260944E-019
  -91.1300000000000        -3.370384710500961E-019
  -90.9400000000000        -4.484328460543935E-019
  -90.7500000000000        -4.327507691158783E-019
  -90.5600000000000        -2.960686170380005E-019
  -90.3700000000000        -7.961193431468213E-020
  -90.1800000000000         1.523364557436945E-019
  -89.9900000000000         3.312157495626658E-019
  -89.8000000000000         4.041912209095885E-019
  -89.6100000000000         3.495837310803370E-019
  -89.4200000000000         1.832535073396906E-019
  -89.2300000000000        -4.592553416157499E-020
  -89.0400000000000        -2.702132267477075E-019
  -88.8500000000000        -4.226871345734867E-019
  -88.6600000000000        -4.567491331343002E-019
  -88.4700000000000        -3.597708633344690E-019
  -88.2800000000000        -1.568934732729536E-019
  -88.0900000000000         9.612439279916634E-020
  -87.9000000000000         3.289148780072301E-019
  -87.7100000000000         4.767025774017684E-019
  -87.5200000000000         4.988508002103209E-019
  -87.3300000000000         3.904160571293787E-019
  -87.1400000000000         1.834101081787451E-019
  -86.9500000000000        -6.256475157330744E-020
  -86.7600000000000        -2.775884324736419E-019
  -86.5700000000000        -4.016105183017739E-019
  -86.3800000000000        -4.017112918256989E-019
  -86.1900000000000        -2.814295005514309E-019
  -86.0000000000000        -7.945056438996711E-020
  -85.8100000000000         1.419398374850805E-019
  -85.6200000000000         3.152335900666986E-019
  -85.4300000000000         3.875211885390792E-019
  -85.2400000000000         3.359773611447159E-019
  -85.0500000000000         1.745285055054958E-019
  -84.8600000000000        -5.020037528197526E-020
  -84.6700000000000        -2.724578757066154E-019
  -84.4800000000000        -4.265206071417446E-019
  -84.2900000000000        -4.658905811417863E-019
  -84.1000000000000        -3.769691423004367E-019
  -83.9100000000000        -1.832076614508993E-019
  -83.7200000000000         6.152318375678098E-020
  -83.5300000000000         2.884604143596511E-019
  -83.3400000000000         4.338652483920920E-019
  -83.1500000000000         4.575125621187758E-019
  -82.9600000000000         3.543431292473753E-019
  -82.7700000000000         1.558763959406323E-019
  -82.5800000000000        -7.901283889950460E-020
  -82.3900000000000        -2.812488096428121E-019
  -82.2000000000000        -3.916456126619005E-019
  -82.0100000000000        -3.781065630052230E-019
  -81.8200000000000        -2.449473630310397E-019
  -81.6300000000000        -3.163352699438024E-020
  -81.4400000000000         1.987150387392696E-019
  -81.2500000000000         3.777253337506838E-019
  -81.0600000000000         4.517283539229810E-019
  -80.8700000000000         3.974513518179355E-019
  -80.6800000000000         2.288632941969923E-019
  -80.4900000000000        -6.817239101630631E-021
  -80.3000000000000        -2.427735490231649E-019
  -80.1100000000000        -4.119204440504639E-019
  -79.9200000000000        -4.663046368683848E-019
  -79.7300000000000        -3.909684278697371E-019
  -79.5400000000000        -2.082761211918535E-019
  -79.3500000000000         2.855122512311223E-020
  -79.1600000000000         2.508422740443810E-019
  -78.9700000000000         3.943850144593712E-019
  -78.7800000000000         4.180708176697259E-019
  -78.5900000000000         3.158371953818655E-019
  -78.4000000000000         1.184067326016796E-019
  -78.2100000000000        -1.156982722546116E-019
  -78.0200000000000        -3.172424300667284E-019
  -77.8300000000000        -4.264763904943501E-019
  -77.6400000000000        -4.105666235374259E-019
  -77.4500000000000        -2.731997481899046E-019
  -77.2600000000000        -5.358649893132963E-020
  -77.0700000000000         1.848492224955989E-019
  -76.8800000000000         3.728452407408186E-019
  -76.6900000000000         4.554461104181654E-019
  -76.5000000000000         4.080814382348412E-019
  -76.3100000000000         2.438750103557342E-019
  -76.1200000000000         9.999324412063271E-021
  -75.9300000000000        -2.259203059330850E-019
  -75.7400000000000        -3.954185210583044E-019
  -75.5500000000000        -4.490970848984889E-019
  -75.3600000000000        -3.710078251665930E-019
  -75.1700000000000        -1.833224860061893E-019
  -74.9800000000000         6.004763203100694E-020
  -74.7900000000000         2.890075256272136E-019
  -74.6000000000000         4.374972793255916E-019
  -74.4100000000000         4.625374780453336E-019
  -74.2200000000000         3.566155964559208E-019
  -74.0300000000000         1.498450316104831E-019
  -73.8400000000000        -9.873233968901796E-020
  -73.6500000000000        -3.181991992541330E-019
  -73.4600000000000        -4.462441831205011E-019
  -73.2700000000000        -4.471355440192712E-019
  -73.0800000000000        -3.219736591357258E-019
  -72.8900000000000        -1.082585137409467E-019
  -72.7000000000000         1.310829330942857E-019
  -72.5100000000000         3.260116846653767E-019
  -72.3200000000000         4.197222564212058E-019
  -72.1300000000000         3.851324137948854E-019
  -71.9400000000000         2.327481845636018E-019
  -71.7500000000000         7.618270757737234E-021
  -71.5600000000000        -2.237627693566294E-019
  -71.3700000000000        -3.928243751106559E-019
  -71.1800000000000        -4.489367420717694E-019
  -70.9900000000000        -3.742327584694295E-019
  -70.8000000000000        -1.888984994015118E-019
  -70.6100000000000         5.461413036382810E-020
  -70.4200000000000         2.867548315481149E-019
  -70.2300000000000         4.409937438636619E-019
  -70.0400000000000         4.730479591590006E-019
  -69.8500000000000         3.736651813707039E-019
  -69.6600000000000         1.712960597671592E-019
  -69.4700000000000        -7.610361295292965E-020
  -69.2800000000000        -2.977851675999348E-019
  -69.0900000000000        -4.306280840473182E-019
  -68.9000000000000        -4.373750579117760E-019
  -68.7100000000000        -3.173874512170798E-019
  -68.5200000000000        -1.067717497769101E-019
  -68.3300000000000         1.321836734471343E-019
  -68.1400000000000         3.291873873916394E-019
  -67.9500000000000         4.264258914236296E-019
  -67.7600000000000         3.953704769178093E-019
  -67.5700000000000         2.450348168741143E-019
  -67.3800000000000         1.931967151033063E-020
  -67.1900000000000        -2.157514924385041E-019
  -67.0000000000000        -3.911950870081008E-019
  -66.8100000000000        -4.550911858053652E-019
  -66.6200000000000        -3.876907724111838E-019
  -66.4300000000000        -2.072339953602230E-019
  -66.2400000000000         3.523076688535286E-020
  -66.0500000000000         2.705593744804165E-019
  -65.8600000000000         4.315070578032550E-019
  -65.6700000000000         4.721994911146995E-019
  -65.4800000000000         3.814138863051738E-019
  -65.2900000000000         1.858076571086366E-019
  -65.1000000000000        -5.783586695570628E-020
  -64.9100000000000        -2.790812831442342E-019
  -64.7200000000000        -4.142511880789195E-019
  -64.5300000000000        -4.248651854439869E-019
  -64.3400000000000        -3.087768408437525E-019
  -64.1500000000000        -1.007799792101028E-019
  -63.9600000000000         1.375065021386890E-019
  -63.7700000000000         3.355537473670093E-019
  -63.5800000000000         4.344352314667059E-019
  -63.3900000000000         4.039642223847168E-019
  -63.2000000000000         2.514658643021216E-019
  -63.0100000000000         1.964331027970733E-020
  -62.8200000000000        -2.258103456649839E-019
  -62.6300000000000        -4.152218518941897E-019
  -62.4400000000000        -4.950448741589284E-019
  -62.2500000000000        -4.432621025856796E-019
  -62.0600000000000        -2.756600062980791E-019
  -61.8700000000000        -4.118069734615987E-020
  -61.6800000000000         1.923107967582996E-019
  -61.4900000000000         3.577444197117872E-019
  -61.3000000000000         4.083456764096984E-019
  -61.1100000000000         3.312446796144540E-019
  -60.9200000000000         1.512016903605592E-019
  -60.7300000000000        -7.666553066010322E-020
  -60.5400000000000        -2.830359071046853E-019
  -60.3500000000000        -4.046928522770909E-019
  -60.1600000000000        -4.030505620906222E-019
  -59.9700000000000        -2.755044366335059E-019
  -59.7800000000000        -5.631932103071649E-020
  -59.5900000000000         1.931875140177047E-019
  -59.4000000000000         4.023219346447851E-019
  -59.2100000000000         5.114436188630871E-019
  -59.0200000000000         4.892512528483108E-019
  -58.8300000000000         3.419083653504256E-019
  -58.6400000000000         1.113350604916115E-019
  -58.4500000000000        -1.368694855790939E-019
  -58.2600000000000        -3.323814739477942E-019
  -58.0700000000000        -4.204748612354460E-019
  -57.8800000000000        -3.777985611908975E-019
  -57.6900000000000        -2.190273579868641E-019
  -57.5000000000000         7.522465899944622E-021
  -57.3100000000000         2.340093721529378E-019
  -57.1200000000000         3.928046266863107E-019
  -56.9300000000000         4.361369411777118E-019
  -56.7400000000000         3.499620180409222E-019
  -56.5500000000000         1.580370172030982E-019
  -56.3600000000000        -8.499051334190847E-020
  -56.1700000000000        -3.094797748751723E-019
  -55.9800000000000        -4.510583879165123E-019
  -55.7900000000000        -4.693439590928501E-019
  -55.6000000000000        -3.596653419140997E-019
  -55.4100000000000        -1.543775847019017E-019
  -55.2200000000000         8.658339478480032E-020
  -55.0300000000000         2.931295541942381E-019
  -54.8400000000000         4.053644215496427E-019
  -54.6500000000000         3.909587360743428E-019
  -54.4600000000000         2.545440703483039E-019
  -54.2700000000000         3.640589944419025E-020
  -54.0800000000000        -1.991703393565546E-019
  -53.8900000000000        -3.825625666936722E-019
  -53.7000000000000        -4.590950592367649E-019
  -53.5100000000000        -4.050358959711839E-019
  -53.3200000000000        -2.346149821329663E-019
  -53.1300000000000         4.015756032624480E-021
  -52.9400000000000         2.427129097933806E-019
  -52.7500000000000         4.130969755945852E-019
  -52.5600000000000         4.663738284529231E-019
  -52.3700000000000         3.874644226683200E-019
  -52.1800000000000         1.993623834985563E-019
  -51.9900000000000        -4.351883635233332E-020
  -51.8000000000000        -2.710769620841990E-019
  -51.6100000000000        -4.177944344577446E-019
  -51.4200000000000        -4.417037654457618E-019
  -51.2300000000000        -3.365482180854866E-019
  -51.0400000000000        -1.335911151151830E-019
  -50.8500000000000         1.074737257157788E-019
  -50.6600000000000         3.158817264637161E-019
  -50.4700000000000         4.303785766649988E-019
  -50.2800000000000         4.170291882269089E-019
  -50.0900000000000         2.790806351673783E-019
  -49.9000000000000         5.603769585676773E-020
  -49.7100000000000        -1.877546726103291E-019
  -49.5200000000000        -3.817075289401796E-019
  -49.3300000000000        -4.693924185445845E-019
  -49.1400000000000        -4.248635385222680E-019
  -48.9500000000000        -2.601767911591111E-019
  -48.7600000000000        -2.191926842398193E-020
  -48.5700000000000         2.222619680654553E-019
  -48.3800000000000         4.032366241176697E-019
  -48.1900000000000         4.703871108920484E-019
  -48.0000000000000         4.062065561999185E-019
  -47.8100000000000         2.312649198197985E-019
  -47.6200000000000        -1.873914676589633E-021
  -47.4300000000000        -2.239960801261257E-019
  -47.2400000000000        -3.693885969228122E-019
  -47.0500000000000        -3.949676093533343E-019
  -46.8600000000000        -2.928543982533639E-019
  -46.6700000000000        -9.275299233881613E-020
  -46.4800000000000         1.465892148910088E-019
  -46.2900000000000         3.544050718018412E-019
  -46.1000000000000         4.684968121977997E-019
  -45.9100000000000         4.533921123927834E-019
  -45.7200000000000         3.107538026907565E-019
  -45.5300000000000         7.899713473514154E-020
  -45.3400000000000        -1.777652706829157E-019
  -45.1500000000000        -3.882117763420011E-019
  -44.9600000000000        -4.943414501749697E-019
  -44.7700000000000        -4.680932515048906E-019
  -44.5800000000000        -3.192769876550231E-019
  -44.3900000000000        -9.256761637666678E-020
  -44.2000000000000         1.455442232876162E-019
  -44.0100000000000         3.260736219039991E-019
  -43.8200000000000         3.975480280095709E-019
  -43.6300000000000         3.408960691126039E-019
  -43.4400000000000         1.748855318265629E-019
  -43.2500000000000        -4.948010143142534E-020
  -43.0600000000000        -2.639742613678454E-019
  -42.8700000000000        -4.031764549723866E-019
  -42.6800000000000        -4.236567483772472E-019
  -42.4900000000000        -3.167227633563379E-019
  -42.3000000000000        -1.110411114074538E-019
  -42.1100000000000         1.356037802286904E-019
  -41.9200000000000         3.530124242268524E-019
  -41.7300000000000         4.788954929184409E-019
  -41.5400000000000         4.769377995902150E-019
  -41.3500000000000         3.473669976054655E-019
  -41.1600000000000         1.269494113234737E-019
  -40.9700000000000        -1.216108229308327E-019
  -40.7800000000000        -3.278068376673992E-019
  -40.5900000000000        -4.337229047871183E-019
  -40.4000000000000        -4.107488291186991E-019
  -40.2100000000000        -2.677637145761774E-019
  -40.0200000000000        -4.843236375673064E-020
  -39.8300000000000         1.815819528025050E-019
  -39.6400000000000         3.537683074181803E-019
  -39.4500000000000         4.167283298612556E-019
  -39.2600000000000         3.511636225774556E-019
  -39.0700000000000         1.755378638353010E-019
  -38.8800000000000        -5.926014338493424E-020
  -38.6900000000000        -2.847387590118028E-019
  -38.5000000000000        -4.348081393526942E-019
  -38.3100000000000        -4.651154890931682E-019
  -38.1200000000000        -3.660407141094217E-019
  -37.9300000000000        -1.655444119020567E-019
  -37.7400000000000         7.895629804758848E-020
  -37.5500000000000         2.972893098691711E-019
  -37.3600000000000         4.269157363637487E-019
  -37.1700000000000         4.310763272339814E-019
  -36.9800000000000         3.094558871900352E-019
  -36.7900000000000         9.829588460341524E-020
  -36.6000000000000        -1.400865701022655E-019
  -36.4100000000000        -3.353658438738793E-019
  -36.2200000000000        -4.296472091657952E-019
  -36.0300000000000        -3.943525172297026E-019
  -35.8400000000000        -2.386283731885642E-019
  -35.6500000000000        -6.795996299835488E-021
  -35.4600000000000         2.344442736504002E-019
  -35.2700000000000         4.153337938099780E-019
  -35.0800000000000         4.832740383571069E-019
  -34.8900000000000         4.180735157516678E-019
  -34.7000000000000         2.378173750824879E-019
  -34.5100000000000        -6.328006123232564E-021
  -34.3200000000000        -2.448701715060558E-019
  -34.1300000000000        -4.100449242559551E-019
  -33.9400000000000        -4.553840101556356E-019
  -33.7500000000000        -3.691429776025830E-019
  -33.5600000000000        -1.776859787869707E-019
  -33.3700000000000         6.218375420171682E-020
  -33.1800000000000         2.797376458139118E-019
  -32.9900000000000         4.108765624776778E-019
  -32.8000000000000         4.167468645625159E-019
  -32.6100000000000         2.950155381428777E-019
  -32.4200000000000         8.054352572284064E-020
  -32.2300000000000        -1.647249854447077E-019
  -32.0400000000000        -3.697162277045499E-019
  -31.8500000000000        -4.748240137102290E-019
  -31.6600000000000        -4.491970239325178E-019
  -31.4700000000000        -2.997079058225102E-019
  -31.2800000000000        -6.897925247709407E-020
  -31.0900000000000         1.769876760225450E-019
  -30.9000000000000         3.679909138917297E-019
  -30.7100000000000         4.500195417300779E-019
  -30.5200000000000         4.009096077652536E-019
  -30.3300000000000         2.367054040665321E-019
  -30.1400000000000         6.896003724053472E-021
  -29.9500000000000        -2.200471884530897E-019
  -29.7600000000000        -3.766005500691878E-019
  -29.5700000000000        -4.158133768084342E-019
  -29.3800000000000        -3.249770485156968E-019
  -29.1900000000000        -1.294017588432093E-019
  -29.0000000000000         1.148048900674836E-019
  -28.8100000000000         3.369009498667835E-019
  -28.6200000000000         4.719689841193272E-019
  -28.4300000000000         4.797578284865698E-019
  -28.2400000000000         3.564256463017785E-019
  -28.0500000000000         1.357402170808535E-019
  -27.8600000000000        -1.206298819408715E-019
  -27.6700000000000        -3.409009486075795E-019
  -27.4800000000000        -4.638566365332319E-019
  -27.2900000000000        -4.564305615704471E-019
  -27.1000000000000        -3.231129433185318E-019
  -26.9100000000000        -1.044840316737340E-019
  -26.7200000000000         1.346738540854636E-019
  -26.5300000000000         3.242308350204084E-019
  -26.3400000000000         4.090767794808229E-019
  -26.1500000000000         3.651047566870672E-019
  -25.9600000000000         2.061611491749461E-019
  -25.7700000000000        -2.007113209571105E-020
  -25.5800000000000        -2.460529311850605E-019
  -25.3900000000000        -4.041442097565075E-019
  -25.2000000000000        -4.463718786771351E-019
  -25.0100000000000        -3.584585834235555E-019
  -24.8200000000000        -1.640439452158691E-019
  -24.6300000000000         8.210829378508344E-020
  -24.4400000000000         3.099308739621578E-019
  -24.2500000000000         4.543215538158747E-019
  -24.0600000000000         4.740042248287726E-019
  -23.8700000000000         3.635149775008779E-019
  -23.6800000000000         1.548111208023566E-019
  -23.4900000000000        -9.198958917707390E-020
  -23.3000000000000        -3.060571758677511E-019
  -23.1100000000000        -4.264051812786624E-019
  -22.9200000000000        -4.195590865416817E-019
  -22.7300000000000        -2.891870495963419E-019
  -22.5400000000000        -7.490868314562833E-020
  -22.3500000000000         1.593300177570609E-019
  -22.1600000000000         3.439088615972229E-019
  -21.9700000000000         4.238057313344341E-019
  -21.7800000000000         3.746324450433440E-019
  -21.5900000000000         2.097938016041900E-019
  -21.4000000000000        -2.331910379247997E-020
  -21.2100000000000        -2.570261791885888E-019
  -21.0200000000000        -4.230034315934570E-019
  -20.8300000000000        -4.721811385934104E-019
  -20.6400000000000        -3.890857734702317E-019
  -20.4500000000000        -1.964170203809001E-019
  -20.2600000000000         5.148202707540980E-020
  -20.0700000000000         2.843436162626279E-019
  -19.8800000000000         4.362951437703610E-019
  -19.6900000000000         4.648766302661583E-019
  -19.5000000000000         3.632512446627412E-019
  -19.3100000000000         1.620936748276231E-019
  -19.1200000000000        -7.936739023330252E-020
  -18.9300000000000        -2.905562119806653E-019
  -18.7400000000000        -4.100384105129947E-019
  -18.5500000000000        -4.033591138358748E-019
  -18.3600000000000        -2.730418776061207E-019
  -18.1700000000000        -5.783040543162904E-020
  -17.9800000000000         1.786065177744851E-019
  -17.7900000000000         3.662167432733167E-019
  -17.6000000000000         4.489584208062096E-019
  -17.4100000000000         4.011185804952886E-019
  -17.2200000000000         2.348275393104133E-019
  -17.0300000000000        -3.392051101146786E-021
  -16.8400000000000        -2.460350695801539E-019
  -16.6500000000000        -4.241175439656170E-019
  -16.4600000000000        -4.871462788879267E-019
  -16.2700000000000        -4.177624435660081E-019
  -16.0800000000000        -2.367839991925673E-019
  -15.8900000000000         2.845898392182566E-021
  -15.7000000000000         2.314624773565527E-019
  -15.5100000000000         3.829518386810321E-019
  -15.3200000000000         4.139708985369429E-019
  -15.1300000000000         3.165040300782642E-019
  -14.9400000000000         1.201197064647697E-019
  -14.7500000000000        -1.166888467277391E-019
  -14.5600000000000        -3.235384531759328E-019
  -14.3700000000000        -4.386265296323489E-019
  -14.1800000000000        -4.267151041136342E-019
  -13.9900000000000        -2.894218260745379E-019
  -13.8000000000000        -6.482804611844799E-020
  -13.6100000000000         1.835062685566488E-019
  -13.4200000000000         3.849616157764036E-019
  -13.2300000000000         4.823653570856549E-019
  -13.0400000000000         4.485947632919711E-019
  -12.8500000000000         2.944204366516627E-019
  -12.6600000000000         6.531612083844165E-020
  -12.4700000000000        -1.718036557192536E-019
  -12.2800000000000        -3.480312204124762E-019
  -12.0900000000000        -4.124365821279797E-019
  -11.9000000000000        -3.467789046982531E-019
  -11.7100000000000        -1.707291115001738E-019
  -11.5200000000000         6.387755249991777E-020
  -11.3300000000000         2.880925299310484E-019
  -11.1400000000000         4.358661202776446E-019
  -10.9500000000000         4.632272737581157E-019
  -10.7600000000000         3.610587243735341E-019
  -10.5700000000000         1.577505729033483E-019
  -10.3800000000000        -8.904077640274362E-020
  -10.1900000000000        -3.091326149650117E-019
  -10.0000000000000        -4.401829095113365E-019
  -9.81000000000000        -4.457584226775930E-019
  -9.62000000000000        -3.258630723733657E-019
  -9.42999999999999        -1.168877641214468E-019
  -9.23999999999999         1.190018251414857E-019
  -9.05000000000000         3.119797480558939E-019
  -8.86000000000000         4.049322996445636E-019
  -8.67000000000000         3.701591880088357E-019
  -8.48000000000000         2.175188789888439E-019
  -8.28999999999999        -8.383874686030361E-021
  -8.09999999999999        -2.411725617442118E-019
  -7.91000000000000        -4.120552944466722E-019
  -7.72000000000000        -4.699001839925638E-019
  -7.53000000000000        -3.961676515116818E-019
  -7.34000000000000        -2.103719161751351E-019
  -7.15000000000001         3.548385313294685E-020
  -6.95999999999999         2.718708554873840E-019
  -6.77000000000000         4.317705280371966E-019
  -6.58000000000000         4.700007128323215E-019
  -6.39000000000000         3.762535708154884E-019
  -6.20000000000000         1.780691126671240E-019
  -6.01000000000001        -6.714421473890186E-020
  -5.81999999999999        -2.887607370010176E-019
  -5.63000000000000        -4.234311920908318E-019
  -5.44000000000000        -4.334398484120247E-019
  -5.25000000000000        -3.175696663392437E-019
  -5.06000000000000        -1.113248989719282E-019
  -4.87000000000000         1.235267911234378E-019
  -4.67999999999999         3.170251441251220E-019
  -4.48999999999999         4.114365104320196E-019
  -4.30000000000000         3.781034368869320E-019
  -4.11000000000000         2.258610066300149E-019
  -3.92000000000000        -1.415681223216263E-021
  -3.73000000000000        -2.374527478837702E-019
  -3.53999999999999        -4.127807790434497E-019
  -3.34999999999999        -4.749430953352351E-019
  -3.16000000000000        -4.038305544580758E-019
  -2.97000000000000        -2.176635618357143E-019
  -2.78000000000000         3.214589592041692E-020
  -2.59000000000000         2.757781870058494E-019
  -2.40000000000001         4.451393360368688E-019
  -2.20999999999999         4.934908512060977E-019
  -2.02000000000000         4.088910359205600E-019
  -1.83000000000000         2.175701059652547E-019
  -1.64000000000000        -2.373612960551595E-020
  -1.45000000000000        -2.442856693048544E-019
  -1.26000000000001        -3.798878947915543E-019
  -1.06999999999999        -3.915515828327158E-019
 -0.879999999999995        -2.767982557743419E-019
 -0.689999999999998        -7.033803867795916E-020
 -0.500000000000000         1.660982705125415E-019
 -0.310000000000002         3.617985957642205E-019
 -0.120000000000005         4.577006330521726E-019
  7.000000000000739E-002    4.236018166969692E-019
  0.260000000000005         2.669697275668525E-019
  0.450000000000003         3.082926798546139E-020
  0.640000000000001        -2.186424182918837E-019
  0.829999999999998        -4.112199371421997E-019
   1.02000000000000        -4.929143745826071E-019
   1.21000000000001        -4.415814225814475E-019
   1.40000000000001        -2.733279824771068E-019
   1.59000000000000        -3.782791359010878E-020
   1.78000000000000         1.961252308006144E-019
   1.97000000000000         3.606311028094524E-019
   2.16000000000000         4.084199212462046E-019
   2.34999999999999         3.265597620148054E-019
   2.54000000000001         1.401533761294701E-019
   2.73000000000000        -9.502991111774984E-020
   2.92000000000000        -3.088201517442271E-019
   3.11000000000000        -4.370735461367640E-019
   3.30000000000000        -4.403488644184455E-019
   3.48999999999999        -3.154470915267396E-019
   3.68000000000001        -9.647274397716066E-020
   3.87000000000000         1.549220852181948E-019
   4.06000000000000         3.673178870802658E-019
   4.25000000000000         4.801901866554102E-019
   4.44000000000000         4.614545040255857E-019
   4.63000000000000         3.167845037870146E-019
   4.82000000000001         8.797971995698537E-020
   5.01000000000001        -1.591432679892886E-019
   5.20000000000000        -3.538001861422044E-019
   5.39000000000000        -4.406886431255266E-019
   5.58000000000000        -3.959234927601792E-019
   5.77000000000000        -2.338645872162653E-019
   5.96000000000001        -2.867561591613016E-021
   6.15000000000001         2.288153605329925E-019
   6.34000000000000         3.929015531865589E-019
   6.53000000000000         4.409492536538949E-019