  -105.000000000000         0.000000000000000E+000
  -104.810000000000         2.264241347969980E-010
  -104.620000000000         4.963200664636634E-010
  -104.430000000000         7.584121212370059E-010
  -104.240000000000         1.118420193743070E-009
  -104.050000000000         1.547819446743459E-009
  -103.860000000000         1.851174067487342E-009
  -103.670000000000         1.934561395054068E-009
  -103.480000000000         1.874476577434941E-009
  -103.290000000000         2.436930123701548E-009
  -103.100000000000         3.295223732663198E-009
  -102.910000000000         4.601329916529249E-009
  -102.720000000000         5.999608271769670E-009
  -102.530000000000         7.202187240690729E-009
  -102.340000000000         8.123647882100813E-009
  -102.150000000000         8.676991336257801E-009
  -101.960000000000         9.018518702180802E-009
  -101.770000000000         9.064033455488338E-009
  -101.580000000000         9.311126434088388E-009
  -101.390000000000         9.728796308469762E-009
  -101.200000000000         1.004954359115391E-008
  -101.010000000000         1.001322587741236E-008
  -100.820000000000         9.441159992411091E-009
  -100.630000000000         8.694391503070808E-009
  -100.440000000000         7.906834797022836E-009
  -100.250000000000         7.251962454701397E-009
  -100.060000000000         6.925825839043440E-009
  -99.8700000000000         6.948304572273965E-009
  -99.6800000000000         6.947957576760139E-009
  -99.4900000000000         6.583347775853543E-009
  -99.3000000000000         5.624160626218712E-009
  -99.1100000000000         4.442600288905609E-009
  -98.9200000000000         3.082144550116385E-009
  -98.7300000000000         1.982547155541362E-009
  -98.5400000000000         1.510663420725621E-009
  -98.3500000000000         1.109939411583487E-009
  -98.1600000000000         1.094343832319775E-009
  -97.9700000000000         1.155749732538862E-009
  -97.7800000000000         1.164293919034826E-009
  -97.5900000000000         1.114959497253377E-009
  -97.4000000000000         9.364641850771249E-010
  -97.2100000000000         8.608474548654548E-010
  -97.0200000000000         8.558235198093146E-010
  -96.8300000000000         1.550185754347627E-009
  -96.6400000000000         2.394684387238821E-009
  -96.4500000000000         3.286953592732754E-009
  -96.2600000000000         4.259041230254513E-009
  -96.0700000000000         5.039539640229170E-009
  -95.8800000000000         5.410718546045922E-009
  -95.6900000000000         5.589656359150721E-009
  -95.5000000000000         5.677105238029210E-009
  -95.3100000000000         5.990399119547866E-009
  -95.1200000000000         6.278401107930579E-009
  -94.9300000000000         6.651308090047426E-009
  -94.7400000000000         6.799240450539301E-009
  -94.5500000000000         6.898437565714109E-009
  -94.3600000000000         6.929593530998943E-009
  -94.1700000000000         7.116232049970846E-009
  -93.9800000000000         7.189418705343417E-009
  -93.7900000000000         7.067181853673181E-009
  -93.6000000000000         7.893813850958236E-009
  -93.4100000000000         8.509960020591439E-009
  -93.2200000000000         8.835355468420738E-009
  -93.0300000000000         9.067475783141208E-009
  -92.8400000000000         8.935675696010550E-009
  -92.6500000000000         8.145980785702532E-009
  -92.4600000000000         6.809353416438672E-009
  -92.2700000000000         5.201715671447777E-009
  -92.0800000000000         3.750480790502130E-009
  -91.8900000000000         2.799376201076809E-009
  -91.7000000000000         2.414187345149776E-009
  -91.5100000000000         2.151804689936148E-009
  -91.3200000000000         2.021277386137292E-009
  -91.1300000000000         8.824454099566133E-010
  -90.9400000000000        -4.512475226540035E-010
  -90.7500000000000        -1.335619466000294E-009
  -90.5600000000000        -1.519277050090003E-009
  -90.3700000000000        -9.093868967936274E-010
  -90.1800000000000         2.765149122411462E-010
  -89.9900000000000         1.654872321356736E-009
  -89.8000000000000         2.731363239117642E-009
  -89.6100000000000         2.744908293213781E-009
  -89.4200000000000         2.377682312636252E-009
  -89.2300000000000         2.371277483664332E-009
  -89.0400000000000         3.426924553690445E-009
  -88.8500000000000         3.814157302624827E-009
  -88.6600000000000         4.995999266771928E-009
  -88.4700000000000         5.631863035252866E-009
  -88.2800000000000         5.785420992861289E-009
  -88.0900000000000         5.548751585150213E-009
  -87.9000000000000         5.014047497331342E-009
  -87.7100000000000         4.656428482281229E-009
  -87.5200000000000         4.440736450497589E-009
  -87.3300000000000         4.291819325621312E-009
  -87.1400000000000         4.158617487461144E-009
  -86.9500000000000         4.388447685010643E-009
  -86.7600000000000         4.667611616367478E-009
  -86.5700000000000         4.986550402220087E-009
  -86.3800000000000         5.545034091437043E-009
  -86.1900000000000         6.325130673358406E-009
  -86.0000000000000         7.275542104933719E-009
  -85.8100000000000         8.421632371074410E-009
  -85.6200000000000         9.944302616528495E-009
  -85.4300000000000         1.151087612086698E-008
  -85.2400000000000         1.296290139310970E-008
  -85.0500000000000         1.445321271387446E-008
  -84.8600000000000         1.568628363996451E-008
  -84.6700000000000         1.661698738962093E-008
  -84.4800000000000         1.739756726206221E-008
  -84.2900000000000         1.824280155239405E-008
  -84.1000000000000         1.927949700080806E-008
  -83.9100000000000         2.082069502417034E-008
  -83.7200000000000         2.124049285608112E-008
  -83.5300000000000         2.420726499908075E-008
  -83.3400000000000         2.428397597856899E-008
  -83.1500000000000         2.435499045012623E-008
  -82.9600000000000         2.369661036862859E-008
  -82.7700000000000         2.288598954947618E-008
  -82.5800000000000         2.206401607628152E-008
  -82.3900000000000         2.128952941112803E-008
  -82.2000000000000         2.062486466345916E-008
  -82.0100000000000         1.989272381120075E-008
  -81.8200000000000         1.882299346291525E-008
  -81.6300000000000         1.735075146083531E-008
  -81.4400000000000         1.587565089622213E-008
  -81.2500000000000         1.486625337371680E-008
  -81.0600000000000         1.416045059696498E-008
  -80.8700000000000         1.407620677484751E-008
  -80.6800000000000         1.459052020013169E-008
  -80.4900000000000         1.507477949990789E-008
  -80.3000000000000         1.550546073049114E-008
  -80.1100000000000         1.583522445932326E-008
  -79.9200000000000         1.606321714583066E-008
  -79.7300000000000         1.635454042762537E-008
  -79.5400000000000         1.701277061905082E-008
  -79.3500000000000         1.839868353989252E-008
  -79.1600000000000         1.982583003969497E-008
  -78.9700000000000         2.078786190109334E-008
  -78.7800000000000         2.141356477242020E-008
  -78.5900000000000         2.179001816856876E-008
  -78.4000000000000         2.203673759938749E-008
  -78.2100000000000         2.200440445962115E-008
  -78.0200000000000         2.163794340950300E-008
  -77.8300000000000         2.113204216671458E-008
  -77.6400000000000         2.045906120310238E-008
  -77.4500000000000         1.977989839124048E-008
  -77.2600000000000         1.930540658220289E-008
  -77.0700000000000         1.906174796402426E-008
  -76.8800000000000         1.901640373054927E-008
  -76.6900000000000         1.927113880574727E-008
  -76.5000000000000         1.989316390157378E-008
  -76.3100000000000         2.047454164925476E-008
  -76.1200000000000         2.073309783769408E-008
  -75.9300000000000         2.064818295509144E-008
  -75.7400000000000         2.066711777295613E-008
  -75.5500000000000         2.060009514547927E-008
  -75.3600000000000         2.053730625407310E-008
  -75.1700000000000         2.038731544252486E-008
  -74.9800000000000         1.980934001670548E-008
  -74.7900000000000         1.896608455590505E-008
  -74.6000000000000         1.814982493049179E-008
  -74.4100000000000         1.747370242846533E-008
  -74.2200000000000         1.705793275550625E-008
  -74.0300000000000         1.691875740875995E-008
  -73.8400000000000         1.701306773499250E-008
  -73.6500000000000         1.738105495294840E-008
  -73.4600000000000         1.789508810169609E-008
  -73.2700000000000         1.858173069713368E-008
  -73.0800000000000         1.957693757635932E-008
  -72.8900000000000         2.146568567629582E-008
  -72.7000000000000         2.340319308067554E-008
  -72.5100000000000         2.560595658028142E-008
  -72.3200000000000         2.764873501190319E-008
  -72.1300000000000         2.915151531149359E-008
  -71.9400000000000         2.965179857294957E-008
  -71.7500000000000         3.265149076316298E-008
  -71.5600000000000         3.310938683608940E-008
  -71.3700000000000         3.350898619777861E-008
  -71.1800000000000         3.468998982579339E-008
  -70.9900000000000         3.506717141281758E-008
  -70.8000000000000         3.913943115823129E-008
  -70.6100000000000         3.947588889261853E-008
  -70.4200000000000         3.982863615459508E-008
  -70.2300000000000         4.553952873364483E-008
  -70.0400000000000         4.553155541250931E-008
  -69.8500000000000         4.614263230940232E-008
  -69.6600000000000         4.731730776683840E-008
  -69.4700000000000         4.810333044569068E-008
  -69.2800000000000         4.833791574669740E-008
  -69.0900000000000         4.843061411008170E-008
  -68.9000000000000         4.844587817836586E-008
  -68.7100000000000         4.816744227816128E-008
  -68.5200000000000         4.754976191398247E-008
  -68.3300000000000         4.669775621287312E-008
  -68.1400000000000         4.586437467796911E-008
  -67.9500000000000         4.529445397846601E-008
  -67.7600000000000         4.518100766179647E-008
  -67.5700000000000         4.575930576558131E-008
  -67.3800000000000         4.773365762468607E-008
  -67.1900000000000         5.044213915118373E-008
  -67.0000000000000         5.185501528209653E-008
  -66.8100000000000         5.529734972460847E-008
  -66.6200000000000         5.611958295279861E-008
  -66.4300000000000         5.745857025524137E-008
  -66.2400000000000         6.242748167373278E-008
  -66.0500000000000         6.305025567110658E-008
  -65.8600000000000         6.348905746942439E-008
  -65.6700000000000         6.397206540189643E-008
  -65.4800000000000         6.416465198168151E-008
  -65.2900000000000         6.425049484962543E-008
  -65.1000000000000         6.437649373147631E-008
  -64.9100000000000         6.456521700061520E-008
  -64.7200000000000         6.474817717187008E-008
  -64.5300000000000         6.489433527925411E-008
  -64.3400000000000         6.525396617956402E-008
  -64.1500000000000         6.561351076129334E-008
  -63.9600000000000         6.585747332805680E-008
  -63.7700000000000         6.608225864829659E-008
  -63.5800000000000         6.629253845242044E-008
  -63.3900000000000         6.646111485842643E-008
  -63.2000000000000         6.637642124059212E-008
  -63.0100000000000         6.626796300946398E-008
  -62.8200000000000         6.628719579188942E-008
  -62.6300000000000         6.650873556535120E-008
  -62.4400000000000         6.669225292993410E-008
  -62.2500000000000         6.674207492225668E-008
  -62.0600000000000         6.666732046388329E-008
  -61.8700000000000         6.647099184617318E-008
  -61.6800000000000         6.635084812466718E-008
  -61.4900000000000         6.646008090796344E-008
  -61.3000000000000         6.695677388830054E-008
  -61.1100000000000         6.836985766155431E-008
  -60.9200000000000         7.029309578475752E-008
  -60.7300000000000         7.238405992553039E-008
  -60.5400000000000         7.382025239267482E-008
  -60.3500000000000         7.478875527627926E-008
  -60.1600000000000         7.571171799120197E-008
  -59.9700000000000         7.670894308594303E-008
  -59.7800000000000         7.788972298240395E-008
  -59.5900000000000         7.923774180944369E-008
  -59.4000000000000         8.024157929978383E-008
  -59.2100000000000         8.089456564337366E-008
  -59.0200000000000         8.135202447966767E-008
  -58.8300000000000         8.167393116530380E-008
  -58.6400000000000         8.214686103658154E-008
  -58.4500000000000         8.327224292657822E-008
  -58.2600000000000         8.469779574693370E-008
  -58.0700000000000         8.557839772713085E-008
  -57.8800000000000         8.643826741438497E-008
  -57.6900000000000         8.689048493067491E-008
  -57.5000000000000         8.727488720245393E-008
  -57.3100000000000         8.768275981930705E-008
  -57.1200000000000         8.996225446442620E-008
  -56.9300000000000         9.079106641108606E-008
  -56.7400000000000         9.296927311798788E-008
  -56.5500000000000         9.553486853919699E-008
  -56.3600000000000         9.652210913879112E-008
  -56.1700000000000         9.863927631945220E-008
  -55.9800000000000         9.940290501745923E-008
  -55.7900000000000         1.007897564575065E-007
  -55.6000000000000         1.014825417112539E-007
  -55.4100000000000         1.018779997630010E-007
  -55.2200000000000         1.013706428351056E-007
  -55.0300000000000         1.004671516918836E-007
  -54.8400000000000         9.939496258485382E-008
  -54.6500000000000         9.850733149424781E-008
  -54.4600000000000         9.800134388216330E-008
  -54.2700000000000         9.789807960266612E-008
  -54.0800000000000         9.821995583656630E-008
  -53.8900000000000         9.884002737099571E-008
  -53.7000000000000         1.000121287649618E-007
  -53.5100000000000         1.017672929938713E-007
  -53.3200000000000         1.040575537685597E-007
  -53.1300000000000         1.071265981107281E-007
  -52.9400000000000         1.101001073845405E-007
  -52.7500000000000         1.126386751244867E-007
  -52.5600000000000         1.145723993667731E-007
  -52.3700000000000         1.171046470995584E-007
  -52.1800000000000         1.176298277900593E-007
  -51.9900000000000         1.223828138112294E-007
  -51.8000000000000         1.242749916545338E-007
  -51.6100000000000         1.263341879331376E-007
  -51.4200000000000         1.284276660042159E-007
  -51.2300000000000         1.313424403664950E-007
  -51.0400000000000         1.317900977012818E-007
  -50.8500000000000         1.341569695977967E-007
  -50.6600000000000         1.350421286004015E-007
  -50.4700000000000         1.406861196216026E-007
  -50.2800000000000         1.421773246033089E-007
  -50.0900000000000         1.444670937965126E-007
  -49.9000000000000         1.471634247485996E-007
  -49.7100000000000         1.479778712664744E-007
  -49.5200000000000         1.503794673150080E-007
  -49.3300000000000         1.506161214140009E-007
  -49.1400000000000         1.527423089333831E-007
  -48.9500000000000         1.526813070167028E-007
  -48.7600000000000         1.542232253059453E-007
  -48.5700000000000         1.542954126287266E-007
  -48.3800000000000         1.552039993683013E-007
  -48.1900000000000         1.559133041050098E-007
  -48.0000000000000         1.572098339224442E-007
  -47.8100000000000         1.595089524240836E-007
  -47.6200000000000         1.620309985578956E-007
  -47.4300000000000         1.649211636725036E-007
  -47.2400000000000         1.683670953954570E-007
  -47.0500000000000         1.707022112382938E-007
  -46.8600000000000         1.736637522074052E-007
  -46.6700000000000         1.761456313741670E-007
  -46.4800000000000         1.785471449636264E-007
  -46.2900000000000         1.809031777509970E-007
  -46.1000000000000         1.826848729203684E-007
  -45.9100000000000         1.847570937294447E-007
  -45.7200000000000         1.859737068449193E-007
  -45.5300000000000         1.867574868486805E-007
  -45.3400000000000         1.870009354883252E-007
  -45.1500000000000         1.870174588208688E-007
  -44.9600000000000         1.873142300367735E-007
  -44.7700000000000         1.877725910322924E-007
  -44.5800000000000         1.884593413418831E-007
  -44.3900000000000         1.891198468295633E-007
  -44.2000000000000         1.900591220584250E-007
  -44.0100000000000         1.906816151782665E-007
  -43.8200000000000         1.915525641930046E-007
  -43.6300000000000         1.922433139461498E-007
  -43.4400000000000         1.937374528538348E-007
  -43.2500000000000         1.948528282581065E-007
  -43.0600000000000         1.965370319791841E-007
  -42.8700000000000         1.976552679755772E-007
  -42.6800000000000         1.992375538244875E-007
  -42.4900000000000         2.002653350670924E-007
  -42.3000000000000         2.013622994896469E-007
  -42.1100000000000         2.021492391506981E-007
  -41.9200000000000         2.029826169283121E-007
  -41.7300000000000         2.036931781127043E-007
  -41.5400000000000         2.047142643687630E-007
  -41.3500000000000         2.056677750268092E-007
  -41.1600000000000         2.068464344458599E-007
  -40.9700000000000         2.077188950617331E-007
  -40.7800000000000         2.100780089592479E-007
  -40.5900000000000         2.110127641168985E-007
  -40.4000000000000         2.151385066837774E-007
  -40.2100000000000         2.157581168122567E-007
  -40.0200000000000         2.203168005485398E-007
  -39.8300000000000         2.208152991303211E-007
  -39.6400000000000         2.258350184063260E-007
  -39.4500000000000         2.260313507117029E-007
  -39.2600000000000         2.302808980292984E-007
  -39.0700000000000         2.303484142220378E-007
  -38.8800000000000         2.338238511781637E-007
  -38.6900000000000         2.337432888800811E-007
  -38.5000000000000         2.379161035533606E-007
  -38.3100000000000         2.383546979756835E-007
  -38.1200000000000         2.429998172430062E-007
  -37.9300000000000         2.439119682977400E-007
  -37.7400000000000         2.482828644977199E-007
  -37.5500000000000         2.491730150596249E-007
  -37.3600000000000         2.530703762712466E-007
  -37.1700000000000         2.541271183264360E-007
  -36.9800000000000         2.581946414953243E-007
  -36.7900000000000         2.596602517554535E-007
  -36.6000000000000         2.640046537571846E-007
  -36.4100000000000         2.652169792169051E-007
  -36.2200000000000         2.692250648199436E-007
  -36.0300000000000         2.699568817442655E-007
  -35.8400000000000         2.728974011250017E-007
  -35.6500000000000         2.734485367681857E-007
  -35.4600000000000         2.763730986267058E-007
  -35.2700000000000         2.771412482685681E-007
  -35.0800000000000         2.810251797023981E-007
  -34.8900000000000         2.819325989036867E-007
  -34.7000000000000         2.869736902795990E-007
  -34.5100000000000         2.878339951509594E-007
  -34.3200000000000         2.930235645180201E-007
  -34.1300000000000         2.940698962514731E-007
  -33.9400000000000         2.998729586036330E-007
  -33.7500000000000         3.007100220603763E-007
  -33.5600000000000         3.065596486818743E-007
  -33.3700000000000         3.072606186269407E-007
  -33.1800000000000         3.123996532166183E-007
  -32.9900000000000         3.128126203607597E-007
  -32.8000000000000         3.171820323005915E-007
  -32.6100000000000         3.179773094715890E-007
  -32.4200000000000         3.219447770444685E-007
  -32.2300000000000         3.228570813783785E-007
  -32.0400000000000         3.275440728462447E-007
  -31.8500000000000         3.287048963435197E-007
  -31.6600000000000         3.339708382911938E-007
  -31.4700000000000         3.353149545402185E-007
  -31.2800000000000         3.411032188663887E-007
  -31.0900000000000         3.426026905456018E-007
  -30.9000000000000         3.484007699574737E-007
  -30.7100000000000         3.497587350271252E-007
  -30.5200000000000         3.547563848247999E-007
  -30.3300000000000         3.559896265164735E-007
  -30.1400000000000         3.608525472557871E-007
  -29.9500000000000         3.620653931317387E-007
  -29.7600000000000         3.670605186117296E-007
  -29.5700000000000         3.680571477738111E-007
  -29.3800000000000         3.719481472902627E-007
  -29.1900000000000         3.727398751610541E-007
  -29.0000000000000         3.751990841707260E-007
  -28.8100000000000         3.757837504502022E-007
  -28.6200000000000         3.777253227827477E-007
  -28.4300000000000         3.787045215365804E-007
  -28.2400000000000         3.801647450140186E-007
  -28.0500000000000         3.812420436054429E-007
  -27.8600000000000         3.824505612387711E-007
  -27.6700000000000         3.834707404315114E-007
  -27.4800000000000         3.854862945922314E-007
  -27.2900000000000         3.871494885773387E-007
  -27.1000000000000         3.888379914360644E-007
  -26.9100000000000         3.906053478506381E-007
  -26.7200000000000         3.922736268336279E-007
  -26.5300000000000         3.937973202318519E-007
  -26.3400000000000         3.951196346363355E-007
  -26.1500000000000         3.964984624526374E-007
  -25.9600000000000         3.977505333647608E-007
  -25.7700000000000         3.991342589628099E-007
  -25.5800000000000         4.005987600945591E-007
  -25.3900000000000         4.022021589776185E-007
  -25.2000000000000         4.038677269715543E-007
  -25.0100000000000         4.057741653581841E-007
  -24.8200000000000         4.080563093179483E-007
  -24.6300000000000         4.106509053297815E-007
  -24.4400000000000         4.130815101252508E-007
  -24.2500000000000         4.155538511682582E-007
  -24.0600000000000         4.180276418274685E-007
  -23.8700000000000         4.205109670948800E-007
  -23.6800000000000         4.229890619862717E-007
  -23.4900000000000         4.253960537843327E-007
  -23.3000000000000         4.278129412129648E-007
  -23.1100000000000         4.302592231006248E-007
  -22.9200000000000         4.324118870319842E-007
  -22.7300000000000         4.341625195324480E-007
  -22.5400000000000         4.358910060541264E-007
  -22.3500000000000         4.378960018146173E-007
  -22.1600000000000         4.402218724947920E-007
  -21.9700000000000         4.428590315283530E-007
  -21.7800000000000         4.454503971267329E-007
  -21.5900000000000         4.478775905419411E-007
  -21.4000000000000         4.500740422220143E-007
  -21.2100000000000         4.521999381483868E-007
  -21.0200000000000         4.545947635819092E-007
  -20.8300000000000         4.556678177408591E-007
  -20.6400000000000         4.586663027960965E-007
  -20.4500000000000         4.600272024217906E-007
  -20.2600000000000         4.651194674279913E-007
  -20.0700000000000         4.668738489742932E-007
  -19.8800000000000         4.708652727379880E-007
  -19.6900000000000         4.753917008652047E-007
  -19.5000000000000         4.763746778147354E-007
  -19.3100000000000         4.814356769729497E-007
  -19.1200000000000         4.829440622238553E-007
  -18.9300000000000         4.872792412886734E-007
  -18.7400000000000         4.880571628693348E-007
  -18.5500000000000         4.906544074623309E-007
  -18.3600000000000         4.920139643414799E-007
  -18.1700000000000         4.962282786561146E-007
  -17.9800000000000         4.984954982552851E-007
  -17.7900000000000         4.992497617577086E-007
  -17.6000000000000         5.017090695302704E-007
  -17.4100000000000         5.022508595034717E-007
  -17.2200000000000         5.036744696595725E-007
  -17.0300000000000         5.045666703150824E-007
  -16.8400000000000         5.069057118928177E-007
  -16.6500000000000         5.078036559505985E-007
  -16.4600000000000         5.096340954491016E-007
  -16.2700000000000         5.107635639811041E-007
  -16.0800000000000         5.135627757715174E-007
  -15.8900000000000         5.152399789190725E-007
  -15.7000000000000         5.200182193369774E-007
  -15.5100000000000         5.218455495911867E-007
  -15.3200000000000         5.277566695625475E-007
  -15.1300000000000         5.296946624189668E-007
  -14.9400000000000         5.351551598267164E-007
  -14.7500000000000         5.362832917266692E-007
  -14.5600000000000         5.405115480643795E-007
  -14.3700000000000         5.423715769242403E-007
  -14.1800000000000         5.480077718042147E-007
  -13.9900000000000         5.490026795833798E-007
  -13.8000000000000         5.531042896439771E-007
  -13.6100000000000         5.541899354491790E-007
  -13.4200000000000         5.583837561736831E-007
  -13.2300000000000         5.588465346999966E-007
  -13.0400000000000         5.619546198098680E-007
  -12.8500000000000         5.631072671974013E-007
  -12.6600000000000         5.678454327981532E-007
  -12.4700000000000         5.685832903534521E-007
  -12.2800000000000         5.727500818959532E-007
  -12.0900000000000         5.738440539017054E-007
  -11.9000000000000         5.785262711658196E-007
  -11.7100000000000         5.795112450451790E-007
  -11.5200000000000         5.838777119905504E-007
  -11.3300000000000         5.853195784026732E-007
  -11.1400000000000         5.905402640522898E-007
  -10.9500000000000         5.915829281942470E-007
  -10.7600000000000         5.974685397211453E-007
  -10.5700000000000         5.992705771825352E-007
  -10.3800000000000         6.058050777698027E-007
  -10.1900000000000         6.066786643560648E-007
  -10.0000000000000         6.119422427976436E-007
  -9.81000000000000         6.133123305335357E-007
  -9.62000000000000         6.182347403452719E-007
  -9.42999999999999         6.187785367428941E-007
  -9.23999999999999         6.221993578768837E-007
  -9.05000000000000         6.231939452163497E-007
  -8.86000000000000         6.279285564677153E-007
  -8.67000000000000         6.283683602474754E-007
  -8.48000000000000         6.316385214414534E-007
  -8.28999999999999         6.326175307776751E-007
  -8.09999999999999         6.366389634781369E-007
  -7.91000000000000         6.371761944886862E-007
  -7.72000000000000         6.404278112917920E-007
  -7.53000000000000         6.415393822103714E-007
  -7.34000000000000         6.459046275657960E-007
  -7.15000000000001         6.463645909787980E-007
  -6.95999999999999         6.495647247175944E-007
  -6.77000000000000         6.500116140615598E-007
  -6.58000000000000         6.531563674780183E-007
  -6.39000000000000         6.533084663229676E-007
  -6.20000000000000         6.559036428618866E-007
  -6.01000000000001         6.567215025097283E-007
  -5.81999999999999         6.593361234090767E-007
  -5.63000000000000         6.618608636820285E-007
  -5.44000000000000         6.618591522259773E-007
  -5.25000000000000         6.649362012657482E-007
  -5.06000000000000         6.647868520372220E-007
  -4.87000000000000         6.663395391662779E-007
  -4.67999999999999         6.673650626632695E-007
  -4.48999999999999         6.692024289037083E-007
  -4.30000000000000         6.724895777593456E-007
  -4.11000000000000         6.724395866139257E-007
  -3.92000000000000         6.741922063394820E-007
  -3.73000000000000         6.753116074597432E-007
  -3.53999999999999         6.762437650717668E-007
  -3.34999999999999         6.782315790958555E-007
  -3.16000000000000         6.816275650906933E-007
  -2.97000000000000         6.811908120601862E-007
  -2.78000000000000         6.820382749979351E-007
  -2.59000000000000         6.827299794194502E-007
  -2.40000000000001         6.845166737401169E-007
  -2.20999999999999         6.861542019257872E-007
  -2.02000000000000         6.870615684431968E-007
  -1.83000000000000         6.892900043248506E-007
  -1.64000000000000         6.924796024798619E-007
  -1.45000000000000         6.925817703078672E-007
  -1.26000000000001         6.950616782895400E-007
  -1.06999999999999         6.974622731199396E-007
 -0.879999999999995         6.990308373547653E-007
 -0.689999999999998         7.018135865785723E-007
 -0.500000000000000         7.046016397606058E-007
 -0.310000000000002         7.071785746382578E-007
 -0.120000000000005         7.075202439251334E-007
  7.000000000000739E-002    7.097168177171618E-007
  0.260000000000005         7.118514305212690E-007
  0.450000000000003         7.117441603110221E-007
  0.640000000000001         7.127459923548801E-007
  0.829999999999998         7.151591153439560E-007
   1.02000000000000         7.184656655189840E-007
   1.21000000000001         7.215738269237863E-007
   1.40000000000001         7.229449970202001E-007
   1.59000000000000         7.236090759484500E-007
   1.78000000000000         7.239317066145865E-007
   1.97000000000000         7.241580832725508E-007
   2.16000000000000         7.243934737460425E-007
   2.34999999999999         7.250696760408197E-007
   2.54000000000001         7.293545233085873E-007
   2.73000000000000         7.340450630934353E-007
   2.92000000000000         7.381959860355852E-007
   3.11000000000000         7.410955702420504E-007
   3.30000000000000         7.431350004811872E-007
   3.48999999999999         7.447698307394307E-007
   3.68000000000001         7.461082573891018E-007
   3.87000000000000         7.476126618205888E-007
   4.06000000000000         7.487395226784939E-007
   4.25000000000000         7.506398274478390E-007
   4.44000000000000         7.519424837950863E-007
   4.63000000000000         7.541080303442560E-007
   4.82000000000001         7.555348991910001E-007
   5.01000000000001         7.580018453054307E-007
   5.20000000000000         7.593177790475586E-007
   5.39000000000000         7.616339368665214E-007
   5.58000000000000         7.631800216029098E-007
   5.77000000000000         7.651245140387000E-007
   5.96000000000001         7.670735087802789E-007
   6.15000000000001         7.688820360588365E-007
   6.34000000000000         7.707328927171697E-007
   6.53000000000000         7.722956490475830E-007