  -105.000000000000         9.364000124384371E-020
  -104.810000000000         2.171501561143015E-020
  -104.620000000000        -5.410922415086275E-020
  -104.430000000000        -6.472911355331166E-020
  -104.240000000000        -4.079349574207889E-021
  -104.050000000000         6.578312327747730E-020
  -103.860000000000         7.450627700237550E-020
  -103.670000000000         1.097107526099973E-020
  -103.480000000000        -6.591033454895626E-020
  -103.290000000000        -8.344555080059921E-020
  -103.100000000000        -2.476062391300863E-020
  -102.910000000000         5.482081241171003E-020
  -102.720000000000         8.035677215170469E-020
  -102.530000000000         2.858723942594568E-020
  -102.340000000000        -5.012916914916117E-020
  -102.150000000000        -8.006942170028173E-020
  -101.960000000000        -3.246296183017909E-020
  -101.770000000000         4.708734222520987E-020
  -101.580000000000         8.221679758182973E-020
  -101.390000000000         3.884818083932087E-020
  -101.200000000000        -4.211906977724719E-020
  -101.010000000000        -8.382154841696683E-020
  -100.820000000000        -4.688140034109437E-020
  -100.630000000000         3.297520340686338E-020
  -100.440000000000         7.908060053831300E-020
  -100.250000000000         4.708696787960669E-020
  -100.060000000000        -3.261939703034792E-020
  -99.8700000000000        -8.383904514610241E-020
  -99.6800000000000        -5.730487848424728E-020
  -99.4900000000000         2.213893408850841E-020
  -99.3000000000000         7.908006813514383E-020
  -99.1100000000000         5.944203935309010E-020
  -98.9200000000000        -1.791766677823273E-020
  -98.7300000000000        -7.918626217642993E-020
  -98.5400000000000        -6.592523787319596E-020
  -98.3500000000000         9.339319573990260E-021
  -98.1600000000000         7.515164619418036E-020
  -97.9700000000000         6.922907989935882E-020
  -97.7800000000000        -2.278624146853490E-021
  -97.5900000000000        -7.087561149150650E-020
  -97.4000000000000        -7.133038211914589E-020
  -97.2100000000000        -4.070912046007172E-021
  -97.0200000000000         6.532588619790167E-020
  -96.8300000000000         6.901762053147265E-020
  -96.6400000000000         1.991598397562453E-021
  -96.4500000000000        -7.280099822293259E-020
  -96.2600000000000        -8.418873538429936E-020
  -96.0700000000000        -2.049434448380524E-020
  -95.8800000000000         5.932168513415906E-020
  -95.6900000000000         8.175634480094358E-020
  -95.5000000000000         2.855579701846591E-020
  -95.3100000000000        -4.647814535990738E-020
  -95.1200000000000        -6.960475652363835E-020
  -94.9300000000000        -1.812405087072763E-020
  -94.7400000000000         5.776257231256287E-020
  -94.5500000000000         8.308355608036317E-020
  -94.3600000000000         3.021270433063109E-020
  -94.1700000000000        -5.396829976960139E-020
  -93.9800000000000        -9.203338789705265E-020
  -93.7900000000000        -4.940588508730165E-020
  -93.6000000000000         3.281796189436532E-020
  -93.4100000000000         7.703960391179176E-020
  -93.2200000000000         4.297396770301890E-020
  -93.0300000000000        -3.431064928048818E-020
  -92.8400000000000        -7.829980279246946E-020
  -92.6500000000000        -4.442654889336192E-020
  -92.4600000000000         3.705704532761229E-020
  -92.2700000000000         8.964835398664344E-020
  -92.0800000000000         6.346353564373717E-020
  -91.8900000000000        -1.709589348060871E-020
  -91.7000000000000        -7.648971973089903E-020
  -91.5100000000000        -5.996681192082564E-020
  -91.3200000000000         1.443707598826775E-020
  -91.1300000000000         7.344197876960914E-020
  -90.9400000000000         5.874703335413079E-020
  -90.7500000000000        -1.710605150956446E-020
  -90.5600000000000        -8.248010583120441E-020
  -90.3700000000000        -7.482895271649975E-020
  -90.1800000000000        -3.547195183280467E-022
  -89.9900000000000         7.178417405924595E-020
  -89.8000000000000         7.519955836043621E-020
  -89.6100000000000         9.160892439129779E-021
  -89.4200000000000        -6.131170570955895E-020
  -89.2300000000000        -6.797251682755138E-020
  -89.0400000000000        -4.608754272528274E-021
  -88.8500000000000         6.721515427964413E-020
  -88.6600000000000         7.729192139026568E-020
  -88.4700000000000         1.427339459812071E-020
  -88.2800000000000        -6.303295834669468E-020
  -88.0900000000000        -8.156558176458093E-020
  -87.9000000000000        -2.379254324678744E-020
  -87.7100000000000         5.537325474967710E-020
  -87.5200000000000         8.076049147212452E-020
  -87.3300000000000         2.841729813673115E-020
  -87.1400000000000        -5.175458058111898E-020
  -86.9500000000000        -8.367354190341627E-020
  -86.7600000000000        -3.754364675557336E-020
  -86.5700000000000         4.198611844134129E-020
  -86.3800000000000         7.880753934354411E-020
  -86.1900000000000         3.833674939979025E-020
  -86.0000000000000        -3.940995424067912E-020
  -85.8100000000000        -7.832829769086405E-020
  -85.6200000000000        -3.939068601770427E-020
  -85.4300000000000         4.159744875498885E-020
  -85.2400000000000         8.777448816281754E-020
  -85.0500000000000         5.436887416473518E-020
  -84.8600000000000        -2.848405852782433E-020
  -84.6700000000000        -8.414114175294638E-020
  -84.4800000000000        -6.212339989924874E-020
  -84.2900000000000         1.421097318417532E-020
  -84.1000000000000         7.048214496357518E-020
  -83.9100000000000         5.269350797314839E-020
  -83.7200000000000        -2.110983609491533E-020
  -83.5300000000000        -7.826608334423994E-020
  -83.3400000000000        -6.128296708056077E-020
  -83.1500000000000         1.669692710889005E-020
  -82.9600000000000         8.381984098244844E-020
  -82.7700000000000         7.768074533144425E-020
  -82.5800000000000         4.761895621628015E-021
  -82.3900000000000        -6.573060500361793E-020
  -82.2000000000000        -6.789023010546673E-020
  -82.0100000000000        -1.929153606315849E-021
  -81.8200000000000         6.622682090458940E-020
  -81.6300000000000         6.814416697293830E-020
  -81.4400000000000        -1.423747300515885E-021
  -81.2500000000000        -7.897974967062088E-020
  -81.0600000000000        -9.224736587481206E-020
  -80.8700000000000        -2.866153452279607E-020
  -80.6800000000000         5.282726073010740E-020
  -80.4900000000000         7.787015442423733E-020
  -80.3000000000000         2.717442604137839E-020
  -80.1100000000000        -4.589246732539232E-020
  -79.9200000000000        -6.711068728403229E-020
  -79.7300000000000        -1.294246628285438E-020
  -79.5400000000000         6.652761178240041E-020
  -79.3500000000000         9.514354906636768E-020
  -79.1600000000000         4.344166959752822E-020
  -78.9700000000000        -4.277982849186616E-020
  -78.7800000000000        -8.549481048958986E-020
  -78.5900000000000        -4.815769167739141E-020
  -78.4000000000000         3.019515803747307E-020
  -78.2100000000000         7.282107592466852E-020
  -78.0200000000000         3.869457967014063E-020
  -77.8300000000000        -3.867728490424193E-020
  -77.6400000000000        -8.387699343205099E-020
  -77.4500000000000        -5.221696354259747E-020
  -77.2600000000000         2.715169516428385E-020
  -77.0700000000000         7.897819258192073E-020
  -76.8800000000000         5.402143205169685E-020
  -76.6900000000000        -2.356220681749790E-020
  -76.5000000000000        -7.906407472544829E-020
  -76.3100000000000        -5.853142624351456E-020
  -76.1200000000000         1.960793201466055E-020
  -75.9300000000000         8.189128286537737E-020
  -75.7400000000000         6.962464087209221E-020
  -75.5500000000000        -5.328232783122026E-021
  -75.3600000000000        -7.195239865556352E-020
  -75.1700000000000        -6.788284597582084E-020
  -74.9800000000000         1.105103160975887E-021
  -74.7900000000000         6.683160074616052E-020
  -74.6000000000000         6.422865315685992E-020
  -74.4100000000000        -6.053081798566428E-021
  -74.2200000000000        -7.784491402982119E-020
  -74.0300000000000        -8.234240253183765E-020
  -73.8400000000000        -1.374712917523783E-020
  -73.6500000000000         6.493403226336890E-020
  -73.4600000000000         8.159927917482368E-020
  -73.2700000000000         2.344710144738098E-020
  -73.0800000000000        -5.120972429921309E-020
  -72.8900000000000        -6.899365098589193E-020
  -72.7000000000000        -1.176555111994724E-020
  -72.5100000000000         6.597712889298026E-020
  -72.3200000000000         8.909872759054510E-020
  -72.1300000000000         3.352963990392656E-020
  -71.9400000000000        -5.063478128876642E-020
  -71.7500000000000        -8.659132182951441E-020
  -71.5600000000000        -4.361686721408299E-020
  -71.3700000000000         3.420208801681948E-020
  -71.1800000000000         7.066626477138899E-020
  -70.9900000000000         3.066154134165688E-020
  -70.8000000000000        -4.623521622372561E-020
  -70.6100000000000        -8.385657350071917E-020
  -70.4200000000000        -4.274700287707575E-020
  -70.2300000000000         4.142167424767710E-020
  -70.0400000000000         9.112378023443891E-020
  -69.8500000000000         6.041602931092274E-020
  -69.6600000000000        -2.140289793892341E-020
  -69.4700000000000        -7.765067124942415E-020
  -69.2800000000000        -5.714392459037257E-020
  -69.0900000000000         1.748404015643334E-020
  -68.9000000000000         7.209367853936907E-020
  -68.7100000000000         5.243267220945508E-020
  -68.5200000000000        -2.373268925635746E-020
  -68.3300000000000        -8.350310756950055E-020
  -68.1400000000000        -6.858964299737363E-020
  -67.9500000000000         8.660274289523223E-021
  -67.7600000000000         7.654887077773176E-020
  -67.5700000000000         7.205885620804160E-020
  -67.3800000000000         7.774018347815400E-022
  -67.1900000000000        -6.850586549880665E-020
  -67.0000000000000        -6.934005630847114E-020
  -66.8100000000000        -7.403943520281780E-022
  -66.6200000000000         7.216385256375200E-020
  -66.4300000000000         8.037841747590570E-020
  -66.2400000000000         1.677223363170510E-020
  -66.0500000000000        -5.737481575136527E-020
  -65.8600000000000        -7.123473458285499E-020
  -65.6700000000000        -1.241220871256788E-020
  -65.4800000000000         6.108941935298266E-020
  -65.2900000000000         7.644404824039853E-020
  -65.1000000000000         1.591385231643056E-020
  -64.9100000000000        -6.580572321047160E-020
  -64.7200000000000        -9.338962022268841E-020
  -64.5300000000000        -4.241523534501604E-020
  -64.3400000000000         3.758448379127899E-020
  -64.1500000000000         7.056580631956738E-020
  -63.9600000000000         2.666936801864210E-020
  -63.7700000000000        -4.932110181815226E-020
  -63.5800000000000        -8.103427499662918E-020
  -63.3900000000000        -3.390489987451598E-020
  -63.2000000000000         5.130290883284006E-020
  -63.0100000000000         9.687704473226025E-020
  -62.8200000000000         6.184268630138123E-020
  -62.6300000000000        -1.922920291163486E-020
  -62.4400000000000        -6.925649288368974E-020
  -62.2500000000000        -4.211138460151877E-020
  -62.0600000000000         3.351944549731994E-020
  -61.8700000000000         8.182521892043068E-020
  -61.6800000000000         5.272231909350944E-020
  -61.4900000000000        -2.977803907057396E-020
  -61.3000000000000        -8.994034825781929E-020
  -61.1100000000000        -7.209404220583768E-020
  -60.9200000000000         6.541303445408924E-021
  -60.7300000000000         7.222962487959491E-020
  -60.5400000000000         6.466207742887521E-020
  -60.3500000000000        -6.130953737927002E-021
  -60.1600000000000        -7.008335545994213E-020
  -59.9700000000000        -6.461512476206897E-020
  -59.7800000000000         5.325737183325638E-021
  -59.5900000000000         7.211462055404772E-020
  -59.4000000000000         7.036513776770769E-020
  -59.2100000000000        -2.920331174531094E-022
  -59.0200000000000        -7.451608463148550E-020
  -58.8300000000000        -8.327316227252710E-020
  -58.6400000000000        -1.942558857981409E-020
  -58.4500000000000         5.568004336383689E-020
  -58.2600000000000         7.094891636534826E-020
  -58.0700000000000         1.346147430988770E-020
  -57.8800000000000        -5.940174755144272E-020
  -57.6900000000000        -7.518160237601028E-020
  -57.5000000000000        -1.599049949286001E-020
  -57.3100000000000         6.403207897778132E-020
  -57.1200000000000         9.015281668057079E-020
  -56.9300000000000         3.831586542234749E-020
  -56.7400000000000        -4.180337379541886E-020
  -56.5500000000000        -7.414752963569787E-020
  -56.3600000000000        -2.894120118975752E-020
  -56.1700000000000         4.883741544972896E-020
  -55.9800000000000         8.252619588582333E-020
  -55.7900000000000         3.724113369700934E-020
  -55.6000000000000        -4.649086933248356E-020
  -55.4100000000000        -9.104162986008018E-020
  -55.2200000000000        -5.542309131441638E-020
  -55.0300000000000         2.577524651663706E-020
  -54.8400000000000         7.538427872895068E-020
  -54.6500000000000         4.721453945303779E-020
  -54.4600000000000        -2.997809001309651E-020
  -54.2700000000000        -8.012897030439484E-020
  -54.0800000000000        -5.269603948299200E-020
  -53.8900000000000         2.889440537866863E-020
  -53.7000000000000         8.936548209434582E-020
  -53.5100000000000         7.308653590381437E-020
  -53.3200000000000        -3.188056050120949E-021
  -53.1300000000000        -6.653452400675697E-020
  -52.9400000000000        -5.756989365462386E-020
  -52.7500000000000         1.284268992860347E-020
  -52.5600000000000         7.410739870539693E-020
  -52.3700000000000         6.363269529256074E-020
  -52.1800000000000        -1.299123579747344E-020
  -51.9900000000000        -8.689933000941779E-020
  -51.8000000000000        -9.119362915079459E-020
  -51.6100000000000        -2.424617185578422E-020
  -51.4200000000000         4.920424852479095E-020
  -51.2300000000000         6.008931917789124E-020
  -51.0400000000000         9.423318608073945E-022
  -50.8500000000000        -6.727290286019716E-020
  -50.6600000000000        -7.398915932639933E-020
  -50.4700000000000        -7.200370043662488E-021
  -50.2800000000000         7.433825273125475E-020
  -50.0900000000000         9.659321776095072E-020
  -49.9000000000000         4.047059154461138E-020
  -49.7100000000000        -4.012509493921818E-020
  -49.5200000000000        -6.953290161114440E-020
  -49.3300000000000        -2.208599239244365E-020
  -49.1400000000000         5.394807955673946E-020
  -48.9500000000000         8.303032722955577E-020
  -48.7600000000000         3.498337045729630E-020
  -48.5700000000000        -4.592150148601139E-020
  -48.3800000000000        -8.324003878819501E-020
  -48.1900000000000        -4.149387831305753E-020
  -48.0000000000000         3.974394779690720E-020
  -47.8100000000000         8.333576779817022E-020
  -47.6200000000000         4.789814818105231E-020
  -47.4300000000000        -3.292936861587177E-020
  -47.2400000000000        -8.274399747985802E-020
  -47.0500000000000        -5.539152068125459E-020
  -46.8600000000000         2.107659435146812E-020
  -46.6700000000000         7.153458650585349E-020
  -46.4800000000000         4.593076671507211E-020
  -46.2900000000000        -3.264719048091203E-020
  -46.1000000000000        -8.989713016161311E-020
  -45.9100000000000        -7.121697202262262E-020
  -45.7200000000000         6.088546398735487E-021
  -45.5300000000000         6.919385812458712E-020
  -45.3400000000000         5.923161492151313E-020
  -45.1500000000000        -1.244574182871026E-020
  -44.9600000000000        -7.509639933431595E-020
  -44.7700000000000        -6.625953347169618E-020
  -44.5800000000000         8.415353970944364E-021
  -44.3900000000000         8.034854668282609E-020
  -44.2000000000000         8.326975328563993E-020
  -44.0100000000000         1.631751302661539E-020
  -43.8200000000000        -5.516574310542170E-020
  -43.6300000000000        -6.202175956615474E-020
  -43.4400000000000         2.556107611453979E-021
  -43.2500000000000         7.630820895911826E-020
  -43.0600000000000         8.722273044322416E-020
  -42.8700000000000         2.229352073272909E-020
  -42.6800000000000        -5.991463259846862E-020
  -42.4900000000000        -8.480628125202019E-020
  -42.3000000000000        -3.239907295349032E-020
  -42.1100000000000         4.415378490331618E-020
  -41.9200000000000         6.968190456358761E-020
  -41.7300000000000         1.898558727760247E-020
  -41.5400000000000        -5.900144574971818E-020
  -41.3500000000000        -8.799646243241093E-020
  -41.1600000000000        -3.741961803527870E-020
  -40.9700000000000         4.809298036494370E-020
  -40.7800000000000         9.082839194263626E-020
  -40.5900000000000         5.348180952283370E-020
  -40.4000000000000        -2.600220794700209E-020
  -40.2100000000000        -7.119723881231862E-020
  -40.0200000000000        -4.033533366986111E-020
  -39.8300000000000         3.400109624505043E-020
  -39.6400000000000         7.653523577319520E-020
  -39.4500000000000         4.197964794221712E-020
  -39.2600000000000        -4.093271238791814E-020
  -39.0700000000000        -9.633197864005237E-020
  -38.8800000000000        -7.332168389307936E-020
  -38.6900000000000         5.594772545774496E-021
  -38.5000000000000         6.596343911967991E-020
  -38.3100000000000         5.223625438110835E-020
  -38.1200000000000        -1.949927574306173E-020
  -37.9300000000000        -7.722326887933945E-020
  -37.7400000000000        -6.215677387481305E-020
  -37.5500000000000         1.474573941458530E-020
  -37.3600000000000         8.308492673888222E-020
  -37.1700000000000         8.021893093067326E-020
  -36.9800000000000         1.104146117221427E-020
  -36.7900000000000        -5.677989301315413E-020
  -36.6000000000000        -5.751520493645485E-020
  -36.4100000000000         9.707049831010963E-021
  -36.2200000000000         7.984218676901130E-020
  -36.0300000000000         8.392454269757932E-020
  -35.8400000000000         1.507465309639286E-020
  -35.6500000000000        -6.457110204865411E-020
  -35.4600000000000        -8.273593335817678E-020
  -35.2700000000000        -2.549304550988440E-020
  -35.0800000000000         4.992656009053250E-020
  -34.8900000000000         7.004173899435042E-020
  -34.7000000000000         1.526320566995818E-020
  -34.5100000000000        -6.159133795255137E-020
  -34.3200000000000        -8.604465255850216E-020
  -34.1300000000000        -3.352756759534089E-020
  -33.9400000000000         4.671639647785982E-020
  -33.7500000000000         7.842973395489375E-020
  -33.5600000000000         3.117318551886882E-020
  -33.3700000000000        -5.045991232311694E-020
  -33.1800000000000        -8.914858606112265E-020
  -32.9900000000000        -4.827656537644334E-020
  -32.8000000000000         3.346390554678837E-020
  -32.6100000000000         7.919594814951430E-020
  -32.4200000000000         4.730550024600604E-020
  -32.2300000000000        -2.887408213903498E-020
  -32.0400000000000        -7.311540861173917E-020
  -31.8500000000000        -3.949289802080721E-020
  -31.6600000000000         4.331026146659099E-020
  -31.4700000000000         9.896517062030723E-020
  -31.2800000000000         7.595976021772693E-020
  -31.0900000000000        -3.538378753365392E-021
  -30.9000000000000        -6.491344322601234E-020
  -30.7100000000000        -5.218822903042660E-020
  -30.5200000000000         1.874668763914421E-020
  -30.3300000000000         7.557726753934271E-020
  -30.1400000000000         5.902482523779079E-020
  -29.9500000000000        -2.005596660707693E-020
  -29.7600000000000        -9.057119069745026E-020
  -29.5700000000000        -8.862082744070105E-020
  -29.3800000000000        -1.810478941913448E-020
  -29.1900000000000         5.318484246192067E-020
  -29.0000000000000         5.814192194955670E-020
  -28.8100000000000        -5.940956989062495E-021
  -28.6200000000000        -7.520467155962204E-020
  -28.4300000000000        -8.062064358886204E-020
  -28.2400000000000        -1.422663920691887E-020
  -28.0500000000000         6.318518439867182E-020
  -27.8600000000000         8.020169047383318E-020
  -27.6700000000000         2.301041114034026E-020
  -27.4800000000000        -5.149152709091312E-020
  -27.2900000000000        -7.011899806264429E-020
  -27.1000000000000        -1.339717191512266E-020
  -26.9100000000000         6.562478620553791E-020
  -26.7200000000000         9.179239069161980E-020
  -26.5300000000000         3.949363618537754E-020
  -26.3400000000000        -4.289075315896258E-020
  -26.1500000000000        -7.910897825258705E-020
  -25.9600000000000        -3.757418391477473E-020
  -25.7700000000000         3.900350554495627E-020
  -25.5800000000000         7.501336193352855E-020
  -25.3900000000000         3.465311908625835E-020
  -25.2000000000000        -4.354548805265213E-020
  -25.0100000000000        -8.345644019437111E-020
  -24.8200000000000        -4.442746644534187E-020
  -24.6300000000000         3.919770982215370E-020
  -24.4400000000000         9.016071193839432E-020
  -24.2500000000000         6.152381861532251E-020
  -24.0600000000000        -1.886383375217915E-020
  -23.8700000000000        -7.505621447446358E-020
  -23.6800000000000        -5.528699793336064E-020
  -23.4900000000000         1.905189027088400E-020
  -23.3000000000000         7.428661580786262E-020
  -23.1100000000000         5.522066944024122E-020
  -22.9200000000000        -2.177652283494154E-020
  -22.7300000000000        -8.417126530179088E-020
  -22.5400000000000        -7.254163496797772E-020
  -22.3500000000000         2.523661919702124E-021
  -22.1600000000000         7.032532868680799E-020
  -21.9700000000000         6.726648859262337E-020
  -21.7800000000000        -2.741632121365090E-021
  -21.5900000000000        -7.218369635211847E-020
  -21.4000000000000        -7.441594904031597E-020
  -21.2100000000000        -7.308216653617419E-021
  -21.0200000000000         6.470122199809119E-020
  -20.8300000000000         7.222688821943006E-020
  -20.6400000000000         7.373435312009720E-021
  -20.4500000000000        -6.857673504372321E-020
  -20.2600000000000        -8.354018966818567E-020
  -20.0700000000000        -2.324522167851841E-020
  -19.8800000000000         5.534594770818968E-020
  -19.6900000000000         7.849648203093770E-020
  -19.5000000000000         2.608368468635242E-020
  -19.3100000000000        -4.923886270195514E-020
  -19.1200000000000        -7.249819064798445E-020
  -18.9300000000000        -1.832954218759097E-020
  -18.7400000000000         6.445464424554530E-020
  -18.5500000000000         9.919224119473025E-020
  -18.3600000000000         5.429052230701150E-020
  -18.1700000000000        -2.684634654612659E-020
  -17.9800000000000        -6.729964064406400E-020
  -17.7900000000000        -2.995387491398916E-020
  -17.6000000000000         4.716022690832367E-020
  -17.4100000000000         8.722302255988720E-020
  -17.2200000000000         4.810027011112094E-020
  -17.0300000000000        -3.722354505131578E-020
  -16.8400000000000        -9.193612681636927E-020
  -16.6500000000000        -6.846016324493386E-020
  -16.4600000000000         6.553979956156694E-021
  -16.2700000000000         5.813530863393842E-020
  -16.0800000000000         3.491141568516821E-020
  -15.8900000000000        -4.160624902119625E-020
  -15.7000000000000        -9.742605081218009E-020
  -15.5100000000000        -7.681823493388185E-020
  -15.3200000000000         4.135329017498991E-021
  -15.1300000000000         7.248131244921178E-020
  -14.9400000000000         6.761773520174606E-020
  -14.7500000000000        -1.375054960959008E-021
  -14.5600000000000        -6.494219155377714E-020
  -14.3700000000000        -5.976696228832906E-020
  -14.1800000000000         1.075198732961336E-020
  -13.9900000000000         7.985823011359077E-020
  -13.8000000000000         8.138773212078059E-020
  -13.6100000000000         1.327020839344928E-020
  -13.4200000000000        -6.019943137120511E-020
  -13.2300000000000        -6.964235101510903E-020
  -13.0400000000000        -6.836627759380185E-021
  -12.8500000000000         6.745720425268315E-020
  -12.6600000000000         8.151694019193800E-020
  -12.4700000000000         2.110443752189902E-020
  -12.2800000000000        -5.690164349270269E-020
  -12.0900000000000        -7.869943379544516E-020
  -11.9000000000000        -2.400471646428995E-020
  -11.7100000000000         5.449767499316890E-020
  -11.5200000000000         8.142304539247469E-020
  -11.3300000000000         3.068439465897419E-020
  -11.1400000000000        -4.967666916464161E-020
  -10.9500000000000        -8.350696206279760E-020
  -10.7600000000000        -3.929238711960069E-020
  -10.5700000000000         3.983099703251099E-020
  -10.3800000000000         7.736207507237521E-020
  -10.1900000000000         3.664441033348989E-020
  -10.0000000000000        -4.384282005011154E-020
  -9.81000000000000        -8.696506216889423E-020
  -9.62000000000000        -5.051616679182311E-020
  -9.42999999999999         3.240408647165769E-020
  -9.23999999999999         8.483272115851942E-020
  -9.05000000000000         5.911001205192948E-020
  -8.86000000000000        -1.805756772149610E-020
  -8.67000000000000        -7.145956185253053E-020
  -8.48000000000000        -4.941248459341717E-020
  -8.28999999999999         2.670136634045855E-020
  -8.09999999999999         8.273107520633296E-020
  -7.91000000000000         6.270493826450718E-020
  -7.72000000000000        -1.732705304053001E-020
  -7.53000000000000        -8.416910118585991E-020
  -7.34000000000000        -7.693442810001805E-020
  -7.15000000000001        -4.735216930443089E-021
  -6.95999999999999         6.234325410280425E-020
  -6.77000000000000         6.022497532532016E-020
  -6.58000000000000        -8.079568748421744E-021
  -6.39000000000000        -7.549073842248315E-020
  -6.20000000000000        -7.515362101032553E-020
  -6.01000000000001        -4.656495262232534E-021
  -5.81999999999999         7.128995095506069E-020
  -5.63000000000000         8.234877831519896E-020
  -5.44000000000000         1.943362124443334E-020
  -5.25000000000000        -5.682701375823277E-020
  -5.06000000000000        -7.391158280419790E-020
  -4.87000000000000        -1.632341713812866E-020
  -4.67999999999999         5.994573858036717E-020
  -4.48999999999999         8.111182679621500E-020
  -4.30000000000000         2.624759847511251E-020
  -4.11000000000000        -5.263308595227234E-020
  -3.92000000000000        -8.033628261148148E-020
  -3.73000000000000        -3.046097437759904E-020
  -3.53999999999999         4.930991323653051E-020
  -3.34999999999999         8.269171937522663E-020
  -3.16000000000000         3.752747788044179E-020
  -2.97000000000000        -4.358128379098587E-020
  -2.78000000000000        -8.390220530669505E-020
  -2.59000000000000        -4.575048472410110E-020
  -2.40000000000001         3.363934964512933E-020
  -2.20999999999999         7.791512526598436E-020
  -2.02000000000000         4.481972288951931E-020
  -1.83000000000000        -3.337265987462357E-020
  -1.64000000000000        -8.088017693047861E-020
  -1.45000000000000        -5.108378727120777E-020
  -1.26000000000001         2.864333853371024E-020
  -1.06999999999999         8.274107508619191E-020
 -0.879999999999995         5.940728873058306E-020
 -0.689999999999998        -1.983978080578781E-020
 -0.500000000000000        -8.040881048860444E-020
 -0.310000000000002        -6.556621909469667E-020
 -0.120000000000005         9.679086179457385E-021
  7.000000000000739E-002    7.323656375879322E-020
  0.260000000000005         6.500718743838890E-020
  0.450000000000003        -5.694288189452111E-021
  0.640000000000001        -6.912715619253191E-020
  0.829999999999998        -6.194499620089390E-020
   1.02000000000000         1.181667749802594E-020
   1.21000000000001         8.389709374445194E-020
   1.40000000000001         8.642580875974358E-020
   1.59000000000000         1.646668900871923E-020
   1.78000000000000        -6.121184773595501E-020
   1.97000000000000        -7.577733335057141E-020
   2.16000000000000        -1.745961157147629E-020
   2.34999999999999         5.376638307175403E-020
   2.54000000000001         6.597029174079294E-020
   2.73000000000000         4.333616608733255E-021
   2.92000000000000        -7.435995442029647E-020
   3.11000000000000        -9.574000967318499E-020
   3.30000000000000        -3.890482192110821E-020
   3.48999999999999         4.342789881331872E-020
   3.68000000000001         7.500516017496004E-020
   3.87000000000000         2.846645480778332E-020
   4.06000000000000        -4.899161969867928E-020
   4.25000000000000        -8.097336283098804E-020
   4.44000000000000        -3.487910726015949E-020
   4.63000000000000         4.698627199449552E-020
   4.82000000000001         8.783149866365521E-020
   5.01000000000001         4.982361144889703E-020
   5.20000000000000        -2.964085236503358E-020
   5.39000000000000        -7.365062521849533E-020
   5.58000000000000        -3.932256636329213E-020
   5.77000000000000         4.122919089512422E-020
   5.96000000000001         9.157583787049471E-020
   6.15000000000001         6.387806498029856E-020
   6.34000000000000        -1.553383358031979E-020
   6.53000000000000        -7.132643510460012E-020