  -105.000000000000        -6.551546134020928E-019
  -104.810000000000        -4.962353490639456E-019
  -104.620000000000        -2.318154579814964E-019
  -104.430000000000         6.401117777002899E-020
  -104.240000000000         3.088891245786526E-019
  -104.050000000000         4.359207995935377E-019
  -103.860000000000         4.128891642213872E-019
  -103.670000000000         2.513954060382215E-019
  -103.480000000000         3.255121821922486E-021
  -103.290000000000        -2.547826443229184E-019
  -103.100000000000        -4.435182217522185E-019
  -102.910000000000        -5.044239794904441E-019
  -102.720000000000        -4.166914338355379E-019
  -102.530000000000        -2.032859356642584E-019
  -102.340000000000         7.571128357185535E-020
  -102.150000000000         3.405309343061352E-019
  -101.960000000000         5.148766853186860E-019
  -101.770000000000         5.481255872169700E-019
  -101.580000000000         4.301290416049216E-019
  -101.390000000000         1.942896225814290E-019
  -101.200000000000        -9.202078528958040E-020
  -101.010000000000        -3.469399517990161E-019
  -100.820000000000        -4.978190319189131E-019
  -100.630000000000        -5.022349477095637E-019
  -100.440000000000        -3.601972568594670E-019
  -100.250000000000        -1.140299073242452E-019
  -100.060000000000         1.639941980222719E-019
  -99.8700000000000         3.926490478304794E-019
  -99.6800000000000         5.052977989887231E-019
  -99.4900000000000         4.691865128427079E-019
  -99.3000000000000         2.949225523597700E-019
  -99.1100000000000         3.338731949456856E-020
  -98.9200000000000        -2.390475724171638E-019
  -98.7300000000000        -4.427323295880609E-019
  -98.5400000000000        -5.179245919895500E-019
  -98.3500000000000        -4.421870388907186E-019
  -98.1600000000000        -2.369197998560975E-019
  -97.9700000000000         3.886804907630407E-020
  -97.7800000000000         3.057131275126760E-019
  -97.5900000000000         4.867693246863445E-019
  -97.4000000000000         5.300922098009731E-019
  -97.2100000000000         4.236868759912447E-019
  -97.0200000000000         1.989737401312370E-019
  -96.8300000000000        -7.833296250900928E-020
  -96.6400000000000        -3.273070470873044E-019
  -96.4500000000000        -4.753318672272390E-019
  -96.2600000000000        -4.792278583520972E-019
  -96.0700000000000        -3.378253548578637E-019
  -95.8800000000000        -9.230613076888842E-020
  -95.6900000000000         1.857871992913697E-019
  -95.5000000000000         4.153668975619251E-019
  -95.3100000000000         5.293683783039055E-019
  -95.1200000000000         4.942253428253287E-019
  -94.9300000000000         3.196235451744613E-019
  -94.7400000000000         5.572835661299829E-020
  -94.5500000000000        -2.213113507397251E-019
  -94.3600000000000        -4.314087569669368E-019
  -94.1700000000000        -5.137735195127768E-019
  -93.9800000000000        -4.446025665235912E-019
  -93.7900000000000        -2.440660893945797E-019
  -93.6000000000000         2.948236475319542E-020
  -93.4100000000000         2.964158851454227E-019
  -93.2200000000000         4.789450822328912E-019
  -93.0300000000000         5.236938251053611E-019
  -92.8400000000000         4.171764406655586E-019
  -92.6500000000000         1.897053756373243E-019
  -92.4600000000000        -9.336953052834161E-020
  -92.2700000000000        -3.505311148749487E-019
  -92.0800000000000        -5.076201468383503E-019
  -91.8900000000000        -5.192383283143041E-019
  -91.7000000000000        -3.818593220131796E-019
  -91.5100000000000        -1.348464655262791E-019
  -91.3200000000000         1.509476038522301E-019
  -91.1300000000000         3.937192290029270E-019
  -90.9400000000000         5.244290184461152E-019
  -90.7500000000000         5.067866929699989E-019
  -90.5600000000000         3.476838480078163E-019
  -90.3700000000000         9.505195449750120E-020
  -90.1800000000000        -1.762016186018822E-019
  -89.9900000000000        -3.860650034150952E-019
  -89.8000000000000        -4.727439743334547E-019
  -89.6100000000000        -4.106816586119130E-019
  -89.4200000000000        -2.180605913618255E-019
  -89.2300000000000         4.840035969866159E-020
  -89.0400000000000         3.098755549079926E-019
  -88.8500000000000         4.883474231543876E-019
  -88.6600000000000         5.293568419562887E-019
  -88.4700000000000         4.179606199248732E-019
  -88.2800000000000         1.832336376819832E-019
  -88.0900000000000        -1.100027781462696E-019
  -87.9000000000000        -3.798125332368584E-019
  -87.7100000000000        -5.507135559192657E-019
  -87.5200000000000        -5.753544911721607E-019
  -87.3300000000000        -4.480500140605133E-019
  -87.1400000000000        -2.062927524132143E-019
  -86.9500000000000         8.017712050965832E-020
  -86.7600000000000         3.295862485253859E-019
  -86.5700000000000         4.717864958006397E-019
  -86.3800000000000         4.685010411911972E-019
  -86.1900000000000         3.242649014634296E-019
  -86.0000000000000         8.486284793908659E-020
  -85.8100000000000        -1.762719926972325E-019
  -85.6200000000000        -3.796983892256392E-019
  -85.4300000000000        -4.632978441246938E-019
  -85.2400000000000        -4.004837150718265E-019
  -85.0500000000000        -2.080068068189949E-019
  -84.8600000000000         5.887776254290474E-020
  -84.6700000000000         3.224548750214864E-019
  -84.4800000000000         5.051500224661154E-019
  -84.2900000000000         5.521471015877863E-019
  -84.1000000000000         4.474676874670459E-019
  -83.9100000000000         2.188194508575480E-019
  -83.7200000000000        -7.024345019250852E-020
  -83.5300000000000        -3.386126997470180E-019
  -83.3400000000000        -5.110654116418814E-019
  -83.1500000000000        -5.400189878557231E-019
  -82.9600000000000        -4.192545741307591E-019
  -82.7700000000000        -1.856200268084233E-019
  -82.5800000000000         9.175521102843308E-020
  -82.3900000000000         3.315687950259075E-019
  -82.2000000000000         4.639324043224578E-019
  -82.0100000000000         4.506137267944621E-019
  -81.8200000000000         2.960871095370666E-019
  -81.6300000000000         4.619266763322403E-020
  -81.4400000000000        -2.252218709430336E-019
  -81.2500000000000        -4.378141077837834E-019
  -81.0600000000000        -5.281653168362668E-019
  -80.8700000000000        -4.682832376297024E-019
  -80.6800000000000        -2.737976331488836E-019
  -80.4900000000000         5.280656353466163E-022
  -80.3000000000000         2.766427638612051E-019
  -80.1100000000000         4.757927162205050E-019
  -79.9200000000000         5.412984847929329E-019
  -79.7300000000000         4.549450164976924E-019
  -79.5400000000000         2.422571777721710E-019
  -79.3500000000000        -3.486836578339591E-020
  -79.1600000000000        -2.960651856128373E-019
  -78.9700000000000        -4.657761898645568E-019
  -78.7800000000000        -4.951716303699350E-019
  -78.5900000000000        -3.763270877127412E-019
  -78.4000000000000        -1.445115705764841E-019
  -78.2100000000000         1.320941284055894E-019
  -78.0200000000000         3.722451877403784E-019
  -77.8300000000000         5.052533413178128E-019
  -77.6400000000000         4.915157049238029E-019
  -77.4500000000000         3.340222462815464E-019
  -77.2600000000000         7.754442529735701E-020
  -77.0700000000000        -2.042455128024492E-019
  -76.8800000000000        -4.300234017176440E-019
  -76.6900000000000        -5.343304362416109E-019
  -76.5000000000000        -4.865813907625719E-019
  -76.3100000000000        -3.000423288081963E-019
  -76.1200000000000        -2.812575013164624E-020
  -75.9300000000000         2.509713228022827E-019
  -75.7400000000000         4.568514156402925E-019
  -75.5500000000000         5.301640057813876E-019
  -75.3600000000000         4.497570741516040E-019
  -75.1700000000000         2.387582253762569E-019
  -74.9800000000000        -4.215445673363622E-020
  -74.7900000000000        -3.123106757045937E-019
  -74.6000000000000        -4.943355941052547E-019
  -74.4100000000000        -5.364368472372237E-019
  -74.2200000000000        -4.272644994261381E-019
  -74.0300000000000        -1.990597719057326E-019
  -73.8400000000000         8.181557096126688E-020
  -73.6500000000000         3.342245053232014E-019
  -73.4600000000000         4.858527590640375E-019
  -73.2700000000000         4.941862243095224E-019
  -73.0800000000000         3.587579059777827E-019
  -72.8900000000000         1.211180671359121E-019
  -72.7000000000000        -1.474248832956562E-019
  -72.5100000000000        -3.666948044848373E-019
  -72.3200000000000        -4.710931691282053E-019
  -72.1300000000000        -4.288038095276752E-019
  -71.9400000000000        -2.511864186503017E-019
  -71.7500000000000         1.039030245541056E-020
  -71.5600000000000         2.793976856949483E-019
  -71.3700000000000         4.763982577047140E-019
  -71.1800000000000         5.422322324057403E-019
  -70.9900000000000         4.553629734020984E-019
  -70.8000000000000         2.382938397710152E-019
  -70.6100000000000        -4.882832696132755E-020
  -70.4200000000000        -3.255470948224484E-019
  -70.2300000000000        -5.142989625039948E-019
  -70.0400000000000        -5.627311894137388E-019
  -69.8500000000000        -4.586793178180922E-019
  -69.6600000000000        -2.335099437140248E-019
  -69.4700000000000         4.709544093669420E-020
  -69.2800000000000         3.022341239063639E-019
  -69.0900000000000         4.592393046801352E-019
  -68.9000000000000         4.747146571276879E-019
  -68.7100000000000         3.470274046901385E-019
  -68.5200000000000         1.165971016470283E-019
  -68.3300000000000        -1.461204316318874E-019
  -68.1400000000000        -3.614328648362543E-019
  -67.9500000000000        -4.638836965813844E-019
  -67.7600000000000        -4.215108174584045E-019
  -67.5700000000000        -2.452672642184405E-019
  -67.3800000000000         1.411861388918282E-020
  -67.1900000000000         2.809007536970203E-019
  -67.0000000000000         4.763849099808221E-019
  -66.8100000000000         5.418968971678759E-019
  -66.6200000000000         4.559770945055326E-019
  -66.4300000000000         2.407948011179680E-019
  -66.2400000000000        -4.410341032880127E-020
  -66.0500000000000        -3.189178252718230E-019
  -65.8600000000000        -5.066264470741605E-019
  -65.6700000000000        -5.552227064972011E-019
  -65.4800000000000        -4.526869839274490E-019
  -65.2900000000000        -2.303489223300802E-019
  -65.1000000000000         4.630713684230143E-020
  -64.9100000000000         2.966956038468122E-019
  -64.7200000000000         4.485113433646698E-019
  -64.5300000000000         4.586849511283064E-019
  -64.3400000000000         3.258652105232303E-019
  -64.1500000000000         9.081092820792927E-020
  -63.9600000000000        -1.754557426994007E-019
  -63.7700000000000        -3.923410419752817E-019
  -63.5800000000000        -4.932253875933914E-019
  -63.3900000000000        -4.450007507450370E-019
  -63.2000000000000        -2.578859259829122E-019
  -63.0100000000000         1.734943294172300E-020
  -62.8200000000000         3.039359502331648E-019
  -62.6300000000000         5.211906026022245E-019
  -62.4400000000000         6.077326141392927E-019
  -62.2500000000000         5.391267997180176E-019
  -62.0600000000000         3.348828868246549E-019
  -61.8700000000000         5.281051736271216E-020
  -61.6800000000000        -2.276409316196955E-019
  -61.4900000000000        -4.282641733803529E-019
  -61.3000000000000        -4.945985229967209E-019
  -61.1100000000000        -4.115410822491400E-019
  -60.9200000000000        -2.075243795233065E-019
  -60.7300000000000         5.396106717527327E-020
  -60.5400000000000         2.930236847447867E-019
  -60.3500000000000         4.367538231147721E-019
  -60.1600000000000         4.405126684276379E-019
  -59.9700000000000         3.009500974306041E-019
  -59.7800000000000         5.700810011729636E-020
  -59.5900000000000        -2.213505083501537E-019
  -59.4000000000000        -4.534222346934265E-019
  -59.2100000000000        -5.712008154193515E-019
  -59.0200000000000        -5.391987033712567E-019
  -58.8300000000000        -3.648945200595682E-019
  -58.6400000000000        -9.674163657506911E-020
  -58.4500000000000         1.897177875100760E-019
  -58.2600000000000         4.136147422672473E-019
  -58.0700000000000         5.120660376120907E-019
  -57.8800000000000         4.582663118892962E-019
  -57.6900000000000         2.691304048416402E-019
  -57.5000000000000         3.130086441317243E-022
  -57.3100000000000        -2.699108620888405E-019
  -57.1200000000000        -4.632245043757468E-019
  -56.9300000000000        -5.237950282374448E-019
  -56.7400000000000        -4.342699827979347E-019
  -56.5500000000000        -2.206496987606134E-019
  -56.3600000000000         5.536989994861989E-020
  -56.1700000000000         3.143808506874307E-019
  -55.9800000000000         4.823647408503047E-019
  -55.7900000000000         5.121877656201636E-019
  -55.6000000000000         3.972170246782405E-019
  -55.4100000000000         1.730956106126562E-019
  -55.2200000000000        -9.280906738359059E-020
  -55.0300000000000        -3.211697453439078E-019
  -54.8400000000000        -4.439009445567032E-019
  -54.6500000000000        -4.240560292203653E-019
  -54.4600000000000        -2.666570497083229E-019
  -54.2700000000000        -1.731745177425565E-020
  -54.0800000000000         2.509625858911689E-019
  -53.8900000000000         4.590216081406809E-019
  -53.7000000000000         5.446252508493665E-019
  -53.5100000000000         4.806870917304094E-019
  -53.3200000000000         2.832918307708593E-019
  -53.1300000000000         7.165032655134959E-021
  -52.9400000000000        -2.700943244702851E-019
  -52.7500000000000        -4.704200203904423E-019
  -52.5600000000000        -5.378030455109939E-019
  -52.3700000000000        -4.544085067956935E-019
  -52.1800000000000        -2.456448703791387E-019
  -51.9900000000000         2.725402735487009E-020
  -51.8000000000000         2.849848855037615E-019
  -51.6100000000000         4.531504598427661E-019
  -51.4200000000000         4.838193611697143E-019
  -51.2300000000000         3.694119463320258E-019
  -51.0400000000000         1.448464923720647E-019
  -50.8500000000000        -1.227151589510279E-019
  -50.6600000000000        -3.535471636839053E-019
  -50.4700000000000        -4.787085624181994E-019
  -50.2800000000000        -4.602292704625889E-019
  -50.0900000000000        -3.022486692762668E-019
  -49.9000000000000        -4.988546834809849E-020
  -49.7100000000000         2.238112158548956E-019
  -49.5200000000000         4.390379492103816E-019
  -49.3300000000000         5.324114013986895E-019
  -49.1400000000000         4.754352773365108E-019
  -48.9500000000000         2.828992370737892E-019
  -48.7600000000000         8.741369412918495E-021
  -48.5700000000000        -2.694685201455507E-019
  -48.3800000000000        -4.729471164794922E-019
  -48.1900000000000        -5.445039941599844E-019
  -48.0000000000000        -4.650919369226680E-019
  -47.8100000000000        -2.592803898099365E-019
  -47.6200000000000         1.193301409756647E-020
  -47.4300000000000         2.688704347580422E-019
  -47.2400000000000         4.363222790201844E-019
  -47.0500000000000         4.653914987967047E-019
  -46.8600000000000         3.477181213044405E-019
  -46.6700000000000         1.179598934116959E-019
  -46.4800000000000        -1.562223716182375E-019
  -46.2900000000000        -3.938121637686408E-019
  -46.1000000000000        -5.240303789658418E-019
  -45.9100000000000        -5.069973769122118E-019
  -45.7200000000000        -3.454177447895092E-019
  -45.5300000000000        -8.386740793894160E-020
  -45.3400000000000         2.040964792906648E-019
  -45.1500000000000         4.372195252977836E-019
  -44.9600000000000         5.500200053220214E-019
  -44.7700000000000         5.116459211799409E-019
  -44.5800000000000         3.346955656818085E-019
  -44.3900000000000         7.148729615548842E-020
  -44.2000000000000        -2.011298748629904E-019
  -44.0100000000000        -4.040434239706659E-019
  -43.8200000000000        -4.787957326242722E-019
  -43.6300000000000        -4.045191019229642E-019
  -43.4400000000000        -2.039601624180407E-019
  -43.2500000000000         6.317924786891368E-020
  -43.0600000000000         3.176582131039843E-019
  -42.8700000000000         4.837903720492607E-019
  -42.6800000000000         5.114791212572319E-019
  -42.4900000000000         3.907908162452137E-019
  -42.3000000000000         1.548615837063205E-019
  -42.1100000000000        -1.296707024897943E-019
  -41.9200000000000        -3.819173654135367E-019
  -41.7300000000000        -5.301025281880325E-019
  -41.5400000000000        -5.322932547025802E-019
  -41.3500000000000        -3.885042002325505E-019
  -41.1600000000000        -1.406624864556630E-019
  -40.9700000000000         1.395698087388960E-019
  -40.7800000000000         3.715801840015715E-019
  -40.5900000000000         4.891471238315157E-019
  -40.4000000000000         4.595536646097411E-019
  -40.2100000000000         2.929441855463340E-019
  -40.0200000000000         3.925056314409700E-020
  -39.8300000000000        -2.263811853242680E-019
  -39.6400000000000        -4.254247846520222E-019
  -39.4500000000000        -4.987599249446615E-019
  -39.2600000000000        -4.238424626360681E-019
  -39.0700000000000        -2.212968852882430E-019
  -38.8800000000000         5.100419948894887E-020
  -38.6900000000000         3.146991263912574E-019
  -38.5000000000000         4.936952917228651E-019
  -38.3100000000000         5.363048713056927E-019
  -38.1200000000000         4.302901989021296E-019
  -37.9300000000000         2.064166252677272E-019
  -37.7400000000000        -7.051583892210087E-020
  -37.5500000000000        -3.205197878733645E-019
  -37.3600000000000        -4.716369624382983E-019
  -37.1700000000000        -4.807848553416622E-019
  -36.9800000000000        -3.462191998916064E-019
  -36.7900000000000        -1.080300614040669E-019
  -36.6000000000000         1.634717355784881E-019
  -36.4100000000000         3.881380807507487E-019
  -36.2200000000000         4.992561285991379E-019
  -36.0300000000000         4.629676009511110E-019
  -35.8400000000000         2.881798078444753E-019
  -35.6500000000000         2.406061004869508E-020
  -35.4600000000000        -2.541692221317598E-019
  -35.2700000000000        -4.670095312766866E-019
  -35.0800000000000        -5.536827389949897E-019
  -34.8900000000000        -4.896899160045452E-019
  -34.7000000000000        -2.938462657804556E-019
  -34.5100000000000        -2.277490170025737E-020
  -34.3200000000000         2.455379342026714E-019
  -34.1300000000000         4.343665986946167E-019
  -33.9400000000000         4.905004309672927E-019
  -33.7500000000000         3.996687845076631E-019
  -33.5600000000000         1.906313199020308E-019
  -33.3700000000000        -7.328412546602358E-020
  -33.1800000000000        -3.127361876722165E-019
  -32.9900000000000        -4.555888046829741E-019
  -32.8000000000000        -4.580054562244516E-019
  -32.6100000000000        -3.172753393342692E-019
  -32.4200000000000        -7.266552343544493E-020
  -32.2300000000000         2.059137544288080E-019
  -32.0400000000000         4.381235617350732E-019
  -31.8500000000000         5.564450000661295E-019
  -31.6600000000000         5.257571886918421E-019
  -31.4700000000000         3.535824352829008E-019
  -31.2800000000000         8.800162107194789E-020
  -31.0900000000000        -1.961983448404827E-019
  -30.9000000000000        -4.191485179879724E-019
  -30.7100000000000        -5.190056496280672E-019
  -30.5200000000000        -4.698019194515048E-019
  -30.3300000000000        -2.888274732207152E-019
  -30.1400000000000        -3.141130046158860E-020
  -29.9500000000000         2.253361400818544E-019
  -29.7600000000000         4.050456274109525E-019
  -29.5700000000000         4.543206310472016E-019
  -29.3800000000000         3.582448312515584E-019
  -29.1900000000000         1.446956132644092E-019
  -29.0000000000000        -1.237723800533250E-019
  -28.8100000000000        -3.681213886561677E-019
  -28.6200000000000        -5.158328282537526E-019
  -28.4300000000000        -5.220413605567329E-019
  -28.2400000000000        -3.826468941566654E-019
  -28.0500000000000        -1.355784419644101E-019
  -27.8600000000000         1.501490923387378E-019
  -27.6700000000000         3.943750509097651E-019
  -27.4800000000000         5.289186240344669E-019
  -27.2900000000000         5.171902250398814E-019
  -27.1000000000000         3.646355893397869E-019
  -26.9100000000000         1.170195693159394E-019
  -26.7200000000000        -1.529357269984356E-019
  -26.5300000000000        -3.666914149398583E-019
  -26.3400000000000        -4.626982662665201E-019
  -26.1500000000000        -4.142550966643518E-019
  -25.9600000000000        -2.372126435779108E-019
  -25.7700000000000         1.473833193770547E-020
  -25.5800000000000         2.658221849252634E-019
  -25.3900000000000         4.403689285311530E-019
  -25.2000000000000         4.849608143233801E-019
  -25.0100000000000         3.840889501988832E-019
  -24.8200000000000         1.647870417715401E-019
  -24.6300000000000        -1.110751058774813E-019
  -24.4400000000000        -3.645931237898987E-019
  -24.2500000000000        -5.225945581459909E-019
  -24.0600000000000        -5.388225376600395E-019
  -23.8700000000000        -4.074192521059900E-019
  -23.6800000000000        -1.647736333508404E-019
  -23.4900000000000         1.208540097010545E-019
  -23.3000000000000         3.689608343129195E-019
  -23.1100000000000         5.099994916451225E-019
  -22.9200000000000         5.054002529754886E-019
  -22.7300000000000         3.585946107591658E-019
  -22.5400000000000         1.138588855074507E-019
  -22.3500000000000        -1.566428670370127E-019
  -22.1600000000000        -3.738267131415321E-019
  -21.9700000000000        -4.745958675714269E-019
  -21.7800000000000        -4.300807077151110E-019
  -21.5900000000000        -2.539535507072340E-019
  -21.4000000000000         1.586075004819250E-021
  -21.2100000000000         2.610096321397133E-019
  -21.0200000000000         4.474619294402951E-019
  -20.8300000000000         5.051938957756382E-019
  -20.6400000000000         4.158874007690903E-019
  -20.4500000000000         2.040897624066506E-019
  -20.2600000000000        -6.983880354024681E-020
  -20.0700000000000        -3.272046836897579E-019
  -19.8800000000000        -4.937963602695078E-019
  -19.6900000000000        -5.214143846592177E-019
  -19.5000000000000        -4.018843625478689E-019
  -19.3100000000000        -1.695048026343592E-019
  -19.1200000000000         1.087823531438409E-019
  -18.9300000000000         3.526819396117294E-019
  -18.7400000000000         4.917487452291519E-019
  -18.5500000000000         4.857935403334764E-019
  -18.3600000000000         3.365552085074271E-019
  -18.1700000000000         8.722876567335520E-020
  -17.9800000000000        -1.900185922953486E-019
  -17.7900000000000        -4.149132332713161E-019
  -17.6000000000000        -5.222643213741353E-019
  -17.4100000000000        -4.807575724055784E-019
  -17.2200000000000        -3.019294927998155E-019
  -17.0300000000000        -3.675836505134201E-020
  -16.8400000000000         2.391189049705679E-019
  -16.6500000000000         4.472949106361106E-019
  -16.4600000000000         5.292697139170631E-019
  -16.2700000000000         4.633497723510116E-019
  -16.0800000000000         2.708445810025618E-019
  -15.8900000000000         9.737628400883198E-021
  -15.7000000000000        -2.423351661584747E-019
  -15.5100000000000        -4.108257995501468E-019
  -15.3200000000000        -4.460702515698737E-019
  -15.1300000000000        -3.377648019283793E-019
  -14.9400000000000        -1.179294760123290E-019
  -14.7500000000000         1.484465600701257E-019
  -14.5600000000000         3.823189840512616E-019
  -14.3700000000000         5.135737291876687E-019
  -14.1800000000000         5.014413563120680E-019
  -13.9900000000000         3.464383427136141E-019
  -13.8000000000000         9.036744909549797E-020
  -13.6100000000000        -1.956545182642931E-019
  -13.4200000000000        -4.317090781609780E-019
  -13.2300000000000        -5.521897853497232E-019
  -13.0400000000000        -5.247813118742133E-019
  -12.8500000000000        -3.597589410307848E-019
  -12.6600000000000        -1.069019727257047E-019
  -12.4700000000000         1.590613234445378E-019
  -12.2800000000000         3.602232145382454E-019
  -12.0900000000000         4.381407359252433E-019
  -11.9000000000000         3.707818642740442E-019
  -11.7100000000000         1.788777431334405E-019
  -11.5200000000000        -8.014307077739146E-020
  -11.3300000000000        -3.288885674826905E-019
  -11.1400000000000        -4.925726100692342E-019
  -10.9500000000000        -5.208651688350057E-019
  -10.7600000000000        -4.026460638320442E-019
  -10.5700000000000        -1.693479777806883E-019
  -10.3800000000000         1.140872629116769E-019
  -10.1900000000000         3.679990093271246E-019
  -10.0000000000000         5.210690508098367E-019
  -9.81000000000000         5.309508003320137E-019
  -9.62000000000000         3.964971722215886E-019
  -9.42999999999999         1.580672826593473E-019
  -9.23999999999999        -1.141783332674027E-019
  -9.05000000000000        -3.406363277016876E-019
  -8.86000000000000        -4.553999295877279E-019
  -8.67000000000000        -4.254591859891963E-019
  -8.48000000000000        -2.603506446054394E-019
  -8.28999999999999        -9.405042438228723E-021
  -8.09999999999999         2.526461814292002E-019
  -7.91000000000000         4.475232121533090E-019
  -7.72000000000000         5.163124174546830E-019
  -7.53000000000000         4.367334609144364E-019
  -7.34000000000000         2.297345216191189E-019
  -7.15000000000001        -4.647165099139254E-020
  -6.95999999999999        -3.131792155068652E-019
  -6.77000000000000        -4.939109513214717E-019
  -6.58000000000000        -5.365290510412484E-019
  -6.39000000000000        -4.283541511139230E-019
  -6.20000000000000        -1.999161847906901E-019
  -6.01000000000001         8.378290244954180E-020
  -5.81999999999999         3.420075315259597E-019
  -5.63000000000000         5.016073711109640E-019
  -5.44000000000000         5.181307508885301E-019
  -5.25000000000000         3.885920321798927E-019
  -5.06000000000000         1.522020783104928E-019
  -4.87000000000000        -1.211261658160663E-019
  -4.67999999999999        -3.511450152146826E-019
  -4.48999999999999        -4.705966060524273E-019
  -4.30000000000000        -4.447390153546092E-019
  -4.11000000000000        -2.814345718822146E-019
  -3.92000000000000        -2.888269276871029E-020
  -3.73000000000000         2.383691326434454E-019
  -3.53999999999999         4.411049502884962E-019
  -3.34999999999999         5.185167165384826E-019
  -3.16000000000000         4.459547866364631E-019
  -2.97000000000000         2.421785890296140E-019
  -2.78000000000000        -3.600326413620696E-020
  -2.59000000000000        -3.101328443696976E-019
  -2.40000000000001        -5.027529186878427E-019
  -2.20999999999999        -5.597253696358907E-019
  -2.02000000000000        -4.657866091486534E-019
  -1.83000000000000        -2.488939791747643E-019
  -1.64000000000000         2.787272700129265E-020
  -1.45000000000000         2.845371389362044E-019
  -1.26000000000001         4.473397073840538E-019
  -1.06999999999999         4.700609606367678E-019
 -0.879999999999995         3.473692562943739E-019
 -0.689999999999998         1.162992254061869E-019
 -0.500000000000000        -1.545889104456396E-019
 -0.310000000000002        -3.852093537947114E-019
 -0.120000000000005        -5.072589855981788E-019
  7.000000000000739E-002   -4.840379547838444E-019
  0.260000000000005        -3.210452272482781E-019
  0.450000000000003        -6.431388762340681E-020
  0.640000000000001         2.129961660449795E-019
  0.829999999999998         4.318367428070936E-019
   1.02000000000000         5.301785189670930E-019
   1.21000000000001         4.809628455491844E-019
   1.40000000000001         2.999056871139384E-019
   1.59000000000000         4.087371310882089E-020
   1.78000000000000        -2.198455291416990E-019
   1.97000000000000        -4.057956131730486E-019
   2.16000000000000        -4.626206548149383E-019
   2.34999999999999        -3.738605216675042E-019
   2.54000000000001        -1.656951496197309E-019
   2.73000000000000         1.007095655575805E-019
   2.92000000000000         3.469993477583834E-019
   3.11000000000000         5.003933198205456E-019
   3.30000000000000         5.148282229712067E-019
   3.48999999999999         3.843852652378801E-019
   3.68000000000001         1.451007336716898E-019
   3.87000000000000        -1.354083486987786E-019
   4.06000000000000        -3.775259938347818E-019
   4.25000000000000        -5.127373768136969E-019
   4.44000000000000        -5.035146454518805E-019
   4.63000000000000        -3.541856122663884E-019
   4.82000000000001        -1.096085704441427E-019
   5.01000000000001         1.579525370553529E-019
   5.20000000000000         3.698980268623926E-019
   5.39000000000000         4.641550284274274E-019
   5.58000000000000         4.132056921249092E-019
   5.77000000000000         2.320799672653650E-019
   5.96000000000001        -2.599539720931833E-020
   6.15000000000001        -2.850420230125628E-019
   6.34000000000000        -4.684070548246129E-019
   6.53000000000000        -5.210809406021958E-019