  -105.000000000000         0.000000000000000E+000
  -104.810000000000         2.024874488620710E-020
  -104.620000000000         5.583454542351073E-020
  -104.430000000000         9.858502352254967E-020
  -104.240000000000         1.393571187327500E-019
  -104.050000000000         1.705824329003671E-019
  -103.860000000000         1.883348216266351E-019
  -103.670000000000         1.933261202565724E-019
  -103.480000000000         1.905475878239477E-019
  -103.290000000000         1.876684515674629E-019
  -103.100000000000         1.926638379880486E-019
  -102.910000000000         2.113669629108706E-019
  -102.720000000000         2.456602286308306E-019
  -102.530000000000         2.928321001687066E-019
  -102.340000000000         3.462868918302905E-019
  -102.150000000000         3.974016874724991E-019
  -101.960000000000         4.379917553726367E-019
  -101.770000000000         4.626686243918782E-019
  -101.580000000000         4.704046771380311E-019
  -101.390000000000         4.648468092541153E-019
  -101.200000000000         4.532840619668726E-019
  -101.010000000000         4.445653765857293E-019
  -100.820000000000         4.465695022808324E-019
  -100.630000000000         4.639596525905513E-019
  -100.440000000000         4.968723271217525E-019
  -100.250000000000         5.409175827764596E-019
  -100.060000000000         5.884871209334847E-019
  -99.8700000000000         6.309880264053750E-019
  -99.6800000000000         6.613532427702425E-019
  -99.4900000000000         6.761011624152466E-019
  -99.3000000000000         6.763480020251477E-019
  -99.1100000000000         6.674799636536762E-019
  -98.9200000000000         6.575805498900091E-019
  -98.7300000000000         6.550699737774544E-019
  -98.5400000000000         6.662432624596787E-019
  -98.3500000000000         6.934237575503390E-019
  -98.1600000000000         7.342697854308703E-019
  -97.9700000000000         7.824364041266220E-019
  -97.7800000000000         8.293996497113308E-019
  -97.5900000000000         8.669129030780941E-019
  -97.4000000000000         8.893820693686121E-019
  -97.2100000000000         8.954706660218010E-019
  -97.0200000000000         8.884697436899579E-019
  -96.8300000000000         8.753257038880560E-019
  -96.6400000000000         8.646082571217645E-019
  -96.4500000000000         8.640087079029807E-019
  -96.2600000000000         8.780959491964234E-019
  -96.0700000000000         9.069833525191751E-019
  -95.8800000000000         9.462949668950589E-019
  -95.6900000000000         9.884409799632120E-019
  -95.5000000000000         1.024830911646909E-018
  -95.3100000000000         1.048380186098039E-018
  -95.1200000000000         1.055580992562405E-018
  -94.9300000000000         1.047535587330587E-018
  -94.7400000000000         1.029651567359101E-018
  -94.5500000000000         1.010086539703508E-018
  -94.3600000000000         9.973921445446991E-019
  -94.1700000000000         9.980401258135995E-019
  -93.9800000000000         1.014548622502465E-018
  -93.7900000000000         1.044754057156893E-018
  -93.6000000000000         1.082442110683504E-018
  -93.4100000000000         1.119156258379514E-018
  -93.2200000000000         1.146659493488002E-018
  -93.0300000000000         1.159334740179261E-018
  -92.8400000000000         1.155827594442014E-018
  -92.6500000000000         1.139455432992001E-018
  -92.4600000000000         1.117264554797964E-018
  -92.2700000000000         1.098007722721058E-018
  -92.0800000000000         1.089625647023281E-018
  -91.8900000000000         1.096958694340929E-018
  -91.7000000000000         1.120348922758202E-018
  -91.5100000000000         1.155536257486602E-018
  -91.3200000000000         1.194879174449476E-018
  -91.1300000000000         1.229546821865040E-018
  -90.9400000000000         1.252047380475694E-018
  -90.7500000000000         1.258359513343785E-018
  -90.5600000000000         1.249049343446793E-018
  -90.3700000000000         1.229051096474729E-018
  -90.1800000000000         1.206178858673905E-018
  -89.9900000000000         1.188805966925428E-018
  -89.8000000000000         1.183389963736164E-018
  -89.6100000000000         1.192565263621735E-018
  -89.4200000000000         1.214360536199307E-018
  -89.2300000000000         1.242771260391842E-018
  -89.0400000000000         1.269524072801144E-018
  -88.8500000000000         1.286522187724853E-018
  -88.6600000000000         1.288261297090460E-018
  -88.4700000000000         1.273511762749918E-018
  -88.2800000000000         1.245774500243003E-018
  -88.0900000000000         1.212373383350933E-018
  -87.9000000000000         1.182442357038914E-018
  -87.7100000000000         1.164385157822955E-018
  -87.5200000000000         1.163536921651200E-018
  -87.3300000000000         1.180697199367038E-018
  -87.1400000000000         1.211951496745247E-018
  -86.9500000000000         1.249826899028707E-018
  -86.7600000000000         1.285443713780372E-018
  -86.5700000000000         1.311039586119738E-018
  -86.3800000000000         1.322137318748411E-018
  -86.1900000000000         1.318733273742175E-018
  -86.0000000000000         1.305169623766033E-018
  -85.8100000000000         1.288737808415413E-018
  -85.6200000000000         1.277430021198004E-018
  -85.4300000000000         1.277502166582003E-018
  -85.2400000000000         1.291563826872263E-018
  -85.0500000000000         1.317754269899848E-018
  -84.8600000000000         1.350245191976180E-018
  -84.6700000000000         1.380923880504834E-018
  -84.4800000000000         1.401766839720478E-018
  -84.2900000000000         1.407212405018305E-018
  -84.1000000000000         1.395839320336915E-018
  -83.9100000000000         1.370857649618478E-018
  -83.7200000000000         1.339262182321664E-018
  -83.5300000000000         1.309887701958469E-018
  -83.3400000000000         1.290926642553658E-018
  -83.1500000000000         1.287628118615802E-018
  -82.9600000000000         1.300845798170433E-018
  -82.7700000000000         1.326855264690895E-018
  -82.5800000000000         1.358491869104813E-018
  -82.3900000000000         1.387276110034460E-018
  -82.2000000000000         1.405907268936000E-018
  -82.0100000000000         1.410400021220446E-018
  -81.8200000000000         1.401243126580404E-018
  -81.6300000000000         1.383243632134941E-018
  -81.4400000000000         1.364102167364981E-018
  -81.2500000000000         1.352134315493508E-018
  -81.0600000000000         1.353802348170436E-018
  -80.8700000000000         1.371777774423983E-018
  -80.6800000000000         1.404101194478157E-018
  -80.4900000000000         1.444686579452843E-018
  -80.3000000000000         1.485025862095960E-018
  -80.1100000000000         1.516601019619340E-018
  -79.9200000000000         1.533305849112499E-018
  -79.7300000000000         1.533177081214709E-018
  -79.5400000000000         1.518934353070822E-018
  -79.3500000000000         1.497172856951908E-018
  -79.1600000000000         1.476442060059940E-018
  -78.9700000000000         1.464766669260973E-018
  -78.7800000000000         1.467328577483990E-018
  -78.5900000000000         1.484982842224883E-018
  -78.4000000000000         1.514038829719062E-018
  -78.2100000000000         1.547369300260162E-018
  -78.0200000000000         1.576523063172870E-018
  -77.8300000000000         1.594224374360169E-018
  -77.6400000000000         1.596529887850623E-018
  -77.4500000000000         1.584013946231375E-018
  -77.2600000000000         1.561635493702471E-018
  -77.0700000000000         1.537322568562148E-018
  -76.8800000000000         1.519682700353914E-018
  -76.6900000000000         1.515502545336424E-018
  -76.5000000000000         1.527763994905030E-018
  -76.3100000000000         1.554757184393914E-018
  -76.1200000000000         1.590554261756640E-018
  -75.9300000000000         1.626712314730641E-018
  -75.7400000000000         1.654714644660458E-018
  -75.5500000000000         1.668442365980071E-018
  -75.3600000000000         1.665957682534847E-018
  -75.1700000000000         1.650079616601110E-018
  -74.9800000000000         1.627583608922549E-018
  -74.7900000000000         1.607255320760308E-018
  -74.6000000000000         1.597360204273209E-018
  -74.4100000000000         1.603258739569764E-018
  -74.2200000000000         1.625854877823755E-018
  -74.0300000000000         1.661324839109805E-018
  -73.8400000000000         1.702204206036994E-018
  -73.6500000000000         1.739519335501408E-018
  -73.4600000000000         1.765347473872750E-018
  -73.2700000000000         1.775066197233441E-018
  -73.0800000000000         1.768643327455036E-018
  -72.8900000000000         1.750597208581831E-018
  -72.7000000000000         1.728642957362578E-018
  -72.5100000000000         1.711420800028029E-018
  -72.3200000000000         1.705967664509900E-018
  -72.1300000000000         1.715666502448577E-018
  -71.9400000000000         1.739268620525248E-018
  -71.7500000000000         1.771272948064666E-018
  -71.5600000000000         1.803552295178438E-018
  -71.3700000000000         1.827753806318437E-018
  -71.1800000000000         1.837774357516940E-018
  -70.9900000000000         1.831588292326652E-018
  -70.8000000000000         1.811892424555618E-018
  -70.6100000000000         1.785377320956190E-018
  -70.4200000000000         1.760833787462895E-018
  -70.2300000000000         1.746642103388488E-018
  -70.0400000000000         1.748370293467558E-018
  -69.8500000000000         1.767175514872269E-018
  -69.6600000000000         1.799470049324462E-018
  -69.4700000000000         1.837948371534250E-018
  -69.2800000000000         1.873679353316436E-018
  -69.0900000000000         1.898660290548265E-018
  -68.9000000000000         1.908095553945987E-018
  -68.7100000000000         1.901741577753092E-018
  -68.5200000000000         1.883929914571262E-018
  -68.3300000000000         1.862263791222484E-018
  -68.1400000000000         1.845369498485148E-018
  -67.9500000000000         1.840358870432651E-018
  -67.7600000000000         1.850742217060547E-018
  -67.5700000000000         1.875398437905175E-018
  -67.3800000000000         1.908900415638959E-018
  -67.1900000000000         1.943099833514266E-018
  -67.0000000000000         1.969510622512543E-018
  -66.8100000000000         1.981799268869827E-018
  -66.6200000000000         1.977659123419538E-018
  -66.4300000000000         1.959523341085205E-018
  -66.2400000000000         1.933906411518368E-018
  -66.0500000000000         1.909561312636092E-018
  -65.8600000000000         1.894983407172559E-018
  -65.6700000000000         1.895982906495724E-018
  -65.4800000000000         1.914028807448130E-018
  -65.2900000000000         1.945843749696152E-018
  -65.1000000000000         1.984366348365796E-018
  -64.9100000000000         2.020801072238339E-018
  -64.7200000000000         2.047160961789375E-018
  -64.5300000000000         2.058566383450762E-018
  -64.3400000000000         2.054634171917621E-018
  -64.1500000000000         2.039555116430021E-018
  -63.9600000000000         2.020837903692936E-018
  -63.7700000000000         2.007084675683059E-018
  -63.5800000000000         2.005444937953129E-018
  -63.3900000000000         2.019488312079148E-018
  -63.2000000000000         2.048114794633255E-018
  -63.0100000000000         2.085819194888668E-018
  -62.8200000000000         2.124232718645180E-018
  -62.6300000000000         2.154494488923185E-018
  -62.4400000000000         2.169766750347810E-018
  -62.2500000000000         2.167167891815298E-018
  -62.0600000000000         2.148567271379443E-018
  -61.8700000000000         2.120015324716227E-018
  -61.6800000000000         2.089976754878814E-018
  -61.4900000000000         2.066880604804376E-018
  -61.3000000000000         2.056699028281534E-018
  -61.1100000000000         2.061258730677082E-018
  -60.9200000000000         2.077776366006712E-018
  -60.7300000000000         2.099752382358358E-018
  -60.5400000000000         2.118960773053174E-018
  -60.3500000000000         2.127951567501511E-018
  -60.1600000000000         2.122332949982645E-018
  -59.9700000000000         2.102164207172307E-018
  -59.7800000000000         2.072049754199500E-018
  -59.5900000000000         2.039902173737484E-018
  -59.4000000000000         2.014728662531508E-018
  -59.2100000000000         2.004078973166207E-018
  -59.0200000000000         2.011892398441865E-018
  -58.8300000000000         2.037367793945346E-018
  -58.6400000000000         2.075186081437978E-018
  -58.4500000000000         2.117023564614357E-018
  -58.2600000000000         2.153920059361331E-018
  -58.0700000000000         2.178817582898789E-018
  -57.8800000000000         2.188535963945648E-018
  -57.6900000000000         2.184615816933516E-018
  -57.5000000000000         2.172788782298057E-018
  -57.3100000000000         2.161233308681587E-018
  -57.1200000000000         2.158125573399838E-018
  -56.9300000000000         2.169198085141464E-018
  -56.7400000000000         2.196015140459606E-018
  -56.5500000000000         2.235465824629024E-018
  -56.3600000000000         2.280621645119475E-018
  -56.1700000000000         2.322709308078283E-018
  -55.9800000000000         2.353624751164098E-018
  -55.7900000000000         2.368256986446126E-018
  -55.6000000000000         2.365945904804903E-018
  -55.4100000000000         2.350650904320579E-018
  -55.2200000000000         2.329782873028518E-018
  -55.0300000000000         2.312040502288188E-018
  -54.8400000000000         2.304880108454270E-018
  -54.6500000000000         2.312353370238295E-018
  -54.4600000000000         2.333940242394602E-018
  -54.2700000000000         2.364716155490484E-018
  -54.0800000000000         2.396806321556301E-018
  -53.8900000000000         2.421706438371346E-018
  -53.7000000000000         2.432796046528750E-018
  -53.5100000000000         2.427312323047707E-018
  -53.3200000000000         2.407206803722103E-018
  -53.1300000000000         2.378631683541500E-018
  -52.9400000000000         2.350201532153674E-018
  -52.7500000000000         2.330533316809390E-018
  -52.5600000000000         2.325777902284070E-018
  -52.3700000000000         2.337858582965900E-018
  -52.1800000000000         2.363926729306057E-018
  -51.9900000000000         2.397191857690512E-018
  -51.8000000000000         2.428885956082648E-018
  -51.6100000000000         2.450794176143543E-018
  -51.4200000000000         2.457620017120514E-018
  -51.2300000000000         2.448500352164894E-018
  -51.0400000000000         2.427231296536388E-018
  -50.8500000000000         2.401139601652222E-018
  -50.6600000000000         2.378927708266397E-018
  -50.4700000000000         2.368119145205912E-018
  -50.2800000000000         2.372847248763034E-018
  -50.0900000000000         2.392630106015146E-018
  -49.9000000000000         2.422487774196802E-018
  -49.7100000000000         2.454368403198886E-018
  -49.5200000000000         2.479471088519737E-018
  -49.3300000000000         2.490794132045849E-018
  -49.1400000000000         2.485172109262500E-018
  -48.9500000000000         2.464212512738498E-018
  -48.7600000000000         2.433860534053652E-018
  -48.5700000000000         2.402717269778700E-018
  -48.3800000000000         2.379597662550911E-018
  -48.1900000000000         2.371034897453770E-018
  -48.0000000000000         2.379453107059832E-018
  -47.8100000000000         2.402535373344711E-018
  -47.6200000000000         2.433966303235085E-018
  -47.4300000000000         2.465329584805634E-018
  -47.2400000000000         2.488606607883629E-018
  -47.0500000000000         2.498548702612712E-018
  -46.8600000000000         2.494232466644138E-018
  -46.6700000000000         2.479344186898618E-018
  -46.4800000000000         2.461107524129667E-018
  -46.2900000000000         2.448162732018282E-018
  -46.1000000000000         2.448011962998943E-018
  -45.9100000000000         2.464773928899944E-018
  -45.7200000000000         2.497903350058325E-018
  -45.5300000000000         2.542250983493842E-018
  -45.3400000000000         2.589450413493298E-018
  -45.1500000000000         2.630232517221100E-018
  -44.9600000000000         2.657000175822957E-018
  -44.7700000000000         2.665922108073497E-018
  -44.5800000000000         2.657945873944711E-018
  -44.3900000000000         2.638443740561578E-018
  -44.2000000000000         2.615599916227247E-018
  -44.0100000000000         2.598010238353599E-018
  -43.8200000000000         2.592191818230686E-018
  -43.6300000000000         2.600724881918918E-018
  -43.4400000000000         2.621564293702115E-018
  -43.2500000000000         2.648717073184252E-018
  -43.0600000000000         2.674083621004714E-018
  -42.8700000000000         2.689920697989796E-018
  -42.6800000000000         2.691203104950376E-018
  -42.4900000000000         2.677191503294536E-018
  -42.3000000000000         2.651746209881533E-018
  -42.1100000000000         2.622292332346721E-018
  -41.9200000000000         2.597733751278165E-018
  -41.7300000000000         2.585918918724198E-018
  -41.5400000000000         2.591392213464587E-018
  -41.3500000000000         2.614082962770182E-018
  -41.1600000000000         2.649313660689335E-018
  -40.9700000000000         2.689127232357265E-018
  -40.7800000000000         2.724550653317391E-018
  -40.5900000000000         2.748140247437725E-018
  -40.4000000000000         2.756072444695244E-018
  -40.2100000000000         2.749176609221578E-018
  -40.0200000000000         2.732614503651712E-018
  -39.8300000000000         2.714303989750228E-018
  -39.6400000000000         2.702548584344915E-018
  -39.4500000000000         2.703564214837398E-018
  -39.2600000000000         2.719623738037872E-018
  -39.0700000000000         2.748360268013392E-018
  -38.8800000000000         2.783433714873366E-018
  -38.6900000000000         2.816367870557144E-018
  -38.5000000000000         2.839022957040597E-018
  -38.3100000000000         2.845981469693417E-018
  -38.1200000000000         2.836149313189973E-018
  -37.9300000000000         2.813103086907180E-018
  -37.7400000000000         2.784080707354722E-018
  -37.5500000000000         2.757908650161782E-018
  -37.3600000000000         2.742468737055119E-018
  -37.1700000000000         2.742440482031188E-018
  -36.9800000000000         2.757974082420404E-018
  -36.7900000000000         2.784679040337180E-018
  -36.6000000000000         2.814932479688138E-018
  -36.4100000000000         2.840128793858405E-018
  -36.2200000000000         2.853218401064826E-018
  -36.0300000000000         2.850797744020360E-018
  -35.8400000000000         2.834140961103903E-018
  -35.6500000000000         2.808869693915338E-018
  -35.4600000000000         2.783353091260349E-018
  -35.2700000000000         2.766299926884140E-018
  -35.0800000000000         2.764240312464470E-018
  -34.8900000000000         2.779626890829493E-018
  -34.7000000000000         2.810105923113151E-018
  -34.5100000000000         2.849170162637287E-018
  -34.3200000000000         2.888005961140374E-018
  -34.1300000000000         2.918001946452092E-018
  -33.9400000000000         2.933195309998171E-018
  -33.7500000000000         2.931949310777630E-018
  -33.5600000000000         2.917377250065636E-018
  -33.3700000000000         2.896390725519434E-018
  -33.1800000000000         2.877649034499913E-018
  -32.9900000000000         2.869005872494275E-018
  -32.8000000000000         2.875195354394080E-018
  -32.6100000000000         2.896429398104592E-018
  -32.4200000000000         2.928313502742062E-018
  -32.2300000000000         2.963105228658126E-018
  -32.0400000000000         2.991950382599637E-018
  -31.8500000000000         3.007448780721013E-018
  -31.6600000000000         3.005806031947450E-018
  -31.4700000000000         2.987947270609924E-018
  -31.2800000000000         2.959269053872205E-018
  -31.0900000000000         2.928100686120063E-018
  -30.9000000000000         2.903321573472334E-018
  -30.7100000000000         2.891826932816098E-018
  -30.5200000000000         2.896577997616315E-018
  -30.3300000000000         2.915801899256860E-018
  -30.1400000000000         2.943570865984207E-018
  -29.9500000000000         2.971588778445992E-018
  -29.7600000000000         2.991662987404619E-018
  -29.5700000000000         2.998141916505749E-018
  -29.3800000000000         2.989609982704095E-018
  -29.1900000000000         2.969346377451025E-018
  -29.0000000000000         2.944411368703715E-018
  -28.8100000000000         2.923620816487839E-018
  -28.6200000000000         2.914992388562156E-018
  -28.4300000000000         2.923402040963180E-018
  -28.2400000000000         2.949130950972570E-018
  -28.0500000000000         2.987726826813454E-018
  -27.8600000000000         3.031222924490956E-018
  -27.6700000000000         3.070364283430393E-018
  -27.4800000000000         3.097199118125096E-018
  -27.2900000000000         3.107288728240949E-018
  -27.1000000000000         3.100901195084110E-018
  -26.9100000000000         3.082849284673471E-018
  -26.7200000000000         3.061025500719411E-018
  -26.5300000000000         3.044063442897835E-018
  -26.3400000000000         3.038806118220498E-018
  -26.1500000000000         3.048316465282417E-018
  -25.9600000000000         3.071007094060739E-018
  -25.7700000000000         3.101140140324277E-018
  -25.5800000000000         3.130548618719159E-018
  -25.3900000000000         3.151074586298261E-018
  -25.2000000000000         3.157010947905153E-018
  -25.0100000000000         3.146833284691801E-018
  -24.8200000000000         3.123715266616859E-018
  -24.6300000000000         3.094675262119622E-018
  -24.4400000000000         3.068599367028028E-018
  -24.2500000000000         3.053711976486468E-018
  -24.0600000000000         3.055225594037661E-018
  -23.8700000000000         3.073850764105173E-018
  -23.6800000000000         3.105598824860465E-018
  -23.4900000000000         3.142935567076724E-018
  -23.3000000000000         3.176951485123689E-018
  -23.1100000000000         3.199918739121830E-018
  -22.9200000000000         3.207492766075810E-018
  -22.7300000000000         3.199920710005637E-018
  -22.5400000000000         3.181909001445035E-018
  -22.3500000000000         3.161193089422875E-018
  -22.1600000000000         3.146228991041746E-018
  -21.9700000000000         3.143680002564276E-018
  -21.7800000000000         3.156430400987979E-018
  -21.5900000000000         3.182705030677747E-018
  -21.4000000000000         3.216553216605426E-018
  -21.2100000000000         3.249559582886197E-018
  -21.0200000000000         3.273287304098259E-018
  -20.8300000000000         3.281744601429799E-018
  -20.6400000000000         3.273156159658115E-018
  -20.4500000000000         3.250521721464156E-018
  -20.2600000000000         3.220796628834447E-018
  -20.0700000000000         3.192930037382160E-018
  -19.8800000000000         3.175328250476954E-018
  -19.6900000000000         3.173476718261858E-018
  -19.5000000000000         3.188407232399371E-018
  -19.3100000000000         3.216451116469208E-018
  -19.1200000000000         3.250346582200322E-018
  -18.9300000000000         3.281376885144014E-018
  -18.7400000000000         3.301918108835205E-018
  -18.5500000000000         3.307656945906876E-018
  -18.3600000000000         3.298834518969071E-018
  -18.1700000000000         3.280155280249686E-018
  -17.9800000000000         3.259388363894220E-018
  -17.7900000000000         3.245069142830412E-018
  -17.6000000000000         3.243970346198771E-018
  -17.4100000000000         3.259078948558234E-018
  -17.2200000000000         3.288667931673577E-018
  -17.0300000000000         3.326734188958026E-018
  -16.8400000000000         3.364677993197723E-018
  -16.6500000000000         3.393739931425577E-018
  -16.4600000000000         3.407491226316272E-018
  -16.2700000000000         3.403656540539113E-018
  -16.0800000000000         3.384740630549222E-018
  -15.8900000000000         3.357276818188478E-018
  -15.7000000000000         3.329915742759694E-018
  -15.5100000000000         3.310910462763479E-018
  -15.3200000000000         3.305729744143650E-018
  -15.1300000000000         3.315493374961005E-018
  -14.9400000000000         3.336682801264185E-018
  -14.7500000000000         3.362208548970743E-018
  -14.5600000000000         3.383521829310430E-018
  -14.3700000000000         3.393155371490466E-018
  -14.1800000000000         3.386954495950774E-018
  -13.9900000000000         3.365349205152580E-018
  -13.8000000000000         3.333295786433095E-018
  -13.6100000000000         3.298902075248734E-018
  -13.4200000000000         3.271132940359267E-018
  -13.2300000000000         3.257260919799329E-018
  -13.0400000000000         3.260802288630184E-018
  -12.8500000000000         3.280537928415878E-018
  -12.6600000000000         3.310902145964698E-018
  -12.4700000000000         3.343624275475785E-018
  -12.2800000000000         3.370144293015408E-018
  -12.0900000000000         3.384100383498139E-018
  -11.9000000000000         3.383167513366051E-018
  -11.7100000000000         3.369715924774356E-018
  -11.5200000000000         3.350101015257504E-018
  -11.3300000000000         3.332792085385899E-018
  -11.1400000000000         3.325883295844806E-018
  -10.9500000000000         3.334709273245736E-018
  -10.7600000000000         3.360257755229333E-018
  -10.5700000000000         3.398840457162814E-018
  -10.3800000000000         3.443117954778107E-018
  -10.1900000000000         3.484181080365261E-018
  -10.0000000000000         3.514084518552178E-018
  -9.81000000000000         3.528097353705735E-018
  -9.62000000000000         3.526018309800631E-018
  -9.42999999999999         3.512175608982849E-018
  -9.23999999999999         3.494113259880283E-018
  -9.05000000000000         3.480346876665324E-018
  -8.86000000000000         3.477842962355184E-018
  -8.67000000000000         3.489957104062211E-018
  -8.48000000000000         3.515433992456358E-018
  -8.28999999999999         3.548763312382002E-018
  -8.09999999999999         3.581789974431481E-018
  -7.91000000000000         3.606110307001993E-018
  -7.72000000000000         3.615555443442981E-018
  -7.53000000000000         3.608037183241836E-018
  -7.34000000000000         3.586217270821121E-018
  -7.15000000000001         3.556802932226482E-018
  -6.95999999999999         3.528669560729944E-018
  -6.77000000000000         3.510350727116499E-018
  -6.58000000000000         3.507618809565199E-018
  -6.39000000000000         3.521853917747143E-018
  -6.20000000000000         3.549671779835528E-018
  -6.01000000000001         3.583917936891195E-018
  -5.81999999999999         3.615740187794788E-018
  -5.63000000000000         3.637138176092645E-018
  -5.44000000000000         3.643250298356022E-018
  -5.25000000000000         3.633715242091726E-018
  -5.06000000000000         3.612715920872583E-018
  -4.87000000000000         3.587697770800553E-018
  -4.67999999999999         3.567138937888079E-018
  -4.48999999999999         3.558024712678523E-018
  -4.30000000000000         3.563763345495562E-018
  -4.11000000000000         3.583151512384220E-018
  -3.92000000000000         3.610693261612221E-018
  -3.73000000000000         3.638183904748063E-018
  -3.53999999999999         3.657102503685302E-018
  -3.34999999999999         3.661119716499073E-018
  -3.16000000000000         3.647991483571241E-018
  -2.97000000000000         3.620284967627472E-018
  -2.78000000000000         3.584720797101435E-018
  -2.59000000000000         3.550317093418125E-018
  -2.40000000000001         3.525868982285725E-018
  -2.20999999999999         3.517490401184258E-018
  -2.02000000000000         3.526926839811328E-018
  -1.83000000000000         3.551124244835132E-018
  -1.64000000000000         3.583175930684282E-018
  -1.45000000000000         3.614370742254673E-018
  -1.26000000000001         3.636746841163158E-018
  -1.06999999999999         3.645408987069669E-018
 -0.879999999999995         3.639936120835918E-018
 -0.689999999999998         3.624470837568713E-018
 -0.500000000000000         3.606466351105234E-018
 -0.310000000000002         3.594458012207258E-018
 -0.120000000000005         3.595510602616369E-018
  7.000000000000739E-002    3.613086185878665E-018
  0.260000000000005         3.645953794723721E-018
  0.450000000000003         3.688459010733940E-018
  0.640000000000001         3.732077163318436E-018
  0.829999999999998         3.767802324602593E-018
   1.02000000000000         3.788682446155917E-018
   1.21000000000001         3.791768358786809E-018
   1.40000000000001         3.778913182062511E-018
   1.59000000000000         3.756190865170789E-018
   1.78000000000000         3.732102960598465E-018
   1.97000000000000         3.715095176858042E-018
   2.16000000000000         3.711106175929041E-018
   2.34999999999999         3.721861134157027E-018
   2.54000000000001         3.744404899793750E-018
   2.73000000000000         3.772008202308744E-018
   2.92000000000000         3.796180925032389E-018
   3.11000000000000         3.809205240278066E-018
   3.30000000000000         3.806451200508207E-018
   3.48999999999999         3.787800566732841E-018
   3.68000000000001         3.757762292953360E-018
   3.87000000000000         3.724241353116305E-018
   4.06000000000000         3.696313100555626E-018
   4.25000000000000         3.681645023718545E-018
   4.44000000000000         3.684311812619723E-018
   4.63000000000000         3.703637109116225E-018
   4.82000000000001         3.734398326199438E-018
   5.01000000000001         3.768335611173099E-018
   5.20000000000000         3.796527824172347E-018
   5.39000000000000         3.811947850451861E-018
   5.58000000000000         3.811459016714544E-018
   5.77000000000000         3.796677344888583E-018
   5.96000000000001         3.773453161464115E-018
   6.15000000000001         3.750125459066191E-018
   6.34000000000000         3.735057991183507E-018
   6.53000000000000         3.734174269370859E-018