  -105.000000000000        -6.223968827319883E-020
  -104.810000000000        -1.716217347074725E-019
  -104.620000000000        -2.407865613767895E-019
  -104.430000000000        -2.567279679968789E-019
  -104.240000000000        -2.213024392737541E-019
  -104.050000000000        -1.505454964773961E-019
  -103.860000000000        -6.990854991497821E-020
  -103.670000000000        -6.801515740315381E-021
  -103.480000000000         1.739028440639829E-020
  -103.290000000000        -6.504830231196313E-021
  -103.100000000000        -7.284341250833434E-020
  -102.910000000000        -1.628979216263873E-019
  -102.720000000000        -2.504038858923556E-019
  -102.530000000000        -3.093017359948362E-019
  -102.340000000000        -3.214213279436145E-019
  -102.150000000000        -2.818783172452054E-019
  -101.960000000000        -2.006145933808474E-019
  -101.770000000000        -9.962937748996003E-020
  -101.580000000000        -6.695187751880338E-021
  -101.390000000000         5.262458534582296E-020
  -101.200000000000         6.234012488854858E-020
  -101.010000000000         2.063885486513192E-020
  -100.820000000000        -5.961324858807134E-020
  -100.630000000000        -1.546183766527766E-019
  -100.440000000000        -2.365494360868345E-019
  -100.250000000000        -2.816010166842872E-019
  -100.060000000000        -2.768544090679747E-019
  -99.8700000000000        -2.239733007119633E-019
  -99.6800000000000        -1.386683502641391E-019
  -99.4900000000000        -4.609234064015315E-020
  -99.3000000000000         2.649802055408225E-020
  -99.1100000000000         5.768745838024440E-020
  -98.9200000000000         3.814973435259785E-020
  -98.7300000000000        -2.661935633789848E-020
  -98.5400000000000        -1.178817638877715E-019
  -98.3500000000000        -2.090923688213971E-019
  -98.1600000000000        -2.736075185023446E-019
  -97.9700000000000        -2.924224348264250E-019
  -97.7800000000000        -2.596872230504718E-019
  -97.5900000000000        -1.844013900915648E-019
  -97.4000000000000        -8.779954431526970E-020
  -97.2100000000000         2.809468834991015E-021
  -97.0200000000000         6.196222736662678E-020
  -96.8300000000000         7.342310124073842E-020
  -96.6400000000000         3.488730032908862E-020
  -96.4500000000000        -4.136339653079300E-020
  -96.2600000000000        -1.320465704608299E-019
  -96.0700000000000        -2.096666257157762E-019
  -95.8800000000000        -2.505291168503177E-019
  -95.6900000000000        -2.416484153406819E-019
  -95.5000000000000        -1.845387761396189E-019
  -95.3100000000000        -9.478892493236503E-020
  -95.1200000000000         2.452478574912221E-021
  -94.9300000000000         7.976812293489227E-020
  -94.7400000000000         1.154265536047009E-019
  -94.5500000000000         9.969616916266189E-020
  -94.3600000000000         3.768775893052901E-020
  -94.1700000000000        -5.210455733504379E-020
  -93.9800000000000        -1.431502855084988E-019
  -93.7900000000000        -2.085738078207250E-019
  -93.6000000000000        -2.289592616616565E-019
  -93.4100000000000        -1.979989279212877E-019
  -93.2200000000000        -1.243396360203479E-019
  -93.0300000000000        -2.908893982321396E-020
  -92.8400000000000         6.029373542502340E-020
  -92.6500000000000         1.179475079737973E-019
  -92.4600000000000         1.270994132591507E-019
  -92.2700000000000         8.492885194583806E-020
  -92.0800000000000         3.404482083074644E-021
  -91.8900000000000        -9.414707305642753E-020
  -91.7000000000000        -1.797513498375385E-019
  -91.5100000000000        -2.288383996537871E-019
  -91.3200000000000        -2.273087915128217E-019
  -91.1300000000000        -1.755654423915818E-019
  -90.9400000000000        -8.834135888392275E-020
  -90.7500000000000         9.624133700608073E-021
  -90.5600000000000         9.079883509350049E-020
  -90.3700000000000         1.328587363315057E-019
  -90.1800000000000         1.251495182415894E-019
  -89.9900000000000         7.173418914997659E-020
  -89.8000000000000        -9.852663736135642E-021
  -89.6100000000000        -9.377809886594556E-020
  -89.4200000000000        -1.535086126134507E-019
  -89.2300000000000        -1.696263346214513E-019
  -89.0400000000000        -1.355901227338191E-019
  -88.8500000000000        -5.975893981789304E-020
  -88.6600000000000         3.692296536762122E-020
  -88.4700000000000         1.269181242463316E-019
  -88.2800000000000         1.840315787189830E-019
  -88.0900000000000         1.909885103748757E-019
  -87.9000000000000         1.444560557934786E-019
  -87.7100000000000         5.605607732364682E-020
  -87.5200000000000        -5.092038715003868E-020
  -87.3300000000000        -1.481438151471427E-019
  -87.1400000000000        -2.103063779621468E-019
  -86.9500000000000        -2.222873629929846E-019
  -86.7600000000000        -1.833598429346555E-019
  -86.5700000000000        -1.072294322236830E-019
  -86.3800000000000        -1.790211620945857E-020
  -86.1900000000000         5.741064834273099E-020
  -86.0000000000000         9.627778453597000E-020
  -85.8100000000000         8.759391578394617E-020
  -85.6200000000000         3.477672950127335E-020
  -85.4300000000000        -4.530791266700828E-020
  -85.2400000000000        -1.273671607906777E-019
  -85.0500000000000        -1.851737603703057E-019
  -84.8600000000000        -1.993410195765343E-019
  -84.6700000000000        -1.631144190079171E-019
  -84.4800000000000        -8.449195374659497E-020
  -84.2900000000000         1.595127303852568E-020
  -84.1000000000000         1.109146779987347E-019
  -83.9100000000000         1.742119561395712E-019
  -83.7200000000000         1.883266762027499E-019
  -83.5300000000000         1.494853419584949E-019
  -83.3400000000000         6.876592137654944E-020
  -83.1500000000000        -3.108709657572299E-020
  -82.9600000000000        -1.222180849644388E-019
  -82.7700000000000        -1.796811720536611E-019
  -82.5800000000000        -1.885983295527602E-019
  -82.3900000000000        -1.483825489775978E-019
  -82.2000000000000        -7.280993503950315E-020
  -82.0100000000000         1.407194741660424E-020
  -81.8200000000000         8.500852686809947E-020
  -81.6300000000000         1.175251056992771E-019
  -81.4400000000000         1.005173313848452E-019
  -81.2500000000000         3.752891340579757E-020
  -81.0600000000000        -5.423913193310721E-020
  -80.8700000000000        -1.489017446073743E-019
  -80.6800000000000        -2.193994273313400E-019
  -80.4900000000000        -2.453600362451260E-019
  -80.3000000000000        -2.190288074429536E-019
  -80.1100000000000        -1.475474368351911E-019
  -79.9200000000000        -5.092377273891450E-020
  -79.7300000000000         4.371935988369489E-020
  -79.5400000000000         1.099535683393319E-019
  -79.3500000000000         1.296555054782656E-019
  -79.1600000000000         9.821681809562338E-020
  -78.9700000000000         2.584188742527093E-020
  -78.7800000000000        -6.544815549700579E-020
  -78.5900000000000        -1.482405337148600E-019
  -78.4000000000000        -1.977202062523365E-019
  -78.2100000000000        -1.988998632585714E-019
  -78.0200000000000        -1.509876282247045E-019
  -77.8300000000000        -6.762526796417631E-020
  -77.6400000000000         2.706779142877719E-020
  -77.4500000000000         1.054938967932854E-019
  -77.2600000000000         1.445927305932812E-019
  -77.0700000000000         1.325561272802975E-019
  -76.8800000000000         7.230058040088862E-020
  -76.6900000000000        -1.931303420524061E-020
  -76.5000000000000        -1.162996577706380E-019
  -76.3100000000000        -1.910289111298610E-019
  -76.1200000000000        -2.222048786291461E-019
  -75.9300000000000        -2.010345492254356E-019
  -75.7400000000000        -1.337913890733909E-019
  -75.5500000000000        -4.002492403833130E-020
  -75.3600000000000         5.306757855530290E-020
  -75.1700000000000         1.184765320104497E-019
  -74.9800000000000         1.371538900314987E-019
  -74.7900000000000         1.034797024498668E-019
  -74.6000000000000         2.684830681793121E-020
  -74.4100000000000        -7.107507510960424E-020
  -74.2200000000000        -1.626267030426236E-019
  -74.0300000000000        -2.221275088191513E-019
  -73.8400000000000        -2.332657079088756E-019
  -73.6500000000000        -1.937419006618511E-019
  -73.4600000000000        -1.158345605450634E-019
  -73.2700000000000        -2.273085712457524E-020
  -73.0800000000000         5.829883525271873E-020
  -72.8900000000000         1.038870526985198E-019
  -72.7000000000000         1.013879051633441E-019
  -72.5100000000000         5.254653482419719E-020
  -72.3200000000000        -2.704332266904186E-020
  -72.1300000000000        -1.125335356413505E-019
  -71.9400000000000        -1.771326073182583E-019
  -71.7500000000000        -2.000082383567730E-019
  -71.5600000000000        -1.724783794824889E-019
  -71.3700000000000        -1.006777648595210E-019
  -71.1800000000000        -3.907868299027857E-021
  -70.9900000000000         9.086367625271680E-020
  -70.8000000000000         1.567610735041626E-019
  -70.6100000000000         1.747602972210829E-019
  -70.4200000000000         1.391946321516242E-019
  -70.2300000000000         5.940925670561213E-020
  -70.0400000000000        -4.290860772657256E-020
  -69.8500000000000        -1.399426059135965E-019
  -69.6600000000000        -2.057005857591476E-019
  -69.4700000000000        -2.234099635229940E-019
  -69.2800000000000        -1.902236548629035E-019
  -69.0900000000000        -1.178836791471861E-019
  -68.9000000000000        -2.915805277544290E-020
  -68.7100000000000         4.890744309725060E-020
  -68.5200000000000         9.295177119928144E-020
  -68.3300000000000         9.014705485071982E-020
  -68.1400000000000         4.192949168624634E-020
  -67.9500000000000        -3.647558164842934E-020
  -67.7600000000000        -1.205880604822093E-019
  -67.5700000000000        -1.839319782415095E-019
  -67.3800000000000        -2.058911000227890E-019
  -67.1900000000000        -1.778642601020997E-019
  -67.0000000000000        -1.059221220527048E-019
  -66.8100000000000        -9.185350373578464E-021
  -66.6200000000000         8.561267883539536E-020
  -66.4300000000000         1.518060089196279E-019
  -66.2400000000000         1.704916910445987E-019
  -66.0500000000000         1.360046736625394E-019
  -65.8600000000000         5.757796778967098E-020
  -65.6700000000000        -4.329770179960837E-020
  -65.4800000000000        -1.390491223899501E-019
  -65.2900000000000        -2.039375334844154E-019
  -65.1000000000000        -2.214215031057544E-019
  -64.9100000000000        -1.888362427402886E-019
  -64.7200000000000        -1.180415827551978E-019
  -64.5300000000000        -3.185793477836504E-020
  -64.3400000000000         4.267433057853096E-020
  -64.1500000000000         8.225856375799113E-020
  -63.9600000000000         7.421730638130134E-020
  -63.7700000000000         2.027661183720652E-020
  -63.5800000000000        -6.385219897181741E-020
  -63.3900000000000        -1.529836821139681E-019
  -63.2000000000000        -2.197579164031233E-019
  -63.0100000000000        -2.426088832420363E-019
  -62.8200000000000        -2.120867718404219E-019
  -62.6300000000000        -1.336997493210599E-019
  -62.4400000000000        -2.645204373061581E-020
  -62.2500000000000         8.249960058582865E-020
  -62.0600000000000         1.655305208073826E-019
  -61.8700000000000         2.023613942051824E-019
  -61.6800000000000         1.857525048507690E-019
  -61.4900000000000         1.234415198757644E-019
  -61.3000000000000         3.576956371994240E-020
  -61.1100000000000        -5.031369877841439E-020
  -60.9200000000000        -1.091249176467968E-019
  -60.7300000000000        -1.237134323198600E-019
  -60.5400000000000        -9.074988088745427E-020
  -60.3500000000000        -2.142101764079618E-020
  -60.1600000000000         6.191929905573279E-020
  -59.9700000000000         1.323582618122658E-019
  -59.7800000000000         1.663642905793163E-019
  -59.5900000000000         1.507517617971949E-019
  -59.4000000000000         8.664835120805472E-020
  -59.2100000000000        -1.069083855265916E-020
  -59.0200000000000        -1.161787928377669E-019
  -58.8300000000000        -2.020676490636953E-019
  -58.6400000000000        -2.459230839439859E-019
  -58.4500000000000        -2.370903496051602E-019
  -58.2600000000000        -1.797737592763145E-019
  -58.0700000000000        -9.183408518777737E-020
  -57.8800000000000         3.474880148543839E-022
  -57.6900000000000         6.945017610429334E-020
  -57.5000000000000         9.504730038544168E-020
  -57.3100000000000         6.943550430819434E-020
  -57.1200000000000        -2.123555059414514E-022
  -56.9300000000000        -9.397921110419466E-020
  -56.7400000000000        -1.849953871525557E-019
  -56.5500000000000        -2.472127569006178E-019
  -56.3600000000000        -2.629143377877572E-019
  -56.1700000000000        -2.277880164773324E-019
  -55.9800000000000        -1.520971852812475E-019
  -55.7900000000000        -5.761469716655299E-020
  -55.6000000000000         2.877875791179542E-020
  -55.4100000000000         8.295845826443060E-020
  -55.2200000000000         9.058567987119184E-020
  -55.0300000000000         5.125769266207950E-020
  -54.8400000000000        -2.142402287847856E-020
  -54.6500000000000        -1.038799353873001E-019
  -54.4600000000000        -1.694976778855255E-019
  -54.2700000000000        -1.964752555263704E-019
  -54.0800000000000        -1.742789677852637E-019
  -53.8900000000000        -1.068304693522379E-019
  -53.7000000000000        -1.148401774818342E-020
  -53.5100000000000         8.592065479689530E-020
  -53.3200000000000         1.584986524345158E-019
  -53.1300000000000         1.860920544599853E-019
  -52.9400000000000         1.611137717375460E-019
  -52.7500000000000         9.076490897577695E-020
  -52.5600000000000        -5.016282284859499E-021
  -52.3700000000000        -9.927637975399479E-020
  -52.1800000000000        -1.657814505856038E-019
  -51.9900000000000        -1.865285806729093E-019
  -51.8000000000000        -1.568658839513393E-019
  -51.6100000000000        -8.674302614341924E-020
  -51.4200000000000         2.269106852766396E-021
  -51.2300000000000         8.332608106543170E-020
  -51.0400000000000         1.321806327423203E-019
  -50.8500000000000         1.342831094173188E-019
  -50.6600000000000         8.903818876700014E-020
  -50.4700000000000         9.973894787300209E-021
  -50.2800000000000        -7.922519933637468E-020
  -50.0900000000000        -1.516606036115660E-019
  -49.9000000000000        -1.851133466858807E-019
  -49.7100000000000        -1.685904006727349E-019
  -49.5200000000000        -1.056197299915336E-019
  -49.3300000000000        -1.333204168367187E-020
  -49.1400000000000         8.241339279617215E-020
  -48.9500000000000         1.544551716651507E-019
  -48.7600000000000         1.821610292813878E-019
  -48.5700000000000         1.573919499617878E-019
  -48.3800000000000         8.686246448240873E-020
  -48.1900000000000        -9.795391028341563E-021
  -48.0000000000000        -1.057070044811936E-019
  -47.8100000000000        -1.745223755207910E-019
  -47.6200000000000        -1.980203762134662E-019
  -47.4300000000000        -1.713440485721833E-019
  -47.2400000000000        -1.043507407632518E-019
  -47.0500000000000        -1.868793187064737E-020
  -46.8600000000000         5.855748203896143E-020
  -46.6700000000000         1.027968934369944E-019
  -46.4800000000000         9.916195800737291E-020
  -46.2900000000000         4.690867714561949E-020
  -46.1000000000000        -4.028636441415635E-020
  -45.9100000000000        -1.382340012225714E-019
  -45.7200000000000        -2.192134377842350E-019
  -45.5300000000000        -2.599955272934378E-019
  -45.3400000000000        -2.485737655150241E-019
  -45.1500000000000        -1.876487450791215E-019
  -44.9600000000000        -9.386098967024007E-020
  -44.7700000000000         6.997273347446340E-021
  -44.5800000000000         8.739971459931253E-020
  -44.3900000000000         1.259870864738557E-019
  -44.2000000000000         1.136710414966430E-019
  -44.0100000000000         5.617957810744567E-020
  -43.8200000000000        -2.769014176907346E-020
  -43.6300000000000        -1.116050510510609E-019
  -43.4400000000000        -1.694105811634563E-019
  -43.2500000000000        -1.827847680456234E-019
  -43.0600000000000        -1.466052092531982E-019
  -42.8700000000000        -7.046759366363987E-020
  -42.6800000000000         2.408300820047693E-020
  -42.4900000000000         1.097986522632093E-019
  -42.3000000000000         1.616356302586050E-019
  -42.1100000000000         1.640287639741750E-019
  -41.9200000000000         1.154278975233586E-019
  -41.7300000000000         2.878600763120952E-020
  -41.5400000000000        -7.214159174339870E-020
  -41.3500000000000        -1.596173499622361E-019
  -41.1600000000000        -2.098881851976164E-019
  -40.9700000000000        -2.099919895807092E-019
  -40.7800000000000        -1.614327402703648E-019
  -40.5900000000000        -7.966364602622156E-020
  -40.4000000000000         1.046292887569785E-020
  -40.2100000000000         8.195022464052499E-020
  -40.0200000000000         1.135087257661159E-019
  -39.8300000000000         9.573131665899970E-020
  -39.6400000000000         3.380974951125213E-020
  -39.4500000000000        -5.398779790043284E-020
  -39.2600000000000        -1.416350247206021E-019
  -39.0700000000000        -2.029232627734117E-019
  -38.8800000000000        -2.191010679243446E-019
  -38.6900000000000        -1.843592519657250E-019
  -38.5000000000000        -1.075617822448834E-019
  -38.3100000000000        -9.711766757170389E-021
  -38.1200000000000         8.211476491257273E-020
  -37.9300000000000         1.426019132087091E-019
  -37.7400000000000         1.555124879115436E-019
  -37.5500000000000         1.183641033659744E-019
  -37.3600000000000         4.310921208636645E-020
  -37.1700000000000        -4.737086060272980E-020
  -36.9800000000000        -1.259362458498903E-019
  -36.7900000000000        -1.690899256729792E-019
  -36.6000000000000        -1.638229666264092E-019
  -36.4100000000000        -1.114200340751317E-019
  -36.2200000000000        -2.711758418689248E-020
  -36.0300000000000         6.429367012038117E-020
  -35.8400000000000         1.356526739559619E-019
  -35.6500000000000         1.653155136558130E-019
  -35.4600000000000         1.434551955079219E-019
  -35.2700000000000         7.494321393411949E-020
  -35.0800000000000        -2.202255174168977E-020
  -34.8900000000000        -1.211429539666456E-019
  -34.7000000000000        -1.955788912362207E-019
  -34.5100000000000        -2.256579021468884E-019
  -34.3200000000000        -2.044954140591590E-019
  -34.1300000000000        -1.399044834339167E-019
  -33.9400000000000        -5.204211561603530E-020
  -33.7500000000000         3.252395985408550E-020
  -33.5600000000000         8.860246977300643E-020
  -33.3700000000000         9.975045324442712E-020
  -33.1800000000000         6.307852349629430E-020
  -32.9900000000000        -9.912350777448786E-021
  -32.8000000000000        -9.670380556365421E-020
  -32.6100000000000        -1.703554811417327E-019
  -32.4200000000000        -2.073998631048555E-019
  -32.2300000000000        -1.947412811604861E-019
  -32.0400000000000        -1.335577361249174E-019
  -31.8500000000000        -3.907372275380307E-020
  -31.6600000000000         6.373548517820423E-020
  -31.4700000000000         1.472727494558048E-019
  -31.2800000000000         1.892232348095154E-019
  -31.0900000000000         1.789445460515046E-019
  -30.9000000000000         1.204865940828013E-019
  -30.7100000000000         3.136194815927759E-020
  -30.5200000000000        -6.257477090328176E-020
  -30.3300000000000        -1.346445632071426E-019
  -30.1400000000000        -1.650672467069615E-019
  -29.9500000000000        -1.466443869430363E-019
  -29.7600000000000        -8.675811903121959E-020
  -29.5700000000000        -5.118324477694957E-021
  -29.3800000000000         7.207539444068724E-020
  -29.1900000000000         1.198547366697042E-019
  -29.0000000000000         1.218424438247572E-019
  -28.8100000000000         7.511253579735537E-020
  -28.6200000000000        -8.863114809087054E-021
  -28.4300000000000        -1.074611627460832E-019
  -28.2400000000000        -1.934065469438560E-019
  -28.0500000000000        -2.426379538753582E-019
  -27.8600000000000        -2.412537420897970E-019
  -27.6700000000000        -1.895239484811893E-019
  -27.4800000000000        -1.018110493614873E-019
  -27.2900000000000        -2.430708699424192E-021
  -27.1000000000000         8.134274366664429E-020
  -26.9100000000000         1.270999837389383E-019
  -26.7200000000000         1.236879487591011E-019
  -26.5300000000000         7.432337027496322E-020
  -26.3400000000000        -4.468649439642734E-021
  -26.1500000000000        -8.777921891807554E-020
  -25.9600000000000        -1.496686542410905E-019
  -25.7700000000000        -1.708037138469100E-019
  -25.5800000000000        -1.441504647449280E-019
  -25.3900000000000        -7.706230896656841E-020
  -25.2000000000000         1.084401660461223E-020
  -25.0100000000000         9.340374423422724E-020
  -24.8200000000000         1.455469634714174E-019
  -24.6300000000000         1.506495973813530E-019
  -24.4400000000000         1.054611155629519E-019
  -24.2500000000000         2.117828577904242E-020
  -24.0600000000000        -7.965633832253047E-020
  -23.8700000000000        -1.695493083503033E-019
  -23.6800000000000        -2.239076324687022E-019
  -23.4900000000000        -2.280799967154318E-019
  -23.3000000000000        -1.815475865341043E-019
  -23.1100000000000        -9.804635556809028E-020
  -22.9200000000000        -1.583379829132252E-021
  -22.7300000000000         8.049613222565991E-020
  -22.5400000000000         1.253792143709885E-019
  -22.3500000000000         1.213147361256801E-019
  -22.1600000000000         7.092012600871834E-020
  -21.9700000000000        -9.680019159012769E-021
  -21.7800000000000        -9.562429381123386E-020
  -21.5900000000000        -1.606075483613566E-019
  -21.4000000000000        -1.845824585530860E-019
  -21.2100000000000        -1.596358663743555E-019
  -21.0200000000000        -9.233106802425469E-020
  -20.8300000000000        -1.828764628741019E-021
  -20.6400000000000         8.567395854300818E-020
  -20.4500000000000         1.445717890447035E-019
  -20.2600000000000         1.573256301370119E-019
  -20.0700000000000         1.196064988501615E-019
  -19.8800000000000         4.161139967403121E-020
  -19.6900000000000        -5.483362109419772E-020
  -19.5000000000000        -1.425470020788710E-019
  -19.3100000000000        -1.968289727711826E-019
  -19.1200000000000        -2.025976054727819E-019
  -18.9300000000000        -1.587584976610027E-019
  -18.7400000000000        -7.853758260111895E-020
  -18.5500000000000         1.432893452733073E-020
  -18.3600000000000         9.245206566721656E-020
  -18.1700000000000         1.327115432143909E-019
  -17.9800000000000         1.229465096853015E-019
  -17.7900000000000         6.547798625646837E-020
  -17.6000000000000        -2.355388143484953E-020
  -17.4100000000000        -1.188409613439223E-019
  -17.2200000000000        -1.931962325384347E-019
  -17.0300000000000        -2.253715790342947E-019
  -16.8400000000000        -2.061473277419683E-019
  -16.6500000000000        -1.409380152593338E-019
  -16.4600000000000        -4.816437592678233E-020
  -16.2700000000000         4.613447526868476E-020
  -16.0800000000000         1.158829388372742E-019
  -15.8900000000000         1.425382487306015E-019
  -15.7000000000000         1.204414826436303E-019
  -15.5100000000000         5.839119090131127E-020
  -15.3200000000000        -2.301393395509068E-020
  -15.1300000000000        -9.747826403742472E-020
  -14.9400000000000        -1.407692204417920E-019
  -14.7500000000000        -1.378700974563013E-019
  -14.5600000000000        -8.744737076476948E-020
  -14.3700000000000        -2.337563007071102E-021
  -14.1800000000000         9.408887011540388E-020
  -13.9900000000000         1.746374415228437E-019
  -13.8000000000000         2.161339917447094E-019
  -13.6100000000000         2.061317201736738E-019
  -13.4200000000000         1.465321785132731E-019
  -13.2300000000000         5.306178647975645E-020
  -13.0400000000000        -4.925046775651751E-020
  -12.8500000000000        -1.332817917824923E-019
  -12.6600000000000        -1.776145785893589E-019
  -12.4700000000000        -1.726594402710697E-019
  -12.2800000000000        -1.233274091627053E-019
  -12.0900000000000        -4.748283386867385E-020
  -11.9000000000000         2.936481315025846E-020
  -11.7100000000000         8.158247585396950E-020
  -11.5200000000000         9.096226972779418E-020
  -11.3300000000000         5.210426409308638E-020
  -11.1400000000000        -2.593454777434647E-020
  -10.9500000000000        -1.222111367702492E-019
  -10.7600000000000        -2.099447038736190E-019
  -10.5700000000000        -2.642841378268286E-019
  -10.3800000000000        -2.695339057393847E-019
  -10.1900000000000        -2.237357098766985E-019
  -10.0000000000000        -1.392742441636872E-019
  -9.81000000000000        -3.933235830521140E-020
  -9.62000000000000         4.877519908738082E-020
  -9.42999999999999         1.014588223010697E-019
  -9.23999999999999         1.056282724933045E-019
  -9.05000000000000         6.242087970124091E-020
  -8.86000000000000        -1.320256474125358E-020
  -8.67000000000000        -9.688418072106138E-020
  -8.48000000000000        -1.620361146275518E-019
  -8.28999999999999        -1.876629048967003E-019
  -8.09999999999999        -1.645549966925580E-019
  -7.91000000000000        -9.803890430221964E-020
  -7.72000000000000        -6.474519489460386E-021
  -7.53000000000000         8.406483895560595E-020
  -7.34000000000000         1.473792972962937E-019
  -7.15000000000001         1.647892700059277E-019
  -6.95999999999999         1.306224376885932E-019
  -6.77000000000000         5.394887183990121E-020
  -6.58000000000000        -4.394292838455720E-020
  -6.39000000000000        -1.356068325892985E-019
  -6.20000000000000        -1.952925145002367E-019
  -6.01000000000001        -2.063251763226458E-019
  -5.81999999999999        -1.658750850949732E-019
  -5.63000000000000        -8.573166934446543E-020
  -5.44000000000000         1.114345224548649E-020
  -5.25000000000000         9.728211663698667E-020
  -5.06000000000000         1.486575571335733E-019
  -4.87000000000000         1.516097688205438E-019
  -4.67999999999999         1.067440066226227E-019
  -4.48999999999999         2.867855260224723E-020
  -4.30000000000000        -5.827833143142123E-020
  -4.11000000000000        -1.272648222189195E-019
  -3.92000000000000        -1.567449623607574E-019
  -3.73000000000000        -1.368437505726575E-019
  -3.53999999999999        -7.229371269412307E-020
  -3.34999999999999         1.887034565443991E-020
  -3.16000000000000         1.104951384560597E-019
  -2.97000000000000         1.758678091443370E-019
  -2.78000000000000         1.954544650092107E-019
  -2.59000000000000         1.625715347011498E-019
  -2.40000000000001         8.534738721068346E-020
  -2.20999999999999        -1.558805018007122E-020
  -2.02000000000000        -1.130116881646029E-019
  -1.83000000000000        -1.809063440553276E-019
  -1.64000000000000        -2.019033630118074E-019
  -1.45000000000000        -1.722244257477452E-019
  -1.26000000000001        -1.026961253473206E-019
  -1.06999999999999        -1.554306188534258E-020
 -0.879999999999995         6.211280872311587E-020
 -0.689999999999998         1.061613144846691E-019
 -0.500000000000000         1.025237944059211E-019
 -0.310000000000002         5.124295930308778E-020
 -0.120000000000005        -3.354153293923677E-020
  7.000000000000739E-002   -1.277147422755290E-019
  0.260000000000005        -2.041976445685806E-019
  0.450000000000003        -2.408067604813906E-019
  0.640000000000001        -2.266819440313412E-019
  0.829999999999998        -1.654228176903943E-019
   1.02000000000000        -7.403136782184654E-020
   1.21000000000001         2.202706180719981E-020
   1.40000000000001         9.620957241019646E-020
   1.59000000000000         1.285836154313586E-019
   1.78000000000000         1.115812929082352E-019
   1.97000000000000         5.214538438833418E-020
   2.16000000000000        -3.035416107052459E-020
   2.34999999999999        -1.098198728363566E-019
   2.54000000000001        -1.610776616086440E-019
   2.73000000000000        -1.672512920945482E-019
   2.92000000000000        -1.247189453295317E-019
   3.11000000000000        -4.421664190953341E-020
   3.30000000000000         5.222940465568306E-020
   3.48999999999999         1.376546860355463E-019
   3.68000000000001         1.879558559319554E-019
   3.87000000000000         1.888766325043820E-019
   4.06000000000000         1.401478699636938E-019
   4.25000000000000         5.557284975208825E-020
   4.44000000000000        -4.097109236314160E-020
   4.63000000000000        -1.224526168463772E-019
   4.82000000000001        -1.665130642038776E-019
   5.01000000000001        -1.619203873758126E-019
   5.20000000000000        -1.117745838036268E-019
   5.39000000000000        -3.253954355109390E-020
   5.58000000000000         5.080972490137806E-020
   5.77000000000000         1.121118625434541E-019
   5.96000000000001         1.316898966987786E-019
   6.15000000000001         1.021413417776998E-019
   6.34000000000000         3.056367938316816E-020
   6.53000000000000        -6.343768018237866E-020