  -105.000000000000         0.000000000000000E+000
  -104.810000000000        -5.366365796470628E-021
  -104.620000000000        -1.197718753840266E-020
  -104.430000000000        -1.548709440933369E-020
  -104.240000000000        -1.528747533404656E-020
  -104.050000000000        -1.485407348399641E-020
  -103.860000000000        -1.819060013225159E-020
  -103.670000000000        -2.579696806501616E-020
  -103.480000000000        -3.403207409231586E-020
  -103.290000000000        -3.848996109876301E-020
  -103.100000000000        -3.816570860595678E-020
  -102.910000000000        -3.642245698540747E-020
  -102.720000000000        -3.782089885532630E-020
  -102.530000000000        -4.382446873234699E-020
  -102.340000000000        -5.146634182894368E-020
  -102.150000000000        -5.623540103300512E-020
  -101.960000000000        -5.641580359449994E-020
  -101.770000000000        -5.473578574564908E-020
  -101.580000000000        -5.575425230302401E-020
  -101.390000000000        -6.148444545791585E-020
  -101.200000000000        -6.944100844265752E-020
  -101.010000000000        -7.498381588631636E-020
  -100.820000000000        -7.572287358473777E-020
  -100.630000000000        -7.377507694038233E-020
  -100.440000000000        -7.371694484655908E-020
  -100.250000000000        -7.819097459955533E-020
  -100.060000000000        -8.536395713409452E-020
  -99.8700000000000        -9.066800971966374E-020
  -99.6800000000000        -9.116723095031292E-020
  -99.4900000000000        -8.838137494737239E-020
  -99.3000000000000        -8.686277334825648E-020
  -99.1100000000000        -8.987525248087343E-020
  -98.9200000000000        -9.629513895785602E-020
  -98.7300000000000        -1.016911001602848E-019
  -98.5400000000000        -1.025528561061580E-019
  -98.3500000000000        -9.963911272297927E-020
  -98.1600000000000        -9.725970535083693E-020
  -97.9700000000000        -9.918187283278725E-020
  -97.7800000000000        -1.050629910569959E-019
  -97.5900000000000        -1.108048181238285E-019
  -97.4000000000000        -1.124795610070741E-019
  -97.2100000000000        -1.100674592601848E-019
  -97.0200000000000        -1.074305427944313E-019
  -96.8300000000000        -1.085525377503463E-019
  -96.6400000000000        -1.136491549837144E-019
  -96.4500000000000        -1.188793543637814E-019
  -96.2600000000000        -1.199518500107315E-019
  -96.0700000000000        -1.162034197520555E-019
  -95.8800000000000        -1.112690740415987E-019
  -95.6900000000000        -1.097058995746721E-019
  -95.5000000000000        -1.127850633940127E-019
  -95.3100000000000        -1.174506728918658E-019
  -95.1200000000000        -1.194072307521845E-019
  -94.9300000000000        -1.173473607596842E-019
  -94.7400000000000        -1.142506744492370E-019
  -94.5500000000000        -1.145004973982688E-019
  -94.3600000000000        -1.195780285571074E-019
  -94.1700000000000        -1.264698516103545E-019
  -93.9800000000000        -1.303491942035225E-019
  -93.7900000000000        -1.290138378111327E-019
  -93.6000000000000        -1.248740839800235E-019
  -93.4100000000000        -1.226065189617807E-019
  -93.2200000000000        -1.247144452957954E-019
  -93.0300000000000        -1.292229265893042E-019
  -92.8400000000000        -1.316889289646867E-019
  -92.6500000000000        -1.295858584875858E-019
  -92.4600000000000        -1.248586225342589E-019
  -92.2700000000000        -1.221921529946650E-019
  -92.0800000000000        -1.246279008772039E-019
  -91.8900000000000        -1.307013604638029E-019
  -91.7000000000000        -1.358321851257201E-019
  -91.5100000000000        -1.366441582657585E-019
  -91.3200000000000        -1.340981184440984E-019
  -91.1300000000000        -1.324602032400931E-019
  -90.9400000000000        -1.351078916759072E-019
  -90.7500000000000        -1.411924031331589E-019
  -90.5600000000000        -1.463551242427456E-019
  -90.3700000000000        -1.468266951824641E-019
  -90.1800000000000        -1.430074723636878E-019
  -89.9900000000000        -1.391164368569206E-019
  -89.8000000000000        -1.392410648682642E-019
  -89.6100000000000        -1.435490403735140E-019
  -89.4200000000000        -1.482571689019483E-019
  -89.2300000000000        -1.493569900562341E-019
  -89.0400000000000        -1.465145670358637E-019
  -88.8500000000000        -1.434111464698591E-019
  -88.6600000000000        -1.442033120826851E-019
  -88.4700000000000        -1.494953828832662E-019
  -88.2800000000000        -1.556905003356829E-019
  -88.0900000000000        -1.583628286839540E-019
  -87.9000000000000        -1.564442577726762E-019
  -87.7100000000000        -1.532279137601867E-019
  -87.5200000000000        -1.532229980663624E-019
  -87.3300000000000        -1.578535685477065E-019
  -87.1400000000000        -1.640949555140338E-019
  -86.9500000000000        -1.673395290363214E-019
  -86.7600000000000        -1.657556533355254E-019
  -86.5700000000000        -1.619874288099171E-019
  -86.3800000000000        -1.605864403492813E-019
  -86.1900000000000        -1.636454832885825E-019
  -86.0000000000000        -1.688210104590835E-019
  -85.8100000000000        -1.716388732552649E-019
  -85.6200000000000        -1.698701503348590E-019
  -85.4300000000000        -1.657759249991245E-019
  -85.2400000000000        -1.640519438201875E-019
  -85.0500000000000        -1.674099380607338E-019
  -84.8600000000000        -1.739942586661509E-019
  -84.6700000000000        -1.790953915891406E-019
  -84.4800000000000        -1.795367851495671E-019
  -84.2900000000000        -1.765688607469263E-019
  -84.1000000000000        -1.745339631988086E-019
  -83.9100000000000        -1.766068799374981E-019
  -83.7200000000000        -1.817037075367163E-019
  -83.5300000000000        -1.855227672997033E-019
  -83.3400000000000        -1.847213287910262E-019
  -83.1500000000000        -1.802269280157449E-019
  -82.9600000000000        -1.764979997922759E-019
  -82.7700000000000        -1.774092711819680E-019
  -82.5800000000000        -1.826648777606982E-019
  -82.3900000000000        -1.881508498313880E-019
  -82.2000000000000        -1.898850039779934E-019
  -82.0100000000000        -1.877894672741075E-019
  -81.8200000000000        -1.856848417718865E-019
  -81.6300000000000        -1.875187188901792E-019
  -81.4400000000000        -1.934394336511797E-019
  -81.2500000000000        -1.994778355937749E-019
  -81.0600000000000        -2.011655556854888E-019
  -80.8700000000000        -1.976685154834759E-019
  -80.6800000000000        -1.925198382184985E-019
  -80.4900000000000        -1.902720848688814E-019
  -80.3000000000000        -1.922705725791750E-019
  -80.1100000000000        -1.955699176990847E-019
  -79.9200000000000        -1.959955462159639E-019
  -79.7300000000000        -1.923856479033491E-019
  -79.5400000000000        -1.879249969538797E-019
  -79.3500000000000        -1.872639169954945E-019
  -79.1600000000000        -1.921462643665449E-019
  -78.9700000000000        -1.997086162075655E-019
  -78.7800000000000        -2.050829634829221E-019
  -78.5900000000000        -2.058423286467514E-019
  -78.4000000000000        -2.040797913674898E-019
  -78.2100000000000        -2.041796541167334E-019
  -78.0200000000000        -2.084520531765677E-019
  -77.8300000000000        -2.148251344019191E-019
  -77.6400000000000        -2.187992450535067E-019
  -77.4500000000000        -2.177791504473465E-019
  -77.2600000000000        -2.136200297881845E-019
  -77.0700000000000        -2.109279138417301E-019
  -76.8800000000000        -2.127205178938151E-019
  -76.6900000000000        -2.175930752416428E-019
  -76.5000000000000        -2.211068467282078E-019
  -76.3100000000000        -2.200832137734219E-019
  -76.1200000000000        -2.157055410629004E-019
  -75.9300000000000        -2.124639279658368E-019
  -75.7400000000000        -2.139394516974581E-019
  -75.5500000000000        -2.194362436330725E-019
  -75.3600000000000        -2.246642593241399E-019
  -75.1700000000000        -2.258171755381828E-019
  -74.9800000000000        -2.231519487066272E-019
  -74.7900000000000        -2.206533313102978E-019
  -74.6000000000000        -2.221113228131674E-019
  -74.4100000000000        -2.273736987171671E-019
  -74.2200000000000        -2.323731788277039E-019
  -74.0300000000000        -2.329260526264748E-019
  -73.8400000000000        -2.286971452900189E-019
  -73.6500000000000        -2.235576405989350E-019
  -73.4600000000000        -2.219886160202931E-019
  -73.2700000000000        -2.249448729671236E-019
  -73.0800000000000        -2.291048978960564E-019
  -72.8900000000000        -2.301993384121321E-019
  -72.7000000000000        -2.272179252187324E-019
  -72.5100000000000        -2.234643418441874E-019
  -72.3200000000000        -2.234478914541891E-019
  -72.1300000000000        -2.285767763373240E-019
  -71.9400000000000        -2.357581093966118E-019
  -71.7500000000000        -2.402381547260682E-019
  -71.5600000000000        -2.399792705669083E-019
  -71.3700000000000        -2.374137471040637E-019
  -71.1800000000000        -2.369285779097966E-019
  -70.9900000000000        -2.405193308584265E-019
  -70.8000000000000        -2.457978365385186E-019
  -70.6100000000000        -2.482753220874356E-019
  -70.4200000000000        -2.457402163217654E-019
  -70.2300000000000        -2.405337548243976E-019
  -70.0400000000000        -2.375198904468989E-019
  -69.8500000000000        -2.396468425845230E-019
  -69.6600000000000        -2.452984996824172E-019
  -69.4700000000000        -2.499367490739518E-019
  -69.2800000000000        -2.504506993603917E-019
  -69.0900000000000        -2.480554172740446E-019
  -68.9000000000000        -2.469852874438748E-019
  -68.7100000000000        -2.502615888450367E-019
  -68.5200000000000        -2.566155184247298E-019
  -68.3300000000000        -2.615407578126602E-019
  -68.1400000000000        -2.614980808890601E-019
  -67.9500000000000        -2.572710339183752E-019
  -67.7600000000000        -2.532619852468106E-019
  -67.5700000000000        -2.533772405328295E-019
  -67.3800000000000        -2.574024585840133E-019
  -67.1900000000000        -2.613054282521515E-019
  -67.0000000000000        -2.611602998376682E-019
  -66.8100000000000        -2.569418905064212E-019
  -66.6200000000000        -2.525773992088578E-019
  -66.4300000000000        -2.522217471567281E-019
  -66.2400000000000        -2.563228085988304E-019
  -66.0500000000000        -2.612367186909029E-019
  -65.8600000000000        -2.627588649624818E-019
  -65.6700000000000        -2.601889630821917E-019
  -65.4800000000000        -2.570308840221322E-019
  -65.2900000000000        -2.576439601448216E-019
  -65.1000000000000        -2.630385342827007E-019
  -64.9100000000000        -2.698329788827429E-019
  -64.7200000000000        -2.733751700694762E-019
  -64.5300000000000        -2.720614919089426E-019
  -64.3400000000000        -2.687471663795849E-019
  -64.1500000000000        -2.679163913950570E-019
  -63.9600000000000        -2.713261468408307E-019
  -63.7700000000000        -2.762948582883635E-019
  -63.5800000000000        -2.782781222982607E-019
  -63.3900000000000        -2.752708904835427E-019
  -63.2000000000000        -2.698246690867073E-019
  -63.0100000000000        -2.667432799869470E-019
  -62.8200000000000        -2.686420788709645E-019
  -62.6300000000000        -2.735892336171517E-019
  -62.4400000000000        -2.770612191488699E-019
  -62.2500000000000        -2.763330885182318E-019
  -62.0600000000000        -2.731030506562016E-019
  -61.8700000000000        -2.718377715923863E-019
  -61.6800000000000        -2.754177164843715E-019
  -61.4900000000000        -2.822510922078924E-019
  -61.3000000000000        -2.876311522830899E-019
  -61.1100000000000        -2.880671096736587E-019
  -60.9200000000000        -2.844868984015079E-019
  -60.7300000000000        -2.812855187524719E-019
  -60.5400000000000        -2.821433812633793E-019
  -60.3500000000000        -2.866019445917211E-019
  -60.1600000000000        -2.906435752510207E-019
  -59.9700000000000        -2.906857607571166E-019
  -59.7800000000000        -2.871338091828453E-019
  -59.5900000000000        -2.840681242833971E-019
  -59.4000000000000        -2.853550198443841E-019
  -59.2100000000000        -2.909024293245398E-019
  -59.0200000000000        -2.966514094691802E-019
  -58.8300000000000        -2.983329304587353E-019
  -58.6400000000000        -2.954279551513857E-019
  -58.4500000000000        -2.915708379431885E-019
  -58.2600000000000        -2.910243882912757E-019
  -58.0700000000000        -2.946010980430581E-019
  -57.8800000000000        -2.989278070752209E-019
  -57.6900000000000        -2.997463167555342E-019
  -57.5000000000000        -2.960780631339941E-019
  -57.3100000000000        -2.912550346988522E-019
  -57.1200000000000        -2.898163100278624E-019
  -56.9300000000000        -2.932238541119222E-019
  -56.7400000000000        -2.984896942993445E-019
  -56.5500000000000        -3.010381620625591E-019
  -56.3600000000000        -2.990829109258990E-019
  -56.1700000000000        -2.953405780695898E-019
  -55.9800000000000        -2.944372616985336E-019
  -55.7900000000000        -2.984760500122941E-019
  -55.6000000000000        -3.049911514068951E-019
  -55.4100000000000        -3.092385706518296E-019
  -55.2200000000000        -3.086418021102071E-019
  -55.0300000000000        -3.051620942435310E-019
  -54.8400000000000        -3.033435006527128E-019
  -54.6500000000000        -3.059065271900372E-019
  -54.4600000000000        -3.111026400978001E-019
  -54.2700000000000        -3.143604638587357E-019
  -54.0800000000000        -3.126544789422226E-019
  -53.8900000000000        -3.074274589060167E-019
  -53.7000000000000        -3.032814786755378E-019
  -53.5100000000000        -3.036890406380316E-019
  -53.3200000000000        -3.078101263772961E-019
  -53.1300000000000        -3.114377942345556E-019
  -52.9400000000000        -3.111532359445450E-019
  -52.7500000000000        -3.077064374315123E-019
  -52.5600000000000        -3.053758846807752E-019
  -52.3700000000000        -3.079037142288859E-019
  -52.1800000000000        -3.148807234877608E-019
  -51.9900000000000        -3.220310905068406E-019
  -51.8000000000000        -3.251279711473963E-019
  -51.6100000000000        -3.238167111696121E-019
  -51.4200000000000        -3.217253145461193E-019
  -51.2300000000000        -3.227932485020594E-019
  -51.0400000000000        -3.273588644776775E-019
  -50.8500000000000        -3.317696008473509E-019
  -50.6600000000000        -3.318997560496405E-019
  -50.4700000000000        -3.272059379745640E-019
  -50.2800000000000        -3.214186977344330E-019
  -50.0900000000000        -3.191750107068587E-019
  -49.9000000000000        -3.217720650611543E-019
  -49.7100000000000        -3.260649337508630E-019
  -49.5200000000000        -3.275415305893654E-019
  -49.3300000000000        -3.246393946550275E-019
  -49.1400000000000        -3.201973725428279E-019
  -48.9500000000000        -3.186768030247998E-019
  -48.7600000000000        -3.218299651685634E-019
  -48.5700000000000        -3.269758541862233E-019
  -48.3800000000000        -3.295434424952209E-019
  -48.1900000000000        -3.274536546858875E-019
  -48.0000000000000        -3.231478961978570E-019
  -47.8100000000000        -3.213151222517234E-019
  -47.6200000000000        -3.244734195193896E-019
  -47.4300000000000        -3.306116190031190E-019
  -47.2400000000000        -3.351365074387147E-019
  -47.0500000000000        -3.352643575861626E-019
  -46.8600000000000        -3.326598108803058E-019
  -46.6700000000000        -3.317998906424519E-019
  -46.4800000000000        -3.356296985642457E-019
  -46.2900000000000        -3.426656900379435E-019
  -46.1000000000000        -3.483176274650674E-019
  -45.9100000000000        -3.491718785208760E-019
  -45.7200000000000        -3.461537306207884E-019
  -45.5300000000000        -3.435551351272475E-019
  -45.3400000000000        -3.448588095328031E-019
  -45.1500000000000        -3.493514454540516E-019
  -44.9600000000000        -3.527703023318832E-019
  -44.7700000000000        -3.513743784112431E-019
  -44.5800000000000        -3.455554311045450E-019
  -44.3900000000000        -3.395396159165916E-019
  -44.2000000000000        -3.374585190123776E-019
  -44.0100000000000        -3.395278835272760E-019
  -43.8200000000000        -3.419689777087677E-019
  -43.6300000000000        -3.407424583025201E-019
  -43.4400000000000        -3.355300157531070E-019
  -43.2500000000000        -3.301590982098474E-019
  -43.0600000000000        -3.290574432524871E-019
  -42.8700000000000        -3.331128775361225E-019
  -42.6800000000000        -3.388779300504068E-019
  -42.4900000000000        -3.418628801451956E-019
  -42.3000000000000        -3.407656221020648E-019
  -42.1100000000000        -3.386076156227177E-019
  -41.9200000000000        -3.397088948175862E-019
  -41.7300000000000        -3.454103256604110E-019
  -41.5400000000000        -3.526486008812102E-019
  -41.3500000000000        -3.567638229911638E-019
  -41.1600000000000        -3.558704922556439E-019
  -40.9700000000000        -3.526234830308327E-019
  -40.7800000000000        -3.516967191624525E-019
  -40.5900000000000        -3.553807903196318E-019
  -40.4000000000000        -3.614881202353178E-019
  -40.2100000000000        -3.655394020821587E-019
  -40.0200000000000        -3.651159205395227E-019
  -39.8300000000000        -3.621989683619908E-019
  -39.6400000000000        -3.612481394182646E-019
  -39.4500000000000        -3.648559387845892E-019
  -39.2600000000000        -3.711499210233726E-019
  -39.0700000000000        -3.754528194218024E-019
  -38.8800000000000        -3.746401989042112E-019
  -38.6900000000000        -3.700515572783417E-019
  -38.5000000000000        -3.661843175895242E-019
  -38.3100000000000        -3.664165891414714E-019
  -38.1200000000000        -3.698343788602268E-019
  -37.9300000000000        -3.721851906903147E-019
  -37.7400000000000        -3.700409206148684E-019
  -37.5500000000000        -3.641829949666067E-019
  -37.3600000000000        -3.589610228602884E-019
  -37.1700000000000        -3.582248553930317E-019
  -36.9800000000000        -3.617075940554950E-019
  -36.7900000000000        -3.653095700498747E-019
  -36.6000000000000        -3.650146258839278E-019
  -36.4100000000000        -3.607105789712304E-019
  -36.2200000000000        -3.562784712516655E-019
  -36.0300000000000        -3.558708460997778E-019
  -35.8400000000000        -3.599337049858887E-019
  -35.6500000000000        -3.647722804034547E-019
  -35.4600000000000        -3.660762316168585E-019
  -35.2700000000000        -3.630379701308557E-019
  -35.0800000000000        -3.591345886551025E-019
  -34.8900000000000        -3.588312062399795E-019
  -34.7000000000000        -3.633509975737330E-019
  -34.5100000000000        -3.695401098338068E-019
  -34.3200000000000        -3.728999773381731E-019
  -34.1300000000000        -3.718827093671650E-019
  -33.9400000000000        -3.693392545501277E-019
  -33.7500000000000        -3.697326050997666E-019
  -33.5600000000000        -3.747820366923672E-019
  -33.3700000000000        -3.817086590362834E-019
  -33.1800000000000        -3.857672125726588E-019
  -32.9900000000000        -3.846561434408660E-019
  -32.8000000000000        -3.806083198039559E-019
  -32.6100000000000        -3.781793534384106E-019
  -32.4200000000000        -3.798543584159182E-019
  -32.2300000000000        -3.836757636199179E-019
  -32.0400000000000        -3.851643385258943E-019
  -31.8500000000000        -3.816986748998439E-019
  -31.6600000000000        -3.751610300933274E-019
  -31.4700000000000        -3.703092429380634E-019
  -31.2800000000000        -3.704143491019862E-019
  -31.0900000000000        -3.743101034428132E-019
  -30.9000000000000        -3.776516473879384E-019
  -30.7100000000000        -3.771692607912445E-019
  -30.5200000000000        -3.738507223336703E-019
  -30.3300000000000        -3.720095029400787E-019
  -30.1400000000000        -3.751259983580973E-019
  -29.9500000000000        -3.824372405459470E-019
  -29.7600000000000        -3.895410001932629E-019
  -29.5700000000000        -3.924483542942048E-019
  -29.3800000000000        -3.912304349048082E-019
  -29.1900000000000        -3.897982584487925E-019
  -29.0000000000000        -3.920438716614775E-019
  -28.8100000000000        -3.980351490079830E-019
  -28.6200000000000        -4.038976606417818E-019
  -28.4300000000000        -4.054914064487184E-019
  -28.2400000000000        -4.023599009193429E-019
  -28.0500000000000        -3.981667953260857E-019
  -27.8600000000000        -3.971972622404175E-019
  -27.6700000000000        -4.002681010258455E-019
  -27.4800000000000        -4.039558140094572E-019
  -27.2900000000000        -4.038820599047073E-019
  -27.1000000000000        -3.989240112606986E-019
  -26.9100000000000        -3.923340796253180E-019
  -26.7200000000000        -3.886991718892018E-019
  -26.5300000000000        -3.896394156867371E-019
  -26.3400000000000        -3.923516043517751E-019
  -26.1500000000000        -3.923842255804137E-019
  -25.9600000000000        -3.879846271643324E-019
  -25.7700000000000        -3.818579269236246E-019
  -25.5800000000000        -3.786546883031022E-019
  -25.3900000000000        -3.805861421918876E-019
  -25.2000000000000        -3.853554796094554E-019
  -25.0100000000000        -3.883874811473072E-019
  -24.8200000000000        -3.872359983118579E-019
  -24.6300000000000        -3.839595178945125E-019
  -24.4400000000000        -3.831832504902278E-019
  -24.2500000000000        -3.876821617604812E-019
  -24.0600000000000        -3.956892957944150E-019
  -23.8700000000000        -4.024892556513813E-019
  -23.6800000000000        -4.047735374453714E-019
  -23.4900000000000        -4.036124469762419E-019
  -23.3000000000000        -4.032296777488891E-019
  -23.1100000000000        -4.067739798486556E-019
  -22.9200000000000        -4.131482149198348E-019
  -22.7300000000000        -4.179450217565336E-019
  -22.5400000000000        -4.176088223213402E-019
  -22.3500000000000        -4.128503047377168E-019
  -22.1600000000000        -4.080451979132481E-019
  -21.9700000000000        -4.071786236887461E-019
  -21.7800000000000        -4.101864116540521E-019
  -21.5900000000000        -4.131603717948034E-019
  -21.4000000000000        -4.122015754156113E-019
  -21.2100000000000        -4.072337761137364E-019
  -21.0200000000000        -4.021330379418140E-019
  -20.8300000000000        -4.010513784422359E-019
  -20.6400000000000        -4.044538509055574E-019
  -20.4500000000000        -4.086650901946449E-019
  -20.2600000000000        -4.093646391872730E-019
  -20.0700000000000        -4.056950337460407E-019
  -19.8800000000000        -4.010625356547784E-019
  -19.6900000000000        -3.998680602910067E-019
  -19.5000000000000        -4.032888422625542E-019
  -19.3100000000000        -4.081397251600844E-019
  -19.1200000000000        -4.099074311954330E-019
  -18.9300000000000        -4.070651097700718E-019
  -18.7400000000000        -4.025463270005383E-019
  -18.5500000000000        -4.009693082072954E-019
  -18.3600000000000        -4.042610724833712E-019
  -18.1700000000000        -4.098541538413848E-019
  -17.9800000000000        -4.131683061648997E-019
  -17.7900000000000        -4.120033897875817E-019
  -17.6000000000000        -4.086514621881802E-019
  -17.4100000000000        -4.077130066971188E-019
  -17.2200000000000        -4.117015254404276E-019
  -17.0300000000000        -4.186339379644214E-019
  -16.8400000000000        -4.239071463458873E-019
  -16.6500000000000        -4.246630382483571E-019
  -16.4600000000000        -4.224674085535509E-019
  -16.2700000000000        -4.217440639033973E-019
  -16.0800000000000        -4.254616813965329E-019
  -15.8900000000000        -4.321942392187343E-019
  -15.7000000000000        -4.373694005151508E-019
  -15.5100000000000        -4.375274818459590E-019
  -15.3200000000000        -4.335382663318320E-019
  -15.1300000000000        -4.297128676721606E-019
  -14.9400000000000        -4.296663718410503E-019
  -14.7500000000000        -4.328870841048388E-019
  -14.5600000000000        -4.352823998915670E-019
  -14.3700000000000        -4.331634227436104E-019
  -14.1800000000000        -4.268470680255375E-019
  -13.9900000000000        -4.204253439263412E-019
  -13.8000000000000        -4.179157776817323E-019
  -13.6100000000000        -4.194703034280455E-019
  -13.4200000000000        -4.212754916856271E-019
  -13.2300000000000        -4.192558159652135E-019
  -13.0400000000000        -4.130529348345696E-019
  -12.8500000000000        -4.064824180026269E-019
  -12.6600000000000        -4.040272718333890E-019
  -12.4700000000000        -4.067028304424198E-019
  -12.2800000000000        -4.112196414607679E-019
  -12.0900000000000        -4.132244864983388E-019
  -11.9000000000000        -4.115141845715656E-019
  -11.7100000000000        -4.091913780846746E-019
  -11.5200000000000        -4.106537410363574E-019
  -11.3300000000000        -4.172958468480954E-019
  -11.1400000000000        -4.260413693624899E-019
  -10.9500000000000        -4.321206556303264E-019
  -10.7600000000000        -4.334518750273987E-019
  -10.5700000000000        -4.324535237422668E-019
  -10.3800000000000        -4.335673592604836E-019
  -10.1900000000000        -4.388607437683153E-019
  -10.0000000000000        -4.459103046187793E-019
  -9.81000000000000        -4.499967997124975E-019
  -9.62000000000000        -4.485273564024396E-019
  -9.42999999999999        -4.434711917749876E-019
  -9.23999999999999        -4.394901932173220E-019
  -9.05000000000000        -4.395548439721941E-019
  -8.86000000000000        -4.422272843683935E-019
  -8.67000000000000        -4.431896259745273E-019
  -8.48000000000000        -4.395401424638129E-019
  -8.28999999999999        -4.327406482021056E-019
  -8.09999999999999        -4.273853137590658E-019
  -7.91000000000000        -4.269506235855551E-019
  -7.72000000000000        -4.305766089869324E-019
  -7.53000000000000        -4.339534602467398E-019
  -7.34000000000000        -4.334691814957553E-019
  -7.15000000000001        -4.296609856681305E-019
  -6.95999999999999        -4.266821186754860E-019
  -6.77000000000000        -4.282997999040402E-019
  -6.58000000000000        -4.342454652416406E-019
  -6.39000000000000        -4.404005157368839E-019
  -6.20000000000000        -4.426441549618303E-019
  -6.01000000000001        -4.406962632350089E-019
  -5.81999999999999        -4.382929453012101E-019
  -5.63000000000000        -4.395381504188734E-019
  -5.44000000000000        -4.449287129166004E-019
  -5.25000000000000        -4.508531525989898E-019
  -5.06000000000000        -4.530344753454846E-019
  -4.87000000000000        -4.506171437317399E-019
  -4.67999999999999        -4.469849967812611E-019
  -4.48999999999999        -4.465175826237186E-019
  -4.30000000000000        -4.503728142969086E-019
  -4.11000000000000        -4.553240917604212E-019
  -3.92000000000000        -4.567728679622850E-019
  -3.73000000000000        -4.530724861035903E-019
  -3.53999999999999        -4.470489062383180E-019
  -3.34999999999999        -4.432847738784300E-019
  -3.16000000000000        -4.437751526677494E-019
  -2.97000000000000        -4.461054261156846E-019
  -2.78000000000000        -4.458829363280533E-019
  -2.59000000000000        -4.410855875131424E-019
  -2.40000000000001        -4.341513683259147E-019
  -2.20999999999999        -4.297850966358186E-019
  -2.02000000000000        -4.305584273363768E-019
  -1.83000000000000        -4.345038829260725E-019
  -1.64000000000000        -4.370088992896772E-019
  -1.45000000000000        -4.352117563822166E-019
  -1.26000000000001        -4.307143146209845E-019
  -1.06999999999999        -4.280314317173801E-019
 -0.879999999999995        -4.302579049633563E-019
 -0.689999999999998        -4.360844538756464E-019
 -0.500000000000000        -4.410104538099571E-019
 -0.310000000000002        -4.415985148434536E-019
 -0.120000000000005        -4.387102121952943E-019
  7.000000000000739E-002   -4.366356419728776E-019
  0.260000000000005        -4.389542125496049E-019
  0.450000000000003        -4.450839966549247E-019
  0.640000000000001        -4.508147352951874E-019
  0.829999999999998        -4.523173986377618E-019
   1.02000000000000        -4.498069220217424E-019
   1.21000000000001        -4.473588609919861E-019
   1.40000000000001        -4.490412509320049E-019
   1.59000000000000        -4.550386485480405E-019
   1.78000000000000        -4.614573409250786E-019
   1.97000000000000        -4.639892693192953E-019
   2.16000000000000        -4.619345824024295E-019
   2.34999999999999        -4.587538634062838E-019
   2.54000000000001        -4.586429661348499E-019
   2.73000000000000        -4.624165501641157E-019
   2.92000000000000        -4.666397330425964E-019
   3.11000000000000        -4.668450222047956E-019
   3.30000000000000        -4.617696717751433E-019
   3.48999999999999        -4.545710984374192E-019
   3.68000000000001        -4.498658448826898E-019
   3.87000000000000        -4.494291736563218E-019
   4.06000000000000        -4.506636052503503E-019
   4.25000000000000        -4.492855359186826E-019
   4.44000000000000        -4.436434107700459E-019
   4.63000000000000        -4.365219054028463E-019
   4.82000000000001        -4.326837228257945E-019
   5.01000000000001        -4.344696774103455E-019
   5.20000000000000        -4.396412259484819E-019
   5.39000000000000        -4.435199736549742E-019
   5.58000000000000        -4.433807513248798E-019
   5.77000000000000        -4.409098069473762E-019
   5.96000000000001        -4.404020084198661E-019
   6.15000000000001        -4.444514770554554E-019
   6.34000000000000        -4.512842001205330E-019
   6.53000000000000        -4.563090389282476E-019