  -105.000000000000         0.000000000000000E+000
  -104.810000000000         2.371194587748784E-010
  -104.620000000000         5.219595934681903E-010
  -104.430000000000         7.949586259937597E-010
  -104.240000000000         1.162756778523730E-009
  -104.050000000000         1.587161516600851E-009
  -103.860000000000         1.868291946011292E-009
  -103.670000000000         1.906838071193760E-009
  -103.480000000000         1.811686513093971E-009
  -103.290000000000         2.384693554647809E-009
  -103.100000000000         3.333696383975272E-009
  -102.910000000000         4.779427148353549E-009
  -102.720000000000         6.335610829034952E-009
  -102.530000000000         7.670294628545569E-009
  -102.340000000000         8.687884441461213E-009
  -102.150000000000         9.269157927209177E-009
  -101.960000000000         9.614222105461159E-009
  -101.770000000000         9.656612082269985E-009
  -101.580000000000         9.921289421579866E-009
  -101.390000000000         1.036419853990668E-008
  -101.200000000000         1.073835040964643E-008
  -101.010000000000         1.069547741163492E-008
  -100.820000000000         1.004455967892651E-008
  -100.630000000000         9.159599232114460E-009
  -100.440000000000         8.227843075446989E-009
  -100.250000000000         7.462050007633024E-009
  -100.060000000000         7.059320873762421E-009
  -99.8700000000000         7.066217369089131E-009
  -99.6800000000000         7.103092310579293E-009
  -99.4900000000000         6.795916405361764E-009
  -99.3000000000000         5.781250217950053E-009
  -99.1100000000000         4.482369877337239E-009
  -98.9200000000000         2.980602965345870E-009
  -98.7300000000000         1.730520201559460E-009
  -98.5400000000000         1.196854476705224E-009
  -98.3500000000000         8.191877023440749E-010
  -98.1600000000000         8.614666240030269E-010
  -97.9700000000000         1.087688689636796E-009
  -97.7800000000000         1.177612293355419E-009
  -97.5900000000000         1.108386749712815E-009
  -97.4000000000000         8.946369153480000E-010
  -97.2100000000000         8.230346719233507E-010
  -97.0200000000000         8.572545995166239E-010
  -96.8300000000000         1.712881165159836E-009
  -96.6400000000000         2.648208926562841E-009
  -96.4500000000000         3.684567367430405E-009
  -96.2600000000000         4.889262414788618E-009
  -96.0700000000000         5.744313200781379E-009
  -95.8800000000000         6.188895842991623E-009
  -95.6900000000000         6.385389094923347E-009
  -95.5000000000000         6.499440146239286E-009
  -95.3100000000000         6.827239180202464E-009
  -95.1200000000000         7.105221437698526E-009
  -94.9300000000000         7.466835014355376E-009
  -94.7400000000000         7.569187139414956E-009
  -94.5500000000000         7.580433759391340E-009
  -94.3600000000000         7.564675414225800E-009
  -94.1700000000000         7.732401765575451E-009
  -93.9800000000000         7.631875101584577E-009
  -93.7900000000000         7.469278080961517E-009
  -93.6000000000000         8.416205745865650E-009
  -93.4100000000000         9.134600618808906E-009
  -93.2200000000000         9.588569622593083E-009
  -93.0300000000000         9.872640292599289E-009
  -92.8400000000000         9.746660453560827E-009
  -92.6500000000000         8.908735435890423E-009
  -92.4600000000000         7.430492692316026E-009
  -92.2700000000000         5.635166348884068E-009
  -92.0800000000000         4.065874243803766E-009
  -91.8900000000000         3.103294375162442E-009
  -91.7000000000000         2.820226441295664E-009
  -91.5100000000000         2.551667669427847E-009
  -91.3200000000000         2.343371000263063E-009
  -91.1300000000000         9.151230659298968E-010
  -90.9400000000000        -6.650737324575937E-010
  -90.7500000000000        -1.872898356044339E-009
  -90.5600000000000        -2.278046642491682E-009
  -90.3700000000000        -1.735355005238095E-009
  -90.1800000000000        -5.012089740187015E-010
  -89.9900000000000         9.847793378789829E-010
  -89.8000000000000         2.123799013279056E-009
  -89.6100000000000         2.096983146639797E-009
  -89.4200000000000         1.522854514247895E-009
  -89.2300000000000         1.439964113756760E-009
  -89.0400000000000         2.523591082308140E-009
  -88.8500000000000         3.012765533803433E-009
  -88.6600000000000         4.281145893703016E-009
  -88.4700000000000         4.939261879437816E-009
  -88.2800000000000         4.947514722565754E-009
  -88.0900000000000         4.429449812309984E-009
  -87.9000000000000         3.646483533567718E-009
  -87.7100000000000         3.193361806653970E-009
  -87.5200000000000         3.007407149853449E-009
  -87.3300000000000         2.809213921798907E-009
  -87.1400000000000         2.734143601894464E-009
  -86.9500000000000         3.180233790390470E-009
  -86.7600000000000         3.685252983365729E-009
  -86.5700000000000         4.256076550941856E-009
  -86.3800000000000         5.126942428012525E-009
  -86.1900000000000         6.242571645398657E-009
  -86.0000000000000         7.520827618979110E-009
  -85.8100000000000         8.971299520185264E-009
  -85.6200000000000         1.072687269685073E-008
  -85.4300000000000         1.243962618470180E-008
  -85.2400000000000         1.403058321358239E-008
  -85.0500000000000         1.558615040900892E-008
  -84.8600000000000         1.691630133843918E-008
  -84.6700000000000         1.786148240936374E-008
  -84.4800000000000         1.854864571455835E-008
  -84.2900000000000         1.920979303847187E-008
  -84.1000000000000         2.007278837093270E-008
  -83.9100000000000         2.149089382616861E-008
  -83.7200000000000         2.194466265040239E-008
  -83.5300000000000         2.493234094815617E-008
  -83.3400000000000         2.511739003412878E-008
  -83.1500000000000         2.500996217103163E-008
  -82.9600000000000         2.405190758459285E-008
  -82.7700000000000         2.296718701682496E-008
  -82.5800000000000         2.196380338462399E-008
  -82.3900000000000         2.112613233165240E-008
  -82.2000000000000         2.040307899909430E-008
  -82.0100000000000         1.957828097583383E-008
  -81.8200000000000         1.837169024771020E-008
  -81.6300000000000         1.675308993572151E-008
  -81.4400000000000         1.517040244468901E-008
  -81.2500000000000         1.417212482097856E-008
  -81.0600000000000         1.361120720264493E-008
  -80.8700000000000         1.402140525194380E-008
  -80.6800000000000         1.496853593029419E-008
  -80.4900000000000         1.566894611280051E-008
  -80.3000000000000         1.617764957663515E-008
  -80.1100000000000         1.664967833223320E-008
  -79.9200000000000         1.699819155414462E-008
  -79.7300000000000         1.743528073383814E-008
  -79.5400000000000         1.833391733436957E-008
  -79.3500000000000         2.003066761502069E-008
  -79.1600000000000         2.163200129502833E-008
  -78.9700000000000         2.261110765837095E-008
  -78.7800000000000         2.317218098372188E-008
  -78.5900000000000         2.344437218543158E-008
  -78.4000000000000         2.364974702862713E-008
  -78.2100000000000         2.358975686396556E-008
  -78.0200000000000         2.308585503236006E-008
  -77.8300000000000         2.243894090277977E-008
  -77.6400000000000         2.158377238774420E-008
  -77.4500000000000         2.077688173345930E-008
  -77.2600000000000         2.027907402153482E-008
  -77.0700000000000         2.005416581616596E-008
  -76.8800000000000         2.007109148301786E-008
  -76.6900000000000         2.036462830500253E-008
  -76.5000000000000         2.099156169463930E-008
  -76.3100000000000         2.137785726311995E-008
  -76.1200000000000         2.169224770256428E-008
  -75.9300000000000         2.123869746105763E-008
  -75.7400000000000         2.125542240697519E-008
  -75.5500000000000         2.106804685968774E-008
  -75.3600000000000         2.092551541974346E-008
  -75.1700000000000         2.062549133007109E-008
  -74.9800000000000         1.960268197835678E-008
  -74.7900000000000         1.823640095801493E-008
  -74.6000000000000         1.699827839503988E-008
  -74.4100000000000         1.604348844121723E-008
  -74.2200000000000         1.545325493064280E-008
  -74.0300000000000         1.516584561351821E-008
  -73.8400000000000         1.510207693143065E-008
  -73.6500000000000         1.539997352617305E-008
  -73.4600000000000         1.590632342922856E-008
  -73.2700000000000         1.665732259142686E-008
  -73.0800000000000         1.784780581641492E-008
  -72.8900000000000         2.027572050293317E-008
  -72.7000000000000         2.256303116710038E-008
  -72.5100000000000         2.519458171869751E-008
  -72.3200000000000         2.751446361950050E-008
  -72.1300000000000         2.909284973199289E-008
  -71.9400000000000         2.974271866546026E-008
  -71.7500000000000         3.319641446952028E-008
  -71.5600000000000         3.355977510440611E-008
  -71.3700000000000         3.392390238270375E-008
  -71.1800000000000         3.513280523257434E-008
  -70.9900000000000         3.556047940931800E-008
  -70.8000000000000         4.007273135482356E-008
  -70.6100000000000         4.023959524298302E-008
  -70.4200000000000         4.060518085960326E-008
  -70.2300000000000         4.687155532136152E-008
  -70.0400000000000         4.666805776638108E-008
  -69.8500000000000         4.726945733473909E-008
  -69.6600000000000         4.807584827092283E-008
  -69.4700000000000         4.918190459891493E-008
  -69.2800000000000         4.901248023269674E-008
  -69.0900000000000         4.909881884151598E-008
  -68.9000000000000         4.908519845940040E-008
  -68.7100000000000         4.865915259678462E-008
  -68.5200000000000         4.782861766548107E-008
  -68.3300000000000         4.679325135061470E-008
  -68.1400000000000         4.583174618050404E-008
  -67.9500000000000         4.532731215233399E-008
  -67.7600000000000         4.520542161769917E-008
  -67.5700000000000         4.597698872419768E-008
  -67.3800000000000         4.833535337589706E-008
  -67.1900000000000         5.135052425413317E-008
  -67.0000000000000         5.305270933805783E-008
  -66.8100000000000         5.678892796269353E-008
  -66.6200000000000         5.770834674853540E-008
  -66.4300000000000         5.908593794129702E-008
  -66.2400000000000         6.458774930166353E-008
  -66.0500000000000         6.529046976026773E-008
  -65.8600000000000         6.555361788388491E-008
  -65.6700000000000         6.566683681785080E-008
  -65.4800000000000         6.567184775826605E-008
  -65.2900000000000         6.543179475980391E-008
  -65.1000000000000         6.520452811596149E-008
  -64.9100000000000         6.509616713022246E-008
  -64.7200000000000         6.500540914207209E-008
  -64.5300000000000         6.481570614653879E-008
  -64.3400000000000         6.506687413464210E-008
  -64.1500000000000         6.533588487501268E-008
  -63.9600000000000         6.551801487846485E-008
  -63.7700000000000         6.564286446461360E-008
  -63.5800000000000         6.569987945109265E-008
  -63.3900000000000         6.576904989820969E-008
  -63.2000000000000         6.555170019567079E-008
  -63.0100000000000         6.542025144017925E-008
  -62.8200000000000         6.549793876550819E-008
  -62.6300000000000         6.583370761560711E-008
  -62.4400000000000         6.610200623936970E-008
  -62.2500000000000         6.620393541882804E-008
  -62.0600000000000         6.621412191462644E-008
  -61.8700000000000         6.607442188809589E-008
  -61.6800000000000         6.592342224171031E-008
  -61.4900000000000         6.606703170052643E-008
  -61.3000000000000         6.682941496166607E-008
  -61.1100000000000         6.869354005364521E-008
  -60.9200000000000         7.103360682377486E-008
  -60.7300000000000         7.335159360517923E-008
  -60.5400000000000         7.487874004831459E-008
  -60.3500000000000         7.578433236547022E-008
  -60.1600000000000         7.666203620786427E-008
  -59.9700000000000         7.774093621357653E-008
  -59.7800000000000         7.900341400000965E-008
  -59.5900000000000         8.024109473768848E-008
  -59.4000000000000         8.113232684615896E-008
  -59.2100000000000         8.160902772358687E-008
  -59.0200000000000         8.188506963499812E-008
  -58.8300000000000         8.217500334490046E-008
  -58.6400000000000         8.252460087238635E-008
  -58.4500000000000         8.336831865330635E-008
  -58.2600000000000         8.449395568670173E-008
  -58.0700000000000         8.525843730449894E-008
  -57.8800000000000         8.542384042436177E-008
  -57.6900000000000         8.590113549873318E-008
  -57.5000000000000         8.607220235484980E-008
  -57.3100000000000         8.616321815904179E-008
  -57.1200000000000         8.834529659893480E-008
  -56.9300000000000         8.966567272040559E-008
  -56.7400000000000         9.186955454869267E-008
  -56.5500000000000         9.483744325790092E-008
  -56.3600000000000         9.605531313404229E-008
  -56.1700000000000         9.834577911342879E-008
  -55.9800000000000         9.934592146389856E-008
  -55.7900000000000         1.007384705375092E-007
  -55.6000000000000         1.015613839861244E-007
  -55.4100000000000         1.016702925759426E-007
  -55.2200000000000         1.008231333950347E-007
  -55.0300000000000         9.945982093393889E-008
  -54.8400000000000         9.793363164742276E-008
  -54.6500000000000         9.673205307005409E-008
  -54.4600000000000         9.601134186874804E-008
  -54.2700000000000         9.584844197528204E-008
  -54.0800000000000         9.616211132753306E-008
  -53.8900000000000         9.684673351824425E-008
  -53.7000000000000         9.811222915571791E-008
  -53.5100000000000         1.000745767393397E-007
  -53.3200000000000         1.026041762678441E-007
  -53.1300000000000         1.058233857669716E-007
  -52.9400000000000         1.090202063852832E-007
  -52.7500000000000         1.117081230859660E-007
  -52.5600000000000         1.136984356699882E-007
  -52.3700000000000         1.159674818410417E-007
  -52.1800000000000         1.163253949872473E-007
  -51.9900000000000         1.206803991767986E-007
  -51.8000000000000         1.233367740212196E-007
  -51.6100000000000         1.251770747493197E-007
  -51.4200000000000         1.269731075696629E-007
  -51.2300000000000         1.300263875437920E-007
  -51.0400000000000         1.305478947502416E-007
  -50.8500000000000         1.329140372072389E-007
  -50.6600000000000         1.339619785280435E-007
  -50.4700000000000         1.400379056666632E-007
  -50.2800000000000         1.423021778426319E-007
  -50.0900000000000         1.444074521742098E-007
  -49.9000000000000         1.471532330269354E-007
  -49.7100000000000         1.478770088464849E-007
  -49.5200000000000         1.497979604489965E-007
  -49.3300000000000         1.501193898544653E-007
  -49.1400000000000         1.513335160186611E-007
  -48.9500000000000         1.515863003277051E-007
  -48.7600000000000         1.521985308576078E-007
  -48.5700000000000         1.526822337748581E-007
  -48.3800000000000         1.529396875512674E-007
  -48.1900000000000         1.533387075180000E-007
  -48.0000000000000         1.544834358970119E-007
  -47.8100000000000         1.568567494672727E-007
  -47.6200000000000         1.597657998922784E-007
  -47.4300000000000         1.628817980043647E-007
  -47.2400000000000         1.665079389481758E-007
  -47.0500000000000         1.690706329313961E-007
  -46.8600000000000         1.719676071331669E-007
  -46.6700000000000         1.746355757881132E-007
  -46.4800000000000         1.772007154557063E-007
  -46.2900000000000         1.797671157714438E-007
  -46.1000000000000         1.816475597599208E-007
  -45.9100000000000         1.836382196543434E-007
  -45.7200000000000         1.847402956668120E-007
  -45.5300000000000         1.850524551140192E-007
  -45.3400000000000         1.847875012383400E-007
  -45.1500000000000         1.844466829171163E-007
  -44.9600000000000         1.844512771084269E-007
  -44.7700000000000         1.846386276529839E-007
  -44.5800000000000         1.852186139919718E-007
  -44.3900000000000         1.856881733290468E-007
  -44.2000000000000         1.864815859648594E-007
  -44.0100000000000         1.868076685746258E-007
  -43.8200000000000         1.874655688740088E-007
  -43.6300000000000         1.879192418490052E-007
  -43.4400000000000         1.894306281322950E-007
  -43.2500000000000         1.903389915750546E-007
  -43.0600000000000         1.920548565368023E-007
  -42.8700000000000         1.930561994468007E-007
  -42.6800000000000         1.944903380655336E-007
  -42.4900000000000         1.950861766028664E-007
  -42.3000000000000         1.960239812002052E-007
  -42.1100000000000         1.964627540837361E-007
  -41.9200000000000         1.971195972505721E-007
  -41.7300000000000         1.975728602841474E-007
  -41.5400000000000         1.986237686760563E-007
  -41.3500000000000         1.993854183582071E-007
  -41.1600000000000         2.005660749075644E-007
  -40.9700000000000         2.013550602662741E-007
  -40.7800000000000         2.037740740878495E-007
  -40.5900000000000         2.046656636257395E-007
  -40.4000000000000         2.085069101965828E-007
  -40.2100000000000         2.093641454873759E-007
  -40.0200000000000         2.136699904594020E-007
  -39.8300000000000         2.142081219038983E-007
  -39.6400000000000         2.185211695610723E-007
  -39.4500000000000         2.188769641439672E-007
  -39.2600000000000         2.225034306632449E-007
  -39.0700000000000         2.222074167780364E-007
  -38.8800000000000         2.243228766775068E-007
  -38.6900000000000         2.244797343026478E-007
  -38.5000000000000         2.278444214228848E-007
  -38.3100000000000         2.287583048734130E-007
  -38.1200000000000         2.331360880085454E-007
  -37.9300000000000         2.343588846823423E-007
  -37.7400000000000         2.384817742575954E-007
  -37.5500000000000         2.395538298885029E-007
  -37.3600000000000         2.433557999382849E-007
  -37.1700000000000         2.446241659130248E-007
  -36.9800000000000         2.489321828527962E-007
  -36.7900000000000         2.506700792477536E-007
  -36.6000000000000         2.552141395352678E-007
  -36.4100000000000         2.565557228629202E-007
  -36.2200000000000         2.605618437930720E-007
  -36.0300000000000         2.610008118007194E-007
  -35.8400000000000         2.637286377555661E-007
  -35.6500000000000         2.638622936286362E-007
  -35.4600000000000         2.666811081147420E-007
  -35.2700000000000         2.671755386016099E-007
  -35.0800000000000         2.711565433699472E-007
  -34.8900000000000         2.718643477178895E-007
  -34.7000000000000         2.770193235296684E-007
  -34.5100000000000         2.776617322166170E-007
  -34.3200000000000         2.830151788167390E-007
  -34.1300000000000         2.837364173090787E-007
  -33.9400000000000         2.891434612232469E-007
  -33.7500000000000         2.902102354617361E-007
  -33.5600000000000         2.959013344807292E-007
  -33.3700000000000         2.963113872555965E-007
  -33.1800000000000         3.009095767238872E-007
  -32.9900000000000         3.009986034501332E-007
  -32.8000000000000         3.054085881219596E-007
  -32.6100000000000         3.055495386581294E-007
  -32.4200000000000         3.092899481338533E-007
  -32.2300000000000         3.097968237327461E-007
  -32.0400000000000         3.146304032686501E-007
  -31.8500000000000         3.155050688096738E-007
  -31.6600000000000         3.210349473016961E-007
  -31.4700000000000         3.222270053801791E-007
  -31.2800000000000         3.284067432354442E-007
  -31.0900000000000         3.297737123070374E-007
  -30.9000000000000         3.357979087776568E-007
  -30.7100000000000         3.369318108303332E-007
  -30.5200000000000         3.420307562964246E-007
  -30.3300000000000         3.429587720220322E-007
  -30.1400000000000         3.479864847658133E-007
  -29.9500000000000         3.489234602301640E-007
  -29.7600000000000         3.539939136732540E-007
  -29.5700000000000         3.545779949233763E-007
  -29.3800000000000         3.583265835713413E-007
  -29.1900000000000         3.584141388809797E-007
  -29.0000000000000         3.602194571350463E-007
  -28.8100000000000         3.603279203460492E-007
  -28.6200000000000         3.618589877127768E-007
  -28.4300000000000         3.624445821273768E-007
  -28.2400000000000         3.634489268806159E-007
  -28.0500000000000         3.642331752162079E-007
  -27.8600000000000         3.648401928383388E-007
  -27.6700000000000         3.655061962889394E-007
  -27.4800000000000         3.673744393552513E-007
  -27.2900000000000         3.688564049275308E-007
  -27.1000000000000         3.703850269480683E-007
  -26.9100000000000         3.720186042453460E-007
  -26.7200000000000         3.735427101194472E-007
  -26.5300000000000         3.745568493279638E-007
  -26.3400000000000         3.755007137955443E-007
  -26.1500000000000         3.762901233795188E-007
  -25.9600000000000         3.770066215014883E-007
  -25.7700000000000         3.778611252375961E-007
  -25.5800000000000         3.788598338934889E-007
  -25.3900000000000         3.801655228622131E-007
  -25.2000000000000         3.815275989419209E-007
  -25.0100000000000         3.829526569227604E-007
  -24.8200000000000         3.851129413003401E-007
  -24.6300000000000         3.873812534350708E-007
  -24.4400000000000         3.894373497033405E-007
  -24.2500000000000         3.916913123899294E-007
  -24.0600000000000         3.937902531684516E-007
  -23.8700000000000         3.961115393256182E-007
  -23.6800000000000         3.984607726798446E-007
  -23.4900000000000         4.004392514768878E-007
  -23.3000000000000         4.024689489555963E-007
  -23.1100000000000         4.045784594049727E-007
  -22.9200000000000         4.061905658703174E-007
  -22.7300000000000         4.072589860639473E-007
  -22.5400000000000         4.085362615753815E-007
  -22.3500000000000         4.101702731185274E-007
  -22.1600000000000         4.121418449691916E-007
  -21.9700000000000         4.145763680287769E-007
  -21.7800000000000         4.169448915476214E-007
  -21.5900000000000         4.187569366883621E-007
  -21.4000000000000         4.205157936815838E-007
  -21.2100000000000         4.223550357677534E-007
  -21.0200000000000         4.238185004324665E-007
  -20.8300000000000         4.251546300801087E-007
  -20.6400000000000         4.273144326593660E-007
  -20.4500000000000         4.287230828942127E-007
  -20.2600000000000         4.340215754566038E-007
  -20.0700000000000         4.353344946778377E-007
  -19.8800000000000         4.401511565909910E-007
  -19.6900000000000         4.428629523505560E-007
  -19.5000000000000         4.443498515808687E-007
  -19.3100000000000         4.487236426249793E-007
  -19.1200000000000         4.496283515921634E-007
  -18.9300000000000         4.540647327394405E-007
  -18.7400000000000         4.546397136671452E-007
  -18.5500000000000         4.558033447539444E-007
  -18.3600000000000         4.568396290358466E-007
  -18.1700000000000         4.615069513465196E-007
  -17.9800000000000         4.619251636412531E-007
  -17.7900000000000         4.633096376453128E-007
  -17.6000000000000         4.643936846176344E-007
  -17.4100000000000         4.646627023065699E-007
  -17.2200000000000         4.652520012564599E-007
  -17.0300000000000         4.657887715992386E-007
  -16.8400000000000         4.674456706415315E-007
  -16.6500000000000         4.678315035040068E-007
  -16.4600000000000         4.688126904433075E-007
  -16.2700000000000         4.692583736462501E-007
  -16.0800000000000         4.719144761631262E-007
  -15.8900000000000         4.731360933505736E-007
  -15.7000000000000         4.779970908315028E-007
  -15.5100000000000         4.797003077949212E-007
  -15.3200000000000         4.856907448929048E-007
  -15.1300000000000         4.871852327280473E-007
  -14.9400000000000         4.924798937958313E-007
  -14.7500000000000         4.935635366882298E-007
  -14.5600000000000         4.971011274978694E-007
  -14.3700000000000         4.986990737207389E-007
  -14.1800000000000         5.045313514052063E-007
  -13.9900000000000         5.055811751158415E-007
  -13.8000000000000         5.084913320867614E-007
  -13.6100000000000         5.094639359149944E-007
  -13.4200000000000         5.132937030478374E-007
  -13.2300000000000         5.137895159264216E-007
  -13.0400000000000         5.155305481552393E-007
  -12.8500000000000         5.166181872068601E-007
  -12.6600000000000         5.211620821319068E-007
  -12.4700000000000         5.220091890571866E-007
  -12.2800000000000         5.248229955141930E-007
  -12.0900000000000         5.258605936295369E-007
  -11.9000000000000         5.299325427122539E-007
  -11.7100000000000         5.309340803400429E-007
  -11.5200000000000         5.341940006686023E-007
  -11.3300000000000         5.355002957431929E-007
  -11.1400000000000         5.402774000824020E-007
  -10.9500000000000         5.415792997331918E-007
  -10.7600000000000         5.468120813080955E-007
  -10.5700000000000         5.486908767994880E-007
  -10.3800000000000         5.553502957857666E-007
  -10.1900000000000         5.562715251305348E-007
  -10.0000000000000         5.599717637209142E-007
  -9.81000000000000         5.612820772812738E-007
  -9.62000000000000         5.661357973558911E-007
  -9.42999999999999         5.665260102351396E-007
  -9.23999999999999         5.679328623085039E-007
  -9.05000000000000         5.690616789626039E-007
  -8.86000000000000         5.733791499540737E-007
  -8.67000000000000         5.739182160727298E-007
  -8.48000000000000         5.755046908194424E-007
  -8.28999999999999         5.764270125259888E-007
  -8.09999999999999         5.796027757298246E-007
  -7.91000000000000         5.802850565223238E-007
  -7.72000000000000         5.819047671802143E-007
  -7.53000000000000         5.830144971872401E-007
  -7.34000000000000         5.865624336767096E-007
  -7.15000000000001         5.871073477720212E-007
  -6.95999999999999         5.881749757535250E-007
  -6.77000000000000         5.886796751391947E-007
  -6.58000000000000         5.904726645003154E-007
  -6.39000000000000         5.907251908756162E-007
  -6.20000000000000         5.913430014708557E-007
  -6.01000000000001         5.923232797404099E-007
  -5.81999999999999         5.952130558902386E-007
  -5.63000000000000         5.948621808865157E-007
  -5.44000000000000         5.953506179740292E-007
  -5.25000000000000         5.973356900256802E-007
  -5.06000000000000         5.971427993594718E-007
  -4.87000000000000         5.965307151512186E-007
  -4.67999999999999         5.977856572812306E-007
  -4.48999999999999         5.999489856887527E-007
  -4.30000000000000         6.010019078949396E-007
  -4.11000000000000         6.012794196618738E-007
  -3.92000000000000         6.030174828456186E-007
  -3.73000000000000         6.009826598153229E-007
  -3.53999999999999         6.023893216523791E-007
  -3.34999999999999         6.047815341730896E-007
  -3.16000000000000         6.065265918832294E-007
  -2.97000000000000         6.058377658733772E-007
  -2.78000000000000         6.037723972571782E-007
  -2.59000000000000         6.045889478881783E-007
  -2.40000000000001         6.066313521638434E-007
  -2.20999999999999         6.056312895757855E-007
  -2.02000000000000         6.070984044066063E-007
  -1.83000000000000         6.097743466246289E-007
  -1.64000000000000         6.107251153031120E-007
  -1.45000000000000         6.113684659028911E-007
  -1.26000000000001         6.140180287226167E-007
  -1.06999999999999         6.142658084274945E-007
 -0.879999999999995         6.167007952202835E-007
 -0.689999999999998         6.200597481928611E-007
 -0.500000000000000         6.227002724847981E-007
 -0.310000000000002         6.224142707081474E-007
 -0.120000000000005         6.234290365492079E-007
  7.000000000000739E-002    6.257930874329223E-007
  0.260000000000005         6.268503853860395E-007
  0.450000000000003         6.263363238857555E-007
  0.640000000000001         6.251749028849642E-007
  0.829999999999998         6.281401403189998E-007
   1.02000000000000         6.323076270036306E-007
   1.21000000000001         6.353101407354084E-007
   1.40000000000001         6.357905921893682E-007
   1.59000000000000         6.355391462815105E-007
   1.78000000000000         6.350313142151891E-007
   1.97000000000000         6.345193128414172E-007
   2.16000000000000         6.341286195924865E-007
   2.34999999999999         6.328890895668188E-007
   2.54000000000001         6.379410499137826E-007
   2.73000000000000         6.437094646790066E-007
   2.92000000000000         6.479967497558379E-007
   3.11000000000000         6.503464969832417E-007
   3.30000000000000         6.515674264431242E-007
   3.48999999999999         6.522742119120636E-007
   3.68000000000001         6.526651058905279E-007
   3.87000000000000         6.531750681838057E-007
   4.06000000000000         6.536234357495260E-007
   4.25000000000000         6.548757006859744E-007
   4.44000000000000         6.556537047253599E-007
   4.63000000000000         6.572678221381151E-007
   4.82000000000001         6.581590114648762E-007
   5.01000000000001         6.599540837567509E-007
   5.20000000000000         6.607789128083164E-007
   5.39000000000000         6.626295993910317E-007
   5.58000000000000         6.637051686213150E-007
   5.77000000000000         6.653068374720432E-007
   5.96000000000001         6.668407657962442E-007
   6.15000000000001         6.682013215722778E-007
   6.34000000000000         6.695189963271801E-007
   6.53000000000000         6.704497779443437E-007