  -105.000000000000        -6.799879721647303E-020
  -104.810000000000        -1.875020965461258E-019
  -104.620000000000        -2.630668506603341E-019
  -104.430000000000        -2.804833798975242E-019
  -104.240000000000        -2.417799366079179E-019
  -104.050000000000        -1.644758032439072E-019
  -103.860000000000        -7.637741540389329E-020
  -103.670000000000        -7.430949521895435E-021
  -103.480000000000         1.899945522311292E-020
  -103.290000000000        -7.106577713615707E-021
  -103.100000000000        -7.958344859241239E-020
  -102.910000000000        -1.779707765343091E-019
  -102.720000000000        -2.735738339279423E-019
  -102.530000000000        -3.379217289042011E-019
  -102.340000000000        -3.511629767773028E-019
  -102.150000000000        -3.079612093893043E-019
  -101.960000000000        -2.191781763051375E-019
  -101.770000000000        -1.088486764945305E-019
  -101.580000000000        -7.315068885300852E-021
  -101.390000000000         5.749381649892026E-020
  -101.200000000000         6.810861402711027E-020
  -101.010000000000         2.254904847587923E-020
  -100.820000000000        -6.512846830392619E-020
  -100.630000000000        -1.689243140831444E-019
  -100.440000000000        -2.584368183723555E-019
  -100.250000000000        -3.076579584908938E-019
  -100.060000000000        -3.024733845487261E-019
  -99.8700000000000        -2.447000782646418E-019
  -99.6800000000000        -1.515016638335838E-019
  -99.4900000000000        -5.035791248385315E-020
  -99.3000000000000         2.895208276733767E-020
  -99.1100000000000         6.303033215414339E-020
  -98.9200000000000         4.168592927312131E-020
  -98.7300000000000        -2.907834861714047E-020
  -98.5400000000000        -1.287910388816667E-019
  -98.3500000000000        -2.284493634731382E-019
  -98.1600000000000        -2.989410500061994E-019
  -97.9700000000000        -3.194986630813061E-019
  -97.7800000000000        -2.837276986482568E-019
  -97.5900000000000        -2.014596750549858E-019
  -97.4000000000000        -9.589708550246588E-020
  -97.2100000000000         3.117582078674736E-021
  -97.0200000000000         6.775582557107113E-020
  -96.8300000000000         8.027134889562251E-020
  -96.6400000000000         3.814155549008936E-020
  -96.4500000000000        -4.521336582762648E-020
  -96.2600000000000        -1.443471696316470E-019
  -96.0700000000000        -2.292043394003455E-019
  -95.8800000000000        -2.738794322001299E-019
  -95.6900000000000        -2.641688363577888E-019
  -95.5000000000000        -2.017179913004746E-019
  -95.3100000000000        -1.035611209124507E-019
  -95.1200000000000         2.808932807997443E-021
  -94.9300000000000         8.740837159075703E-020
  -94.7400000000000         1.264589859334084E-019
  -94.5500000000000         1.092956268780464E-019
  -94.3600000000000         4.148180393399870E-020
  -94.1700000000000        -5.677659085303858E-020
  -93.9800000000000        -1.564701313304333E-019
  -93.7900000000000        -2.281922902520962E-019
  -93.6000000000000        -2.506759923122342E-019
  -93.4100000000000        -2.169777560106349E-019
  -93.2200000000000        -1.365079224699367E-019
  -93.0300000000000        -3.231505671206417E-020
  -92.8400000000000         6.558564113904242E-020
  -92.6500000000000         1.289025243664342E-019
  -92.4600000000000         1.392587838294511E-019
  -92.2700000000000         9.351791956090499E-020
  -92.0800000000000         4.708197911174878E-021
  -91.8900000000000        -1.017190388397126E-019
  -91.7000000000000        -1.952175904525662E-019
  -91.5100000000000        -2.489452392212116E-019
  -91.3200000000000        -2.474876955942768E-019
  -91.1300000000000        -1.912682699398754E-019
  -90.9400000000000        -9.636341402641777E-020
  -90.7500000000000         1.021925229443655E-020
  -90.5600000000000         9.842196016396000E-020
  -90.3700000000000         1.438799956745558E-019
  -90.1800000000000         1.349837348084779E-019
  -89.9900000000000         7.621027455739686E-020
  -89.8000000000000        -1.323803362308547E-020
  -89.6100000000000        -1.050893699504757E-019
  -89.4200000000000        -1.703099529626055E-019
  -89.2300000000000        -1.876510726182768E-019
  -89.0400000000000        -1.499498459180797E-019
  -88.8500000000000        -6.634429327384725E-020
  -88.6600000000000         4.025360856132976E-020
  -88.4700000000000         1.397047086401560E-019
  -88.2800000000000         2.033149719799839E-019
  -88.0900000000000         2.121180594805977E-019
  -87.9000000000000         1.623670346990478E-019
  -87.7100000000000         6.664821698258433E-020
  -87.5200000000000        -4.969783686124122E-020
  -87.3300000000000        -1.558069157870033E-019
  -87.1400000000000        -2.240825977017017E-019
  -86.9500000000000        -2.380130291277544E-019
  -86.7600000000000        -1.967615470330750E-019
  -86.5700000000000        -1.152116805103383E-019
  -86.3800000000000        -1.946273823166073E-020
  -86.1900000000000         6.090588254738759E-020
  -86.0000000000000         1.015409896994708E-019
  -85.8100000000000         9.044895776235598E-020
  -85.6200000000000         3.147600103107796E-020
  -85.4300000000000        -5.687231211313961E-020
  -85.2400000000000        -1.469167840145053E-019
  -85.0500000000000        -2.099868418536763E-019
  -84.8600000000000        -2.249106390904605E-019
  -84.6700000000000        -1.843394550507940E-019
  -84.4800000000000        -9.706306412855054E-020
  -84.2900000000000         1.436622071788281E-020
  -84.1000000000000         1.200250796639934E-019
  -83.9100000000000         1.911844974140566E-019
  -83.7200000000000         2.085693635072571E-019
  -83.5300000000000         1.679121848711256E-019
  -83.3400000000000         8.118042587298661E-020
  -83.1500000000000        -2.688570695192686E-020
  -82.9600000000000        -1.259208794821204E-019
  -82.7700000000000        -1.886897496794315E-019
  -82.5800000000000        -1.989078715550963E-019
  -82.3900000000000        -1.558650004283023E-019
  -82.2000000000000        -7.451990600584291E-020
  -82.0100000000000         1.895239073955455E-020
  -81.8200000000000         9.486619778987690E-020
  -81.6300000000000         1.287475024539432E-019
  -81.4400000000000         1.085391625443888E-019
  -81.2500000000000         3.819085382965438E-020
  -81.0600000000000        -6.341612942659058E-020
  -80.8700000000000        -1.679016479238172E-019
  -80.6800000000000        -2.455999043912072E-019
  -80.4900000000000        -2.741666608563970E-019
  -80.3000000000000        -2.450810603230238E-019
  -80.1100000000000        -1.661558310658217E-019
  -79.9200000000000        -5.932772295074924E-020
  -79.7300000000000         4.563385663871128E-020
  -79.5400000000000         1.196820453761595E-019
  -79.3500000000000         1.428389022986567E-019
  -79.1600000000000         1.099186742108898E-019
  -78.9700000000000         3.196875974221644E-020
  -78.7800000000000        -6.699396729072604E-020
  -78.5900000000000        -1.570089476158859E-019
  -78.4000000000000        -2.109198740554838E-019
  -78.2100000000000        -2.122991551821500E-019
  -78.0200000000000        -1.602427896811821E-019
  -77.8300000000000        -6.964446742189103E-020
  -77.6400000000000         3.312480691259185E-020
  -77.4500000000000         1.178742677703320E-019
  -77.2600000000000         1.593711379942407E-019
  -77.0700000000000         1.447029128581232E-019
  -76.8800000000000         7.709549250724027E-020
  -76.6900000000000        -2.492582637368978E-020
  -76.5000000000000        -1.328063475240439E-019
  -76.3100000000000        -2.161541043030709E-019
  -76.1200000000000        -2.514908620779414E-019
  -75.9300000000000        -2.290270608854712E-019
  -75.7400000000000        -1.554928771552016E-019
  -75.5500000000000        -5.220068090335534E-020
  -75.3600000000000         5.110041689875606E-020
  -75.1700000000000         1.247950583834752E-019
  -74.9800000000000         1.479131141066463E-019
  -74.7900000000000         1.141214461747154E-019
  -74.6000000000000         3.347252475312825E-020
  -74.4100000000000        -7.058123521881729E-020
  -74.2200000000000        -1.680300598704431E-019
  -74.0300000000000        -2.310176353653680E-019
  -73.8400000000000        -2.418945423857076E-019
  -73.6500000000000        -1.982803596161551E-019
  -73.4600000000000        -1.136686984163816E-019
  -73.2700000000000        -1.340662022891658E-020
  -73.0800000000000         7.277122758123126E-020
  -72.8900000000000         1.194703785766962E-019
  -72.7000000000000         1.130807299393279E-019
  -72.5100000000000         5.577196453539465E-020
  -72.3200000000000        -3.511972812520641E-020
  -72.1300000000000        -1.321371993480188E-019
  -71.9400000000000        -2.057190667261336E-019
  -71.7500000000000        -2.328608653607049E-019
  -71.5600000000000        -2.038987834310439E-019
  -71.3700000000000        -1.254321435201831E-019
  -71.1800000000000        -1.852148435295168E-020
  -70.9900000000000         8.732250355612113E-020
  -70.8000000000000         1.626134779989802E-019
  -70.6100000000000         1.863630726213190E-019
  -70.4200000000000         1.520938161739608E-019
  -70.2300000000000         6.965474549195270E-020
  -70.0400000000000        -3.767111194030492E-020
  -69.8500000000000        -1.399116909272267E-019
  -69.6600000000000        -2.090388044158060E-019
  -69.4700000000000        -2.269903446119479E-019
  -69.2800000000000        -1.907692755164032E-019
  -69.0900000000000        -1.131542936306796E-019
  -68.9000000000000        -1.882425363240726E-020
  -68.7100000000000         6.297264105494772E-020
  -68.5200000000000         1.070649281567032E-019
  -68.3300000000000         9.978901015706006E-020
  -68.1400000000000         4.302633068169645E-020
  -67.9500000000000        -4.633763211207570E-020
  -67.7600000000000        -1.413725483460170E-019
  -67.5700000000000        -2.130262622283039E-019
  -67.3800000000000        -2.386936264253154E-019
  -67.1900000000000        -2.089283888329919E-019
  -67.0000000000000        -1.303379977628173E-019
  -66.8100000000000        -2.381134133452223E-020
  -66.6200000000000         8.141412256325554E-020
  -66.4300000000000         1.561295585724124E-019
  -66.2400000000000         1.795485308425572E-019
  -66.0500000000000         1.452835358574740E-019
  -65.8600000000000         6.317234100082132E-020
  -65.6700000000000        -4.357445050447092E-020
  -65.4800000000000        -1.450754437966825E-019
  -65.2900000000000        -2.133857343297262E-019
  -65.1000000000000        -2.305171405261251E-019
  -64.9100000000000        -1.935549699201094E-019
  -64.7200000000000        -1.153984797275528E-019
  -64.5300000000000        -2.091611736713169E-020
  -64.3400000000000         6.037225241900707E-020
  -64.1500000000000         1.029710543326917E-019
  -63.9600000000000         9.292858769001997E-020
  -63.7700000000000         3.201034882935196E-020
  -63.5800000000000        -6.270128196683817E-020
  -63.3900000000000        -1.636790846678680E-019
  -63.2000000000000        -2.408860398422669E-019
  -63.0100000000000        -2.704690454432804E-019
  -62.8200000000000        -2.416880509637136E-019
  -62.6300000000000        -1.600752949199820E-019
  -62.4400000000000        -4.591637910040072E-020
  -62.2500000000000         7.150193307551693E-020
  -62.0600000000000         1.622144491965587E-019
  -61.8700000000000         2.040730082591131E-019
  -61.6800000000000         1.889713574358357E-019
  -61.4900000000000         1.250108519971774E-019
  -61.3000000000000         3.398676804285399E-020
  -61.1100000000000        -5.507530455001747E-020
  -60.9200000000000        -1.144592559931613E-019
  -60.7300000000000        -1.258940988308532E-019
  -60.5400000000000        -8.591727769962877E-020
  -60.3500000000000        -6.901456720251519E-021
  -60.1600000000000         8.655631403111909E-020
  -59.9700000000000         1.648335928406473E-019
  -59.7800000000000         2.019784528192058E-019
  -59.5900000000000         1.833780729995361E-019
  -59.4000000000000         1.101714898198544E-019
  -59.2100000000000        -8.846043646494849E-022
  -59.0200000000000        -1.220755162392043E-019
  -58.8300000000000        -2.225793670423527E-019
  -58.6400000000000        -2.772428571303876E-019
  -58.4500000000000        -2.737407562510403E-019
  -58.2600000000000        -2.160449583828519E-019
  -58.0700000000000        -1.232025208891683E-019
  -57.8800000000000        -2.378533693789414E-020
  -57.6900000000000         5.237384753478241E-020
  -57.5000000000000         8.276651637558405E-020
  -57.3100000000000         5.863868138616214E-020
  -57.1200000000000        -1.257970833331917E-020
  -56.9300000000000        -1.095342491627018E-019
  -56.7400000000000        -2.032300674385475E-019
  -56.5500000000000        -2.655163571335563E-019
  -56.3600000000000        -2.773113208173908E-019
  -56.1700000000000        -2.341778601948067E-019
  -55.9800000000000        -1.476233664974687E-019
  -55.7900000000000        -4.173953053708084E-020
  -55.6000000000000         5.383872925889001E-020
  -55.4100000000000         1.125953512047938E-019
  -55.2200000000000         1.188809605157453E-019
  -55.0300000000000         7.248188265984089E-020
  -54.8400000000000        -1.132141204757679E-020
  -54.6500000000000        -1.062217429844602E-019
  -54.4600000000000        -1.825784411077030E-019
  -54.2700000000000        -2.160996057162310E-019
  -54.0800000000000        -1.949860948773831E-019
  -53.8900000000000        -1.234513266406360E-019
  -53.7000000000000        -2.058170370682480E-020
  -53.5100000000000         8.514016046818355E-020
  -53.3200000000000         1.640609207333887E-019
  -53.1300000000000         1.939396704772157E-019
  -52.9400000000000         1.663940921168608E-019
  -52.7500000000000         8.933872651250979E-020
  -52.5600000000000        -1.528848464025543E-020
  -52.3700000000000        -1.178472936027894E-019
  -52.1800000000000        -1.895291288730586E-019
  -51.9900000000000        -2.106327620999504E-019
  -51.8000000000000        -1.761882596630227E-019
  -51.6100000000000        -9.730321473547963E-020
  -51.4200000000000         2.157737835144035E-021
  -51.2300000000000         9.259590140934313E-020
  -51.0400000000000         1.473596126837597E-019
  -50.8500000000000         1.505488634520879E-019
  -50.6600000000000         1.016599548436369E-019
  -50.4700000000000         1.571228699171064E-020
  -50.2800000000000        -8.117378101701079E-020
  -50.0900000000000        -1.594478444859838E-019
  -49.9000000000000        -1.948068824877159E-019
  -49.7100000000000        -1.753537113194366E-019
  -49.5200000000000        -1.051595005275234E-019
  -49.3300000000000        -3.197526137641585E-021
  -49.1400000000000         1.020468504706359E-019
  -48.9500000000000         1.807361120075027E-019
  -48.7600000000000         2.102541715075427E-019
  -48.5700000000000         1.817139942050114E-019
  -48.3800000000000         1.025143798110993E-019
  -48.1900000000000        -5.795996585940401E-021
  -48.0000000000000        -1.137296638283481E-019
  -47.8100000000000        -1.923482862569091E-019
  -47.6200000000000        -2.215701445771788E-019
  -47.4300000000000        -1.958934583753870E-019
  -47.2400000000000        -1.258819713636421E-019
  -47.0500000000000        -3.498689487314773E-020
  -46.8600000000000         4.737182727820372E-020
  -46.6700000000000         9.445982987551027E-020
  -46.4800000000000         9.010728725377421E-020
  -46.2900000000000         3.351941011456820E-020
  -46.1000000000000        -6.039006803946822E-020
  -45.9100000000000        -1.652505026311878E-019
  -45.7200000000000        -2.508409453760768E-019
  -45.5300000000000        -2.918410086435728E-019
  -45.3400000000000        -2.751836418133896E-019
  -45.1500000000000        -2.038810666536365E-019
  -44.9600000000000        -9.622554093395678E-020
  -44.7700000000000         1.939446249144830E-020
  -44.5800000000000         1.125636936697135E-019
  -44.3900000000000         1.594740727189635E-019
  -44.2000000000000         1.496444179419840E-019
  -44.0100000000000         8.879740429290199E-020
  -43.8200000000000        -2.931121560912128E-021
  -43.6300000000000        -9.693078540602962E-020
  -43.4400000000000        -1.644833459800921E-019
  -43.2500000000000        -1.851301627338258E-019
  -43.0600000000000        -1.526095225978682E-019
  -42.8700000000000        -7.663915796645974E-020
  -42.6800000000000         1.996908479340348E-020
  -42.4900000000000         1.080147371335450E-019
  -42.3000000000000         1.604763629363159E-019
  -42.1100000000000         1.604465665371348E-019
  -41.9200000000000         1.061289663088834E-019
  -41.7300000000000         1.144785386608969E-020
  -41.5400000000000        -9.790664299521118E-020
  -41.3500000000000        -1.918535509310420E-019
  -41.1600000000000        -2.445798808108632E-019
  -40.9700000000000        -2.419719896419248E-019
  -40.7800000000000        -1.856632241763048E-019
  -40.5900000000000        -9.252628761300857E-020
  -40.4000000000000         1.023581967565561E-020
  -40.2100000000000         9.297015875757117E-020
  -40.0200000000000         1.321398098749149E-019
  -39.8300000000000         1.170989100150684E-019
  -39.6400000000000         5.312332115275239E-020
  -39.4500000000000        -4.017448402139790E-020
  -39.2600000000000        -1.345872030355090E-019
  -39.0700000000000        -2.015509967085258E-019
  -38.8800000000000        -2.204920369144507E-019
  -38.6900000000000        -1.848524998428325E-019
  -38.5000000000000        -1.040343671197233E-019
  -38.3100000000000        -6.864669509310024E-022
  -38.1200000000000         9.587814506711986E-020
  -37.9300000000000         1.582126063380346E-019
  -37.7400000000000         1.687221852306913E-019
  -37.5500000000000         1.247770177937864E-019
  -37.3600000000000         3.946867977940516E-020
  -37.1700000000000        -6.219958700499094E-020
  -36.9800000000000        -1.505746847696121E-019
  -36.7900000000000        -1.999585405822649E-019
  -36.6000000000000        -1.960634935475178E-019
  -36.4100000000000        -1.401595263868869E-019
  -36.2200000000000        -4.871000593484561E-020
  -36.0300000000000         5.140287186942909E-020
  -35.8400000000000         1.306818715933758E-019
  -35.6500000000000         1.655832677773032E-019
  -35.4600000000000         1.453602440131931E-019
  -35.2700000000000         7.519282231891864E-020
  -35.0800000000000        -2.530316783109971E-020
  -34.8900000000000        -1.277535351665243E-019
  -34.7000000000000        -2.032419565758817E-019
  -34.5100000000000        -2.306823489815928E-019
  -34.3200000000000        -2.029185665992876E-019
  -34.1300000000000        -1.287787188862154E-019
  -33.9400000000000        -3.048210112102028E-020
  -33.7500000000000         6.285355004239928E-020
  -33.5600000000000         1.237178749758219E-019
  -33.3700000000000         1.342468130234890E-019
  -33.1800000000000         9.144652136941075E-020
  -32.9900000000000         8.076396199481450E-021
  -32.8000000000000        -9.106473673305602E-020
  -32.6100000000000        -1.763633862257498E-019
  -32.4200000000000        -2.220219939919501E-019
  -32.2300000000000        -2.135886901972189E-019
  -32.0400000000000        -1.522056475060975E-019
  -31.8500000000000        -5.434702732794689E-020
  -31.6600000000000         5.288233966049097E-020
  -31.4700000000000         1.395368883536536E-019
  -31.2800000000000         1.814621577122215E-019
  -31.0900000000000         1.672689782004553E-019
  -30.9000000000000         1.016212292369704E-019
  -30.7100000000000         3.873376867044237E-021
  -30.5200000000000        -9.755336242040564E-020
  -30.3300000000000        -1.734228662346379E-019
  -30.1400000000000        -2.021621763827317E-019
  -29.9500000000000        -1.760994929060156E-019
  -29.7600000000000        -1.036519568406979E-019
  -29.5700000000000        -6.833549877913312E-021
  -29.3800000000000         8.518739519287356E-020
  -29.1900000000000         1.446064207788392E-019
  -29.0000000000000         1.531009507742119E-019
  -28.8100000000000         1.071885263228508E-019
  -28.6200000000000         1.926679378073005E-020
  -28.4300000000000        -8.596828934521399E-020
  -28.2400000000000        -1.786838258837389E-019
  -28.0500000000000        -2.325652867116692E-019
  -27.8600000000000        -2.324469695687015E-019
  -27.6700000000000        -1.787027966259841E-019
  -27.4800000000000        -8.712966799323514E-020
  -27.2900000000000         1.563573089045677E-020
  -27.1000000000000         9.983556793335689E-020
  -26.9100000000000         1.412112081635794E-019
  -26.7200000000000         1.280322662347781E-019
  -26.5300000000000         6.449795576557139E-020
  -26.3400000000000        -3.048241756444181E-020
  -26.1500000000000        -1.287874895980721E-019
  -25.9600000000000        -2.012722090989406E-019
  -25.7700000000000        -2.262671955491727E-019
  -25.5800000000000        -1.959119782535143E-019
  -25.3900000000000        -1.184743305977037E-019
  -25.2000000000000        -1.597961107409910E-020
  -25.0100000000000         8.215794463940739E-020
  -24.8200000000000         1.476485004518651E-019
  -24.6300000000000         1.615148567047471E-019
  -24.4400000000000         1.195889719257614E-019
  -24.2500000000000         3.373361286682441E-020
  -24.0600000000000        -7.156020417865178E-020
  -23.8700000000000        -1.662173899908909E-019
  -23.6800000000000        -2.232312380972286E-019
  -23.4900000000000        -2.264245324929352E-019
  -23.3000000000000        -1.750759068039986E-019
  -23.1100000000000        -8.407554477086585E-020
  -22.9200000000000         2.042871411574746E-020
  -22.7300000000000         1.086250629799148E-019
  -22.5400000000000         1.556643355877655E-019
  -22.3500000000000         1.488199865979966E-019
  -22.1600000000000         9.111353457053569E-020
  -21.9700000000000         3.630969222289035E-022
  -21.7800000000000        -9.606413136439815E-020
  -21.5900000000000        -1.692720995440452E-019
  -21.4000000000000        -1.973009008574494E-019
  -21.2100000000000        -1.715757933973557E-019
  -21.0200000000000        -9.945949940496056E-020
  -20.8300000000000        -2.156094332199861E-021
  -20.6400000000000         9.143145490506612E-020
  -20.4500000000000         1.531056918227827E-019
  -20.2600000000000         1.635965182106413E-019
  -20.0700000000000         1.182126308186255E-019
  -19.8800000000000         2.828608969395104E-020
  -19.6900000000000        -8.200556550295048E-020
  -19.5000000000000        -1.825213601639899E-019
  -19.3100000000000        -2.457613129004156E-019
  -19.1200000000000        -2.547193975331074E-019
  -18.9300000000000        -2.077264538218790E-019
  -18.7400000000000        -1.188856006437476E-019
  -18.5500000000000        -1.396939141092265E-020
  -18.3600000000000         7.703937941589792E-020
  -18.1700000000000         1.286051176350606E-019
  -17.9800000000000         1.269868657749701E-019
  -17.7900000000000         7.414780058022854E-020
  -17.6000000000000        -1.290158473627895E-020
  -17.4100000000000        -1.071277698442905E-019
  -17.2200000000000        -1.793995442358748E-019
  -17.0300000000000        -2.070093030029445E-019
  -16.8400000000000        -1.803161977599772E-019
  -16.6500000000000        -1.055824572705331E-019
  -16.4600000000000        -3.176468037478076E-021
  -16.2700000000000         9.833940570654798E-020
  -16.0800000000000         1.705194202261671E-019
  -15.8900000000000         1.933236369719113E-019
  -15.7000000000000         1.609668051603904E-019
  -15.5100000000000         8.361647673642858E-020
  -15.3200000000000        -1.555803808479301E-020
  -15.1300000000000        -1.071248288910218E-019
  -14.9400000000000        -1.639522832604290E-019
  -14.7500000000000        -1.691070896380555E-019
  -14.5600000000000        -1.207978969686901E-019
  -14.3700000000000        -3.293183327716976E-020
  -14.1800000000000         6.888233159886431E-020
  -13.9900000000000         1.547346269621987E-019
  -13.8000000000000         1.990796144435127E-019
  -13.6100000000000         1.881543377178848E-019
  -13.4200000000000         1.239876719009530E-019
  -13.2300000000000         2.382539958404193E-020
  -13.0400000000000        -8.486801918511957E-020
  -12.8500000000000        -1.723750031375871E-019
  -12.6600000000000        -2.153336647723687E-019
  -12.4700000000000        -2.034803851552006E-019
  -12.2800000000000        -1.425652550945364E-019
  -12.0900000000000        -5.259929630383243E-020
  -11.9000000000000         3.804580462743583E-020
  -11.7100000000000         1.009603523760320E-019
  -11.5200000000000         1.160182167428690E-019
  -11.3300000000000         7.727782484675910E-020
  -11.1400000000000        -5.254353214266263E-021
  -10.9500000000000        -1.085128219007240E-019
  -10.7600000000000        -2.030738118109411E-019
  -10.5700000000000        -2.617146588355247E-019
  -10.3800000000000        -2.673378736145006E-019
  -10.1900000000000        -2.179544666309100E-019
  -10.0000000000000        -1.272815732031610E-019
  -9.81000000000000        -2.078750399961648E-020
  -9.62000000000000         7.166275844407903E-020
  -9.42999999999999         1.244291171518985E-019
  -9.23999999999999         1.234895110098777E-019
  -9.05000000000000         7.046252891113564E-020
  -8.86000000000000        -1.791065648584394E-020
  -8.67000000000000        -1.146785595599813E-019
  -8.48000000000000        -1.905592708357360E-019
  -8.28999999999999        -2.224937441334005E-019
  -8.09999999999999        -2.003788675059650E-019
  -7.91000000000000        -1.300167448687269E-019
  -7.72000000000000        -3.142364479754281E-020
  -7.53000000000000         6.700091048475801E-020
  -7.34000000000000         1.367410085446313E-019
  -7.15000000000001         1.574648589931171E-019
  -6.95999999999999         1.229578279770341E-019
  -6.77000000000000         4.297830162778057E-020
  -6.58000000000000        -5.949523167984505E-020
  -6.39000000000000        -1.548321648937526E-019
  -6.20000000000000        -2.152439930552320E-019
  -6.01000000000001        -2.227601523148672E-019
  -5.81999999999999        -1.743845527829996E-019
  -5.63000000000000        -8.294212186533928E-020
  -5.44000000000000         2.662698304528004E-020
  -5.25000000000000         1.244475076732456E-019
  -5.06000000000000         1.842823814711787E-019
  -4.87000000000000         1.910214286801536E-019
  -4.67999999999999         1.449280461608699E-019
  -4.48999999999999         6.142853125460289E-020
  -4.30000000000000        -3.348098426126108E-020
  -4.11000000000000        -1.108705984382203E-019
  -3.92000000000000        -1.473402197400037E-019
  -3.73000000000000        -1.318566738791841E-019
  -3.53999999999999        -6.898027553769735E-020
  -3.34999999999999         2.245570948408893E-020
  -3.16000000000000         1.148275017696735E-019
  -2.97000000000000         1.797706626198277E-019
  -2.78000000000000         1.964581021364711E-019
  -2.59000000000000         1.577027070256411E-019
  -2.40000000000001         7.211660598842088E-020
  -2.20999999999999        -3.829340016025232E-020
  -2.02000000000000        -1.443953721152272E-019
  -1.83000000000000        -2.182589181518042E-019
  -1.64000000000000        -2.411428550247988E-019
  -1.45000000000000        -2.088419659552053E-019
  -1.26000000000001        -1.328450233851114E-019
  -1.06999999999999        -3.696122993585333E-020
 -0.879999999999995         4.961591204150266E-020
 -0.689999999999998         1.007999113912986E-019
 -0.500000000000000         1.011910862795575E-019
 -0.310000000000002         5.053920238459917E-020
 -0.120000000000005        -3.620732950670748E-020
  7.000000000000739E-002   -1.332745054853811E-019
  0.260000000000005        -2.115824660573736E-019
  0.450000000000003        -2.472263398229633E-019
  0.640000000000001        -2.284556404789026E-019
  0.829999999999998        -1.591256988359402E-019
   1.02000000000000        -5.761861670504221E-020
   1.21000000000001         4.845499829992246E-020
   1.40000000000001         1.302386037504221E-019
   1.59000000000000         1.659784834500283E-019
   1.78000000000000         1.473063685321550E-019
   1.97000000000000         8.162040808709843E-020
   2.16000000000000        -1.013198869227120E-020
   2.34999999999999        -9.962094631443390E-020
   2.54000000000001        -1.594486160825716E-019
   2.73000000000000        -1.711845614415617E-019
   2.92000000000000        -1.307796290781837E-019
   3.11000000000000        -4.978147158890755E-020
   3.30000000000000         4.800631990339022E-020
   3.48999999999999         1.334606054727393E-019
   3.68000000000001         1.806638991892753E-019
   3.87000000000000         1.745375983882499E-019
   4.06000000000000         1.153470958435289E-019
   4.25000000000000         1.874669810611802E-020
   4.44000000000000        -8.866617199775111E-020
   4.63000000000000        -1.770032285273109E-019
   4.82000000000001        -2.217182797754670E-019
   5.01000000000001        -2.107045966639159E-019
   5.20000000000000        -1.477886097761222E-019
   5.39000000000000        -5.160500888885811E-020
   5.58000000000000         4.981741282426204E-020
   5.77000000000000         1.271863119965100E-019
   5.96000000000001         1.584332370621417E-019
   6.15000000000001         1.350949488843281E-019
   6.34000000000000         6.473653990399416E-020
   6.53000000000000        -3.128821888006315E-020