  -105.000000000000         0.000000000000000E+000
  -104.810000000000         1.964317524597096E-020
  -104.620000000000         5.416473042713014E-020
  -104.430000000000         9.563669826666996E-020
  -104.240000000000         1.351894577047685E-019
  -104.050000000000         1.654809542111330E-019
  -103.860000000000         1.827024559635904E-019
  -103.670000000000         1.875445020013991E-019
  -103.480000000000         1.848490718254775E-019
  -103.290000000000         1.820560272660758E-019
  -103.100000000000         1.869019869056466E-019
  -102.910000000000         2.050457229356738E-019
  -102.720000000000         2.383133549752849E-019
  -102.530000000000         2.840744560208111E-019
  -102.340000000000         3.359306064606934E-019
  -102.150000000000         3.855167755627763E-019
  -101.960000000000         4.248930020157265E-019
  -101.770000000000         4.488319492567769E-019
  -101.580000000000         4.563367112040245E-019
  -101.390000000000         4.509450970278868E-019
  -101.200000000000         4.397281442738074E-019
  -101.010000000000         4.312701506040481E-019
  -100.820000000000         4.332142496875357E-019
  -100.630000000000         4.500842167923867E-019
  -100.440000000000         4.820124986776344E-019
  -100.250000000000         5.247404692835584E-019
  -100.060000000000         5.708873877380212E-019
  -99.8700000000000         6.121173260922538E-019
  -99.6800000000000         6.415745606111326E-019
  -99.4900000000000         6.558815674703138E-019
  -99.3000000000000         6.561211294524021E-019
  -99.1100000000000         6.475183172989564E-019
  -98.9200000000000         6.379148594204520E-019
  -98.7300000000000         6.354791671855351E-019
  -98.5400000000000         6.463180706240604E-019
  -98.3500000000000         6.726855262083915E-019
  -98.1600000000000         7.123099869322147E-019
  -97.9700000000000         7.590363118527327E-019
  -97.7800000000000         8.045954149499514E-019
  -97.5900000000000         8.409871578979104E-019
  -97.4000000000000         8.627845280794437E-019
  -97.2100000000000         8.686908014439469E-019
  -97.0200000000000         8.618985049794025E-019
  -96.8300000000000         8.491464067278775E-019
  -96.6400000000000         8.387482935079921E-019
  -96.4500000000000         8.381660313390127E-019
  -96.2600000000000         8.518325136171518E-019
  -96.0700000000000         8.798581606408301E-019
  -95.8800000000000         9.179978305962502E-019
  -95.6900000000000         9.588879109291554E-019
  -95.5000000000000         9.941933067804287E-019
  -95.3100000000000         1.017039343258793E-018
  -95.1200000000000         1.024021298311564E-018
  -94.9300000000000         1.016207579677968E-018
  -94.7400000000000         9.988447987199248E-019
  -94.5500000000000         9.798492404356389E-019
  -94.3600000000000         9.675210019846109E-019
  -94.1700000000000         9.681430547998655E-019
  -93.9800000000000         9.841621660871898E-019
  -93.7900000000000         1.013481192650693E-018
  -93.6000000000000         1.050070345547796E-018
  -93.4100000000000         1.085721671738494E-018
  -93.2200000000000         1.112438098948816E-018
  -93.0300000000000         1.124763613554163E-018
  -92.8400000000000         1.121378508603364E-018
  -92.6500000000000         1.105497433198231E-018
  -92.4600000000000         1.083955104127852E-018
  -92.2700000000000         1.065243886186162E-018
  -92.0800000000000         1.057069625853706E-018
  -91.8900000000000         1.064130757269392E-018
  -91.7000000000000         1.086761452682567E-018
  -91.5100000000000         1.120830767037845E-018
  -91.3200000000000         1.158927202674164E-018
  -91.1300000000000         1.192485973946880E-018
  -90.9400000000000         1.214242509562782E-018
  -90.7500000000000         1.220300771840164E-018
  -90.5600000000000         1.211217206126373E-018
  -90.3700000000000         1.191788050577437E-018
  -90.1800000000000         1.169605380225601E-018
  -89.9900000000000         1.152805201947449E-018
  -89.8000000000000         1.147665044697270E-018
  -89.6100000000000         1.156751423155378E-018
  -89.4200000000000         1.178157554347844E-018
  -89.2300000000000         1.206055261905296E-018
  -89.0400000000000         1.232403317306050E-018
  -88.8500000000000         1.249317750629232E-018
  -88.6600000000000         1.251415746600773E-018
  -88.4700000000000         1.237450600588528E-018
  -88.2800000000000         1.210759840514242E-018
  -88.0900000000000         1.178392699920799E-018
  -87.9000000000000         1.149166093096990E-018
  -87.7100000000000         1.131208176240222E-018
  -87.5200000000000         1.129695625206161E-018
  -87.3300000000000         1.145433286735427E-018
  -87.1400000000000         1.174680597744638E-018
  -86.9500000000000         1.210269180258402E-018
  -86.7600000000000         1.243684063274719E-018
  -86.5700000000000         1.267504022991366E-018
  -86.3800000000000         1.277494411593255E-018
  -86.1900000000000         1.273748456498950E-018
  -86.0000000000000         1.260551226542582E-018
  -85.8100000000000         1.245013625352170E-018
  -85.6200000000000         1.234882677625992E-018
  -85.4300000000000         1.236173712088487E-018
  -85.2400000000000         1.251320096966613E-018
  -85.0500000000000         1.278383297853665E-018
  -84.8600000000000         1.311555838079849E-018
  -84.6700000000000         1.342813002546312E-018
  -84.4800000000000         1.364234912073386E-018
  -84.2900000000000         1.370324947218362E-018
  -84.1000000000000         1.359649540537155E-018
  -83.9100000000000         1.335318834085975E-018
  -83.7200000000000         1.304162458422383E-018
  -83.5300000000000         1.274833456391582E-018
  -83.3400000000000         1.255385899670101E-018
  -83.1500000000000         1.251026139242706E-018
  -82.9600000000000         1.262687995182125E-018
  -82.7700000000000         1.286842706275602E-018
  -82.5800000000000         1.316595356103912E-018
  -82.3900000000000         1.343745974054346E-018
  -82.2000000000000         1.361214291631215E-018
  -82.0100000000000         1.365122689926486E-018
  -81.8200000000000         1.355931837213544E-018
  -81.6300000000000         1.338298840963789E-018
  -81.4400000000000         1.319699059100647E-018
  -81.2500000000000         1.308212726935589E-018
  -81.0600000000000         1.310121644321995E-018
  -80.8700000000000         1.328017763489021E-018
  -80.6800000000000         1.359977421029867E-018
  -80.4900000000000         1.400045075560702E-018
  -80.3000000000000         1.439889459708032E-018
  -80.1100000000000         1.471154442064999E-018
  -79.9200000000000         1.487825515933257E-018
  -79.7300000000000         1.487928389970994E-018
  -79.5400000000000         1.474069213723195E-018
  -79.3500000000000         1.452660480129064E-018
  -79.1600000000000         1.432056288649200E-018
  -78.9700000000000         1.420136236300704E-018
  -78.7800000000000         1.422037489904821E-018
  -78.5900000000000         1.438692353066682E-018
  -78.4000000000000         1.466595007145133E-018
  -78.2100000000000         1.498863467372190E-018
  -78.0200000000000         1.527285595179939E-018
  -77.8300000000000         1.544751686852928E-018
  -77.6400000000000         1.547364191136962E-018
  -77.4500000000000         1.535609529709129E-018
  -77.2600000000000         1.514249594045783E-018
  -77.0700000000000         1.490961836161733E-018
  -76.8800000000000         1.474119849145186E-018
  -76.6900000000000         1.470356750553068E-018
  -76.5000000000000         1.482619304502194E-018
  -76.3100000000000         1.509281600686740E-018
  -76.1200000000000         1.544582000481356E-018
  -75.9300000000000         1.580263372354408E-018
  -75.7400000000000         1.607945814426530E-018
  -75.5500000000000         1.621546073111403E-018
  -75.3600000000000         1.619042415535685E-018
  -75.1700000000000         1.603072694263323E-018
  -74.9800000000000         1.580191205450168E-018
  -74.7900000000000         1.558997757654920E-018
  -74.6000000000000         1.547677621295268E-018
  -74.4100000000000         1.551660283207908E-018
  -74.2200000000000         1.572070059639206E-018
  -74.0300000000000         1.605413012126128E-018
  -73.8400000000000         1.644588060388863E-018
  -73.6500000000000         1.680928252783438E-018
  -73.4600000000000         1.706681067063039E-018
  -73.2700000000000         1.717210650446248E-018
  -73.0800000000000         1.712286973281997E-018
  -72.8900000000000         1.696093071174800E-018
  -72.7000000000000         1.675954039409060E-018
  -72.5100000000000         1.660161681920538E-018
  -72.3200000000000         1.655529536459387E-018
  -72.1300000000000         1.665389555116177E-018
  -71.9400000000000         1.688612586220927E-018
  -71.7500000000000         1.719937573790547E-018
  -71.5600000000000         1.751514637123790E-018
  -71.3700000000000         1.775214243650861E-018
  -71.1800000000000         1.785030819675443E-018
  -70.9900000000000         1.778880126367902E-018
  -70.8000000000000         1.759264933630192E-018
  -70.6100000000000         1.732612259085879E-018
  -70.4200000000000         1.707471544632337E-018
  -70.2300000000000         1.692093626856808E-018
  -70.0400000000000         1.692089080627652E-018
  -69.8500000000000         1.708840437050886E-018
  -69.6600000000000         1.739124160615378E-018
  -69.4700000000000         1.776049108278016E-018
  -69.2800000000000         1.811039046649070E-018
  -69.0900000000000         1.836286287175174E-018
  -68.9000000000000         1.846967970668248E-018
  -68.7100000000000         1.842585591829220E-018
  -68.5200000000000         1.827042924860331E-018
  -68.3300000000000         1.807444437956294E-018
  -68.1400000000000         1.791968811216768E-018
  -67.9500000000000         1.787441025436183E-018
  -67.7600000000000         1.797312666601322E-018
  -67.5700000000000         1.820638861997482E-018
  -67.3800000000000         1.852348213549905E-018
  -67.1900000000000         1.884725304006793E-018
  -67.0000000000000         1.909673421703614E-018
  -66.8100000000000         1.921099402508958E-018
  -66.6200000000000         1.916727330800892E-018
  -66.4300000000000         1.898812957676272E-018
  -66.2400000000000         1.873548604890812E-018
  -66.0500000000000         1.849327654465885E-018
  -65.8600000000000         1.834368779921845E-018
  -65.6700000000000         1.834386339578108E-018
  -65.4800000000000         1.850980114948791E-018
  -65.2900000000000         1.881208545909336E-018
  -65.1000000000000         1.918465920173593E-018
  -64.9100000000000         1.954405964399227E-018
  -64.7200000000000         1.981351859412308E-018
  -64.5300000000000         1.994493195344021E-018
  -64.3400000000000         1.993233575899752E-018
  -64.1500000000000         1.981299890616060E-018
  -63.9600000000000         1.965584381082490E-018
  -63.7700000000000         1.954059521029634E-018
  -63.5800000000000         1.953376150979292E-018
  -63.3900000000000         1.966847962779899E-018
  -63.2000000000000         1.993412747704639E-018
  -63.0100000000000         2.027875585212091E-018
  -62.8200000000000         2.062365045197213E-018
  -62.6300000000000         2.088580228029361E-018
  -62.4400000000000         2.100177028409057E-018
  -62.2500000000000         2.094602219092581E-018
  -62.0600000000000         2.073844129915430E-018
  -61.8700000000000         2.043881887515462E-018
  -61.6800000000000         2.012991187897920E-018
  -61.4900000000000         1.989395415382993E-018
  -61.3000000000000         1.978941141758341E-018
  -61.1100000000000         1.983470937135839E-018
  -60.9200000000000         2.000364589777765E-018
  -60.7300000000000         2.023380014748506E-018
  -60.5400000000000         2.044546349585159E-018
  -60.3500000000000         2.056555263337864E-018
  -60.1600000000000         2.054952314638232E-018
  -59.9700000000000         2.039489931325648E-018
  -59.7800000000000         2.014248773311843E-018
  -59.5900000000000         1.986492648320380E-018
  -59.4000000000000         1.964589558772795E-018
  -59.2100000000000         1.955602010673423E-018
  -59.0200000000000         1.963245907551611E-018
  -58.8300000000000         1.986811481536084E-018
  -58.6400000000000         2.021361645479275E-018
  -58.4500000000000         2.059152543076908E-018
  -58.2600000000000         2.091865299987059E-018
  -58.0700000000000         2.113001052310897E-018
  -57.8800000000000         2.119743004477332E-018
  -57.6900000000000         2.113744061527941E-018
  -57.5000000000000         2.100611243502612E-018
  -57.3100000000000         2.088237054196210E-018
  -57.1200000000000         2.084462749684783E-018
  -56.9300000000000         2.094752196974693E-018
  -56.7400000000000         2.120552152800009E-018
  -56.5500000000000         2.158816247734800E-018
  -56.3600000000000         2.202832787307628E-018
  -56.1700000000000         2.244118009439288E-018
  -55.9800000000000         2.274826553963344E-018
  -55.7900000000000         2.289980103441231E-018
  -55.6000000000000         2.288867872497886E-018
  -55.4100000000000         2.275213733817762E-018
  -55.2200000000000         2.256063639570854E-018
  -55.0300000000000         2.239718480206573E-018
  -54.8400000000000         2.233313528421686E-018
  -54.6500000000000         2.240746835466640E-018
  -54.4600000000000         2.261557046461513E-018
  -54.2700000000000         2.291075941192495E-018
  -54.0800000000000         2.321811763560129E-018
  -53.8900000000000         2.345662158949922E-018
  -53.7000000000000         2.356313398127706E-018
  -53.5100000000000         2.351126390206202E-018
  -53.3200000000000         2.331957501097241E-018
  -53.1300000000000         2.304671562588374E-018
  -52.9400000000000         2.277485520397159E-018
  -52.7500000000000         2.258622095870217E-018
  -52.5600000000000         2.253953768109662E-018
  -52.3700000000000         2.265320044548215E-018
  -52.1800000000000         2.290005378592864E-018
  -51.9900000000000         2.321528798572289E-018
  -51.8000000000000         2.351517000800607E-018
  -51.6100000000000         2.372119518441205E-018
  -51.4200000000000         2.378267479537460E-018
  -51.2300000000000         2.369121998155098E-018
  -51.0400000000000         2.348292469806180E-018
  -50.8500000000000         2.322761922892648E-018
  -50.6600000000000         2.300832607259693E-018
  -50.4700000000000         2.289690330105141E-018
  -50.2800000000000         2.293296965584524E-018
  -50.0900000000000         2.311224519934772E-018
  -49.9000000000000         2.338769620127116E-018
  -49.7100000000000         2.368315067974278E-018
  -49.5200000000000         2.391543602291625E-018
  -49.3300000000000         2.401862465403391E-018
  -49.1400000000000         2.396336362826259E-018
  -48.9500000000000         2.376568334258381E-018
  -48.7600000000000         2.348272154629414E-018
  -48.5700000000000         2.319658574351984E-018
  -48.3800000000000         2.299101509754934E-018
  -48.1900000000000         2.292759262266603E-018
  -48.0000000000000         2.302838736352465E-018
  -47.8100000000000         2.327003454800610E-018
  -47.6200000000000         2.359093819835137E-018
  -47.4300000000000         2.390947724570594E-018
  -47.2400000000000         2.414791628441167E-018
  -47.0500000000000         2.425508047460044E-018
  -46.8600000000000         2.422121891247233E-018
  -46.6700000000000         2.408074418100962E-018
  -46.4800000000000         2.390204717844475E-018
  -46.2900000000000         2.376733757025576E-018
  -46.1000000000000         2.374836827017166E-018
  -45.9100000000000         2.388511568047056E-018
  -45.7200000000000         2.417363897246138E-018
  -45.5300000000000         2.456667036033668E-018
  -45.3400000000000         2.498677611219179E-018
  -45.1500000000000         2.534826581108198E-018
  -44.9600000000000         2.558148763669831E-018
  -44.7700000000000         2.565246711193625E-018
  -44.5800000000000         2.557221323869902E-018
  -44.3900000000000         2.539302035809152E-018
  -44.2000000000000         2.519286175498960E-018
  -44.0100000000000         2.505241810077539E-018
  -43.8200000000000         2.503142034273627E-018
  -43.6300000000000         2.515119251960919E-018
  -43.4400000000000         2.538848652474763E-018
  -43.2500000000000         2.568241988608972E-018
  -43.0600000000000         2.595250937590392E-018
  -42.8700000000000         2.612255201296154E-018
  -42.6800000000000         2.614339215230212E-018
  -42.4900000000000         2.600793205688730E-018
  -42.3000000000000         2.575399645413752E-018
  -42.1100000000000         2.545418592770689E-018
  -41.9200000000000         2.519562401629199E-018
  -41.7300000000000         2.505542998079517E-018
  -41.5400000000000         2.507899028595804E-018
  -41.3500000000000         2.526729847478208E-018
  -41.1600000000000         2.557701488106619E-018
  -40.9700000000000         2.593321759270275E-018
  -40.7800000000000         2.625113784276575E-018
  -40.5900000000000         2.646056765487321E-018
  -40.4000000000000         2.652585930538523E-018
  -40.2100000000000         2.645573000026819E-018
  -40.0200000000000         2.630005879249269E-018
  -39.8300000000000         2.613464606600332E-018
  -39.6400000000000         2.603840061271458E-018
  -39.4500000000000         2.606961612376201E-018
  -39.2600000000000         2.624826543104762E-018
  -39.0700000000000         2.654950061111810E-018
  -38.8800000000000         2.691029825737605E-018
  -38.6900000000000         2.724736370204015E-018
  -38.5000000000000         2.748111298320100E-018
  -38.3100000000000         2.755875477540561E-018
  -38.1200000000000         2.746973443817961E-018
  -37.9300000000000         2.724901659564298E-018
  -37.7400000000000         2.696722318212842E-018
  -37.5500000000000         2.671047116844250E-018
  -37.3600000000000         2.655574747611744E-018
  -37.1700000000000         2.654894889230697E-018
  -36.9800000000000         2.669193851976596E-018
  -36.7900000000000         2.694236388475055E-018
  -36.6000000000000         2.722629943404839E-018
  -36.4100000000000         2.746007175400482E-018
  -36.2200000000000         2.757496178478619E-018
  -36.0300000000000         2.753762697378571E-018
  -35.8400000000000         2.736030410256946E-018
  -35.6500000000000         2.709779942560526E-018
  -35.4600000000000         2.683209965901308E-018
  -35.2700000000000         2.664903209423556E-018
  -35.0800000000000         2.661371206871528E-018
  -34.8900000000000         2.675186660628220E-018
  -34.7000000000000         2.704241863684216E-018
  -34.5100000000000         2.742345926907941E-018
  -34.3200000000000         2.780987134238730E-018
  -34.1300000000000         2.811751029586419E-018
  -33.9400000000000         2.828696386448650E-018
  -33.7500000000000         2.830004119844519E-018
  -33.5600000000000         2.818424829755547E-018
  -33.3700000000000         2.800398723153641E-018
  -33.1800000000000         2.784106832120826E-018
  -32.9900000000000         2.777022707395905E-018
  -32.8000000000000         2.783678409977003E-018
  -32.6100000000000         2.804295609159003E-018
  -32.4200000000000         2.834680772468960E-018
  -32.2300000000000         2.867416301667473E-018
  -32.0400000000000         2.894003487550351E-018
  -31.8500000000000         2.907336960836967E-018
  -31.6600000000000         2.903793410776563E-018
  -31.4700000000000         2.884327579787893E-018
  -31.2800000000000         2.854254623476230E-018
  -31.0900000000000         2.821778012861845E-018
  -30.9000000000000         2.795686332286963E-018
  -30.7100000000000         2.782884105740380E-018
  -30.5200000000000         2.786469997431841E-018
  -30.3300000000000         2.804916152086815E-018
  -30.1400000000000         2.832582006311703E-018
  -29.9500000000000         2.861408678265733E-018
  -29.7600000000000         2.883299147734592E-018
  -29.5700000000000         2.892493307031164E-018
  -29.3800000000000         2.887250853694810E-018
  -29.1900000000000         2.870356441065552E-018
  -29.0000000000000         2.848302267817940E-018
  -28.8100000000000         2.829385802212615E-018
  -28.6200000000000         2.821274696182350E-018
  -28.4300000000000         2.828746118591629E-018
  -28.2400000000000         2.852258038991023E-018
  -28.0500000000000         2.887768836392434E-018
  -27.8600000000000         2.927858585180455E-018
  -27.6700000000000         2.963826681224810E-018
  -27.4800000000000         2.988157278669206E-018
  -27.2900000000000         2.996638731312963E-018
  -27.1000000000000         2.989525446048872E-018
  -26.9100000000000         2.971409487287869E-018
  -26.7200000000000         2.949843522132605E-018
  -26.5300000000000         2.933117894817459E-018
  -26.3400000000000         2.927838673479466E-018
  -26.1500000000000         2.937010301962797E-018
  -25.9600000000000         2.959179452517142E-018
  -25.7700000000000         2.988887715637151E-018
  -25.5800000000000         3.018299248914092E-018
  -25.3900000000000         3.039526900200986E-018
  -25.2000000000000         3.046976961081606E-018
  -25.0100000000000         3.039027763690236E-018
  -24.8200000000000         3.018551743442478E-018
  -24.6300000000000         2.992127278796260E-018
  -24.4400000000000         2.968167393898535E-018
  -24.2500000000000         2.954506852028549E-018
  -24.0600000000000         2.956146724964752E-018
  -23.8700000000000         2.973810914818005E-018
  -23.6800000000000         3.003734697585575E-018
  -23.4900000000000         3.038748221103593E-018
  -23.3000000000000         3.070341523191583E-018
  -23.1100000000000         3.091112023667317E-018
  -22.9200000000000         3.096884329709043E-018
  -22.7300000000000         3.087888184953733E-018
  -22.5400000000000         3.068655242490868E-018
  -22.3500000000000         3.046668187246474E-018
  -22.1600000000000         3.030157411425404E-018
  -21.9700000000000         3.025686291065234E-018
  -21.7800000000000         3.036226105841185E-018
  -21.5900000000000         3.060279258849279E-018
  -21.4000000000000         3.092305662239582E-018
  -21.2100000000000         3.124329198372413E-018
  -21.0200000000000         3.148258114352576E-018
  -20.8300000000000         3.158244690919973E-018
  -20.6400000000000         3.152396919444860E-018
  -20.4500000000000         3.133343022067337E-018
  -20.2600000000000         3.107484088691628E-018
  -20.0700000000000         3.083152642691082E-018
  -19.8800000000000         3.068213172483402E-018
  -19.6900000000000         3.067801976854993E-018
  -19.5000000000000         3.082862047817915E-018
  -19.3100000000000         3.109897113835872E-018
  -19.1200000000000         3.142014994891175E-018
  -18.9300000000000         3.170956540997571E-018
  -18.7400000000000         3.189520348516192E-018
  -18.5500000000000         3.193677684914324E-018
  -18.3600000000000         3.183760764345784E-018
  -18.1700000000000         3.164376077141592E-018
  -17.9800000000000         3.143065316873980E-018
  -17.7900000000000         3.128101305029640E-018
  -17.6000000000000         3.126058526332461E-018
  -17.4100000000000         3.139863980450789E-018
  -17.2200000000000         3.167895049029664E-018
  -17.0300000000000         3.204387855219560E-018
  -16.8400000000000         3.241040586967422E-018
  -16.6500000000000         3.269351062482724E-018
  -16.4600000000000         3.283015547221084E-018
  -16.2700000000000         3.279697564879371E-018
  -16.0800000000000         3.261657102738255E-018
  -15.8900000000000         3.235060384777648E-018
  -15.7000000000000         3.208172813080393E-018
  -15.5100000000000         3.188961371580325E-018
  -15.3200000000000         3.182803196123196E-018
  -15.1300000000000         3.190964298659768E-018
  -14.9400000000000         3.210286503383841E-018
  -14.7500000000000         3.234168335634445E-018
  -14.5600000000000         3.254550073202731E-018
  -14.3700000000000         3.264322917259958E-018
  -14.1800000000000         3.259460197294886E-018
  -13.9900000000000         3.240249428569623E-018
  -13.8000000000000         3.211264780419078E-018
  -13.6100000000000         3.180085261339829E-018
  -13.4200000000000         3.155129240442179E-018
  -13.2300000000000         3.143234755123403E-018
  -13.0400000000000         3.147691134742780E-018
  -12.8500000000000         3.167297216406400E-018
  -12.6600000000000         3.196722314786286E-018
  -12.4700000000000         3.228066104896808E-018
  -12.2800000000000         3.253164300288505E-018
  -12.0900000000000         3.265970202148796E-018
  -11.9000000000000         3.264320325966319E-018
  -11.7100000000000         3.250571019841781E-018
  -11.5200000000000         3.230919939795334E-018
  -11.3300000000000         3.213606858960532E-018
  -11.1400000000000         3.206513096369806E-018
  -10.9500000000000         3.214854181330196E-018
  -10.7600000000000         3.239634755355100E-018
  -10.5700000000000         3.277314591328043E-018
  -10.3800000000000         3.320783566532841E-018
  -10.1900000000000         3.361363734127441E-018
  -10.0000000000000         3.391258939779821E-018
  -9.81000000000000         3.405743351812557E-018
  -9.62000000000000         3.404457121754262E-018
  -9.42999999999999         3.391437226962840E-018
  -9.23999999999999         3.373878441198551E-018
  -9.05000000000000         3.359987249406748E-018
  -8.86000000000000         3.356554491489944E-018
  -8.67000000000000         3.366954401788409E-018
  -8.48000000000000         3.390153921185497E-018
  -8.28999999999999         3.421021842966399E-018
  -8.09999999999999         3.451847892011114E-018
  -7.91000000000000         3.474628008701201E-018
  -7.72000000000000         3.483447670888374E-018
  -7.53000000000000         3.476266055577730E-018
  -7.34000000000000         3.455578442269650E-018
  -7.15000000000001         3.427760610440070E-018
  -6.95999999999999         3.401281536762187E-018
  -6.77000000000000         3.384298880668042E-018
  -6.58000000000000         3.382331309432150E-018
  -6.39000000000000         3.396680930950954E-018
  -6.20000000000000         3.424063542999187E-018
  -6.01000000000001         3.457555662127481E-018
  -5.81999999999999         3.488585641017018E-018
  -5.63000000000000         3.509392344829527E-018
  -5.44000000000000         3.515238234887821E-018
  -5.25000000000000         3.505735318188676E-018
  -5.06000000000000         3.484901520412030E-018
  -4.87000000000000         3.459935228630366E-018
  -4.67999999999999         3.439068463071746E-018
  -4.48999999999999         3.429125971188449E-018
  -4.30000000000000         3.433501643519578E-018
  -4.11000000000000         3.451141645109276E-018
  -3.92000000000000         3.476831630804472E-018
  -3.73000000000000         3.502707636884791E-018
  -3.53999999999999         3.520555068828778E-018
  -3.34999999999999         3.524230078656239E-018
  -3.16000000000000         3.511499959404995E-018
  -2.97000000000000         3.484765887608442E-018
  -2.78000000000000         3.450454463613240E-018
  -2.59000000000000         3.417250164356905E-018
  -2.40000000000001         3.393676743071020E-018
  -2.20999999999999         3.385723889190550E-018
  -2.02000000000000         3.395201567511108E-018
  -1.83000000000000         3.419293214886644E-018
  -1.64000000000000         3.451432217277285E-018
  -1.45000000000000         3.483243890559315E-018
  -1.26000000000001         3.506987502852395E-018
  -1.06999999999999         3.517788782048826E-018
 -0.879999999999995         3.515015161990953E-018
 -0.689999999999998         3.502396257290912E-018
 -0.500000000000000         3.486858193131891E-018
 -0.310000000000002         3.476415805982024E-018
 -0.120000000000005         3.477741500162670E-018
  7.000000000000739E-002    3.494123179071892E-018
  0.260000000000005         3.524409389868964E-018
  0.450000000000003         3.563252056839115E-018
  0.640000000000001         3.602580130820291E-018
  0.829999999999998         3.633880092970469E-018
   1.02000000000000         3.650624396072286E-018
   1.21000000000001         3.650144369721740E-018
   1.40000000000001         3.634403046927717E-018
   1.59000000000000         3.609440564900364E-018
   1.78000000000000         3.583649225471610E-018
   1.97000000000000         3.565375459697736E-018
   2.16000000000000         3.560541939606558E-018
   2.34999999999999         3.570976980124427E-018
   2.54000000000001         3.593932201407352E-018
   2.73000000000000         3.622924105026356E-018
   2.92000000000000         3.649651751363720E-018
   3.11000000000000         3.666432384023372E-018
   3.30000000000000         3.668448902870527E-018
   3.48999999999999         3.655159214321585E-018
   3.68000000000001         3.630460675026363E-018
   3.87000000000000         3.601563206942873E-018
   4.06000000000000         3.576898995884983E-018
   4.25000000000000         3.563676847032062E-018
   4.44000000000000         3.565793238382057E-018
   4.63000000000000         3.582708803849342E-018
   4.82000000000001         3.609617996507581E-018
   5.01000000000001         3.638862795335862E-018
   5.20000000000000         3.662178676673475E-018
   5.39000000000000         3.673118772283374E-018
   5.58000000000000         3.668950514138925E-018
   5.77000000000000         3.651472259064127E-018
   5.96000000000001         3.626510454538459E-018
   6.15000000000001         3.602240530603338E-018
   6.34000000000000         3.586816541091412E-018
   6.53000000000000         3.585996413634466E-018