  -105.000000000000        -1.486527921460007E-019
  -104.810000000000        -3.447246386319674E-020
  -104.620000000000         8.589791886429351E-020
  -104.430000000000         1.027569514187842E-019
  -104.240000000000         6.475977140252922E-021
  -104.050000000000        -1.044301523076297E-019
  -103.860000000000        -1.182781519254660E-019
  -103.670000000000        -1.741656771565440E-020
  -103.480000000000         1.046321058407913E-019
  -103.290000000000         1.324692382064640E-019
  -103.100000000000         3.930745506213348E-020
  -102.910000000000        -8.702752051157998E-020
  -102.720000000000        -1.275658727729065E-019
  -102.530000000000        -4.538236065307314E-020
  -102.340000000000         7.957933220318892E-020
  -102.150000000000         1.271096022871698E-019
  -101.960000000000         5.153519142231164E-020
  -101.770000000000        -7.475026056026610E-020
  -101.580000000000        -1.305187423134896E-019
  -101.390000000000        -6.167229445567288E-020
  -101.200000000000         6.686303437902494E-020
  -101.010000000000         1.330678599788745E-019
  -100.820000000000         7.442809813786611E-020
  -100.630000000000        -5.234527840809793E-020
  -100.440000000000        -1.255446494963836E-019
  -100.250000000000        -7.476323494578768E-020
  -100.060000000000         5.177091271385010E-020
  -99.8700000000000         1.330978214659259E-019
  -99.6800000000000         9.099936935152288E-020
  -99.4900000000000        -3.510400010595084E-020
  -99.3000000000000        -1.255147017100522E-019
  -99.1100000000000        -9.438801507937738E-020
  -98.9200000000000         2.836358101257203E-020
  -98.7300000000000         1.256012536441955E-019
  -98.5400000000000         1.045844689488077E-019
  -98.3500000000000        -1.480155155225276E-020
  -98.1600000000000        -1.191571981743162E-019
  -97.9700000000000        -1.096662255473231E-019
  -97.7800000000000         3.858480813742338E-021
  -97.5900000000000         1.126616117337159E-019
  -97.4000000000000         1.132089925245108E-019
  -97.2100000000000         6.227554539174058E-021
  -97.0200000000000        -1.041249701293227E-019
  -96.8300000000000        -1.101003400956547E-019
  -96.6400000000000        -3.700336473650090E-021
  -96.4500000000000         1.151718485627970E-019
  -96.2600000000000         1.335436538954492E-019
  -96.0700000000000         3.285084353964382E-020
  -95.8800000000000        -9.338424497313173E-020
  -95.6900000000000        -1.285966284284657E-019
  -95.5000000000000        -4.394586367070056E-020
  -95.3100000000000         7.504298164915127E-020
  -95.1200000000000         1.112583892747660E-019
  -94.9300000000000         2.872067362734036E-020
  -94.7400000000000        -9.270108752019784E-020
  -94.5500000000000        -1.337315293575285E-019
  -94.3600000000000        -5.025739319691229E-020
  -94.1700000000000         8.344821219056508E-020
  -93.9800000000000         1.444514954448088E-019
  -93.7900000000000         7.768413957670955E-020
  -93.6000000000000        -5.186118595198282E-020
  -93.4100000000000        -1.212047465999175E-019
  -93.2200000000000        -6.649736729901100E-020
  -93.0300000000000         5.657836338299710E-020
  -92.8400000000000         1.265671150272438E-019
  -92.6500000000000         7.269156443839604E-020
  -92.4600000000000        -5.708494220867089E-020
  -92.2700000000000        -1.413356626629576E-019
  -92.0800000000000        -1.007676372315867E-019
  -91.8900000000000         2.611177076681238E-020
  -91.7000000000000         1.196357762293341E-019
  -91.5100000000000         9.301974963153380E-020
  -91.3200000000000        -2.515580658324036E-020
  -91.1300000000000        -1.187147822664602E-019
  -90.9400000000000        -9.520285377944179E-020
  -90.7500000000000         2.553435866109186E-020
  -90.5600000000000         1.299487581680866E-019
  -90.3700000000000         1.188585528668944E-019
  -90.1800000000000         1.989271135479119E-021
  -89.9900000000000        -1.112372165681704E-019
  -89.8000000000000        -1.158822020472594E-019
  -89.6100000000000        -1.108457127934321E-020
  -89.4200000000000         9.995311285729212E-020
  -89.2300000000000         1.092034397411765E-019
  -89.0400000000000         7.229848909529606E-021
  -88.8500000000000        -1.079109744828468E-019
  -88.6600000000000        -1.246511132342103E-019
  -88.4700000000000        -2.501514271012396E-020
  -88.2800000000000         9.758418571039970E-020
  -88.0900000000000         1.271717246412513E-019
  -87.9000000000000         3.594939338535668E-020
  -87.7100000000000        -8.895923320401818E-020
  -87.5200000000000        -1.284068192567463E-019
  -87.3300000000000        -4.462095526268650E-020
  -87.1400000000000         8.301422282658931E-020
  -86.9500000000000         1.337520560410922E-019
  -86.7600000000000         6.050827769563490E-020
  -86.5700000000000        -6.557440623193788E-020
  -86.3800000000000        -1.235465761755279E-019
  -86.1900000000000        -5.862837205540152E-020
  -86.0000000000000         6.530926244652656E-020
  -85.8100000000000         1.270522359165373E-019
  -85.6200000000000         6.441834945510556E-020
  -85.4300000000000        -6.565773287529370E-020
  -85.2400000000000        -1.407749423679483E-019
  -85.0500000000000        -8.937192146456613E-020
  -84.8600000000000         4.108553136916695E-020
  -84.6700000000000         1.290786527025915E-019
  -84.4800000000000         9.444094080519900E-020
  -84.2900000000000        -2.584561923887834E-020
  -84.1000000000000        -1.137898694406339E-019
  -83.9100000000000        -8.376484378197649E-020
  -83.7200000000000         3.539523092053668E-020
  -83.5300000000000         1.279916418743618E-019
  -83.3400000000000         1.022981237286441E-019
  -83.1500000000000        -2.120422581197834E-020
  -82.9600000000000        -1.285373854061295E-019
  -82.7700000000000        -1.203416949871791E-019
  -82.5800000000000        -6.381315566771222E-021
  -82.3900000000000         1.039284743513814E-019
  -82.2000000000000         1.060856191271685E-019
  -82.0100000000000         2.517672669074014E-022
  -81.8200000000000        -1.090997955820960E-019
  -81.6300000000000        -1.132087989669832E-019
  -81.4400000000000        -3.260032731145609E-021
  -81.2500000000000         1.205175027945069E-019
  -81.0600000000000         1.436221688012702E-019
  -80.8700000000000         4.575171919571691E-020
  -80.6800000000000        -8.035800319559720E-020
  -80.4900000000000        -1.176244060917103E-019
  -80.3000000000000        -3.603483129129148E-020
  -80.1100000000000         7.960433803407453E-020
  -79.9200000000000         1.117874468004047E-019
  -79.7300000000000         2.356655503751063E-020
  -79.5400000000000        -1.052512739912491E-019
  -79.3500000000000        -1.535575437516776E-019
  -79.1600000000000        -7.423835096870792E-020
  -78.9700000000000         6.060954475524207E-020
  -78.7800000000000         1.278388396544814E-019
  -78.5900000000000         6.985879343743678E-020
  -78.4000000000000        -5.159002849045816E-020
  -78.2100000000000        -1.155827232850528E-019
  -78.0200000000000        -5.819064170406612E-020
  -77.8300000000000         6.645347849758276E-020
  -77.6400000000000         1.383436359487153E-019
  -77.4500000000000         8.695363027705617E-020
  -77.2600000000000        -4.063724965949386E-020
  -77.0700000000000        -1.242304708736663E-019
  -76.8800000000000        -8.531726581005263E-020
  -76.6900000000000         3.763949754191553E-020
  -76.5000000000000         1.256898737216136E-019
  -76.3100000000000         9.290968852455366E-020
  -76.1200000000000        -3.146979538667158E-020
  -75.9300000000000        -1.306686102128554E-019
  -75.7400000000000        -1.113924710247437E-019
  -75.5500000000000         7.445325333706505E-021
  -75.3600000000000         1.128836420228390E-019
  -75.1700000000000         1.057657353351429E-019
  -74.9800000000000        -4.615219812365862E-021
  -74.7900000000000        -1.096013545484488E-019
  -74.6000000000000        -1.053846094495846E-019
  -74.4100000000000         7.282431951879931E-021
  -74.2200000000000         1.231746900766218E-019
  -74.0300000000000         1.324593112251195E-019
  -73.8400000000000         2.522430345229140E-020
  -73.6500000000000        -9.890526627261991E-020
  -73.4600000000000        -1.253540588773566E-019
  -73.2700000000000        -3.334537346543327E-020
  -73.0800000000000         8.491923581321055E-020
  -72.8900000000000         1.129045348885030E-019
  -72.7000000000000         2.138975571042505E-020
  -72.5100000000000        -1.035216893226408E-019
  -72.3200000000000        -1.425300629676914E-019
  -72.1300000000000        -5.685452011501728E-020
  -71.9400000000000         7.482791495376121E-020
  -71.7500000000000         1.312722850032340E-019
  -71.5600000000000         6.389582558685018E-020
  -71.3700000000000        -5.762754206590689E-020
  -71.1800000000000        -1.129064305511165E-019
  -70.9900000000000        -4.675215322612075E-020
  -70.8000000000000         7.759058535111619E-020
  -70.6100000000000         1.388529450024074E-019
  -70.4200000000000         7.399877373124493E-020
  -70.2300000000000        -6.073676232325230E-020
  -70.0400000000000        -1.424048896155944E-019
  -69.8500000000000        -9.763725651716712E-020
  -69.6600000000000         2.807223563322449E-020
  -69.4700000000000         1.142465126065121E-019
  -69.2800000000000         8.058815437082341E-020
  -69.0900000000000        -3.670781873067436E-020
  -68.9000000000000        -1.203997571005970E-019
  -68.7100000000000        -8.525285813107353E-020
  -68.5200000000000         3.957590558900379E-020
  -68.3300000000000         1.376154102917153E-019
  -68.1400000000000         1.159105276200742E-019
  -67.9500000000000        -6.038734047658718E-021
  -67.7600000000000        -1.142466470244698E-019
  -67.5700000000000        -1.083092178716159E-019
  -67.3800000000000         3.386381801822423E-021
  -67.1900000000000         1.121356809590591E-019
  -67.0000000000000         1.128332663923290E-019
  -66.8100000000000         4.046591864722673E-021
  -66.6200000000000        -1.110481785438699E-019
  -66.4300000000000        -1.234546674302319E-019
  -66.2400000000000        -2.251658310167558E-020
  -66.0500000000000         9.395467646795266E-020
  -65.8600000000000         1.133531344008222E-019
  -65.6700000000000         1.629299666949109E-020
  -65.4800000000000        -1.044641324861079E-019
  -65.2900000000000        -1.324514685648097E-019
  -65.1000000000000        -3.877757512917463E-020
  -64.9100000000000         9.009012225232279E-020
  -64.7200000000000         1.345116162677828E-019
  -64.5300000000000         5.541959470427384E-020
  -64.3400000000000        -6.879641398419145E-020
  -64.1500000000000        -1.174662169058924E-019
  -63.9600000000000        -4.318437678001343E-020
  -63.7700000000000         8.269937500375595E-020
  -63.5800000000000         1.382408815682732E-019
  -63.3900000000000         6.756203828581780E-020
  -63.2000000000000        -6.550781986358246E-020
  -63.0100000000000        -1.379553458110254E-019
  -62.8200000000000        -8.444199064182680E-020
  -62.6300000000000         4.086341314321309E-020
  -62.4400000000000         1.163467080984993E-019
  -62.2500000000000         6.930490945683102E-020
  -62.0600000000000        -5.442545147408298E-020
  -61.8700000000000        -1.342167300775818E-019
  -61.6800000000000        -9.012273771566660E-020
  -61.4900000000000         4.025805120010723E-020
  -61.3000000000000         1.369557530367855E-019
  -61.1100000000000         1.112512094936337E-019
  -60.9200000000000        -1.049395077881535E-020
  -60.7300000000000        -1.124443811618550E-019
  -60.5400000000000        -9.974240491508976E-020
  -60.3500000000000         1.154938141390321E-020
  -60.1600000000000         1.107879543823920E-019
  -59.9700000000000         9.956058394366858E-020
  -59.7800000000000        -1.346999099230796E-020
  -59.5900000000000        -1.205700958569476E-019
  -59.4000000000000        -1.180197761542460E-019
  -59.2100000000000        -5.583674916487417E-021
  -59.0200000000000         1.126719987558482E-019
  -58.8300000000000         1.270497589170206E-019
  -58.6400000000000         2.637512190712599E-020
  -58.4500000000000        -9.170824255636635E-020
  -58.2600000000000        -1.142149419305889E-019
  -58.0700000000000        -2.077560333466024E-020
  -57.8800000000000         9.718003744737528E-020
  -57.6900000000000         1.242870720735016E-019
  -57.5000000000000         3.198822198342439E-020
  -57.3100000000000        -9.374802670781711E-020
  -57.1200000000000        -1.342456718850267E-019
  -56.9300000000000        -5.147634635355293E-020
  -56.7400000000000         7.527347435480213E-020
  -56.5500000000000         1.247567562292344E-019
  -56.3600000000000         4.950364874372180E-020
  -56.1700000000000        -7.864311593498625E-020
  -55.9800000000000        -1.369004067816298E-019
  -55.7900000000000        -6.859593021719346E-020
  -55.6000000000000         6.281668004618074E-020
  -55.4100000000000         1.341880273284489E-019
  -55.2200000000000         7.985981509842047E-020
  -55.0300000000000        -4.601424586864278E-020
  -54.8400000000000        -1.213745187850891E-019
  -54.6500000000000        -7.293868062159066E-020
  -54.4600000000000         5.369222013374637E-020
  -54.2700000000000         1.375016254140687E-019
  -54.0800000000000         9.753559888346699E-020
  -53.8900000000000        -2.994570098965820E-020
  -53.7000000000000        -1.261369028524444E-019
  -53.5100000000000        -1.028676946473868E-019
  -53.3200000000000         1.366808537411384E-020
  -53.1300000000000         1.083719154368221E-019
  -52.9400000000000         8.759668207819435E-020
  -52.7500000000000        -3.092093524365922E-020
  -52.5600000000000        -1.345812271148917E-019
  -52.3700000000000        -1.232459753674468E-019
  -52.1800000000000        -4.802154022271571E-021
  -51.9900000000000         1.122849412333655E-019
  -51.8000000000000         1.221091584027391E-019
  -51.6100000000000         2.161043339915451E-020
  -51.4200000000000        -8.751608253278231E-020
  -51.2300000000000        -9.688869860604065E-020
  -51.0400000000000         4.290293793491524E-021
  -50.8500000000000         1.185756556061974E-019
  -50.6600000000000         1.336280686250914E-019
  -50.4700000000000         3.028870263309663E-020
  -50.2800000000000        -9.815936876889456E-020
  -50.0900000000000        -1.340925590545546E-019
  -49.9000000000000        -4.697546635494863E-020
  -49.7100000000000         7.801307067055437E-020
  -49.5200000000000         1.212945366437501E-019
  -49.3300000000000         4.265612681060674E-020
  -49.1400000000000        -8.092666465851955E-020
  -48.9500000000000        -1.294662510191346E-019
  -48.7600000000000        -5.520019041265900E-020
  -48.5700000000000         7.142107226209472E-020
  -48.3800000000000         1.290131888734701E-019
  -48.1900000000000         6.138422932677372E-020
  -48.0000000000000        -6.850372692234376E-020
  -47.8100000000000        -1.382568203268765E-019
  -47.6200000000000        -8.254576775798847E-020
  -47.4300000000000         4.469005673505049E-020
  -47.2400000000000         1.218016146300976E-019
  -47.0500000000000         7.568966352641764E-020
  -46.8600000000000        -4.832760299172996E-020
  -46.6700000000000        -1.299093673032583E-019
  -46.4800000000000        -8.881394880622218E-020
  -46.2900000000000         3.833944727353027E-020
  -46.1000000000000         1.328998994824031E-019
  -45.9100000000000         1.072686691384243E-019
  -45.7200000000000        -1.162195031987837E-020
  -45.5300000000000        -1.080961190885463E-019
  -45.3400000000000        -8.833688409121160E-020
  -45.1500000000000         2.974457183982047E-020
  -44.9600000000000         1.333734293205334E-019
  -44.7700000000000         1.225214234364993E-019
  -44.5800000000000         5.453403912920723E-021
  -44.3900000000000        -1.089949663085932E-019
  -44.2000000000000        -1.149712304463592E-019
  -44.0100000000000        -1.029722068122343E-020
  -43.8200000000000         1.015959442587095E-019
  -43.6300000000000         1.104133834671994E-019
  -43.4400000000000         4.389889026184107E-021
  -43.2500000000000        -1.182621214930267E-019
  -43.0600000000000        -1.428556576453134E-019
  -42.8700000000000        -4.735784572434019E-020
  -42.6800000000000         7.701114735442879E-020
  -42.4900000000000         1.130805578371119E-019
  -42.3000000000000         2.938361319156989E-020
  -42.1100000000000        -9.028492172339074E-020
  -41.9200000000000        -1.274280234891279E-019
  -41.7300000000000        -4.257186642585005E-020
  -41.5400000000000         8.651116650540386E-020
  -41.3500000000000         1.387410760519025E-019
  -41.1600000000000         6.519885011887518E-020
  -40.9700000000000        -6.427272455488181E-020
  -40.7800000000000        -1.277239619268526E-019
  -40.5900000000000        -6.712628139907790E-020
  -40.4000000000000         5.695424013421129E-020
  -40.2100000000000         1.239546645284409E-019
  -40.0200000000000         6.907120872288282E-020
  -39.8300000000000        -5.446324747383904E-020
  -39.6400000000000        -1.262777925221776E-019
  -39.4500000000000        -7.440949785206044E-020
  -39.2600000000000         5.515467701812348E-020
  -39.0700000000000         1.417041250975112E-019
  -38.8800000000000         1.045989226669959E-019
  -38.6900000000000        -1.998343315932919E-020
  -38.5000000000000        -1.135598681652016E-019
  -38.3100000000000        -8.824150046563022E-020
  -38.1200000000000         2.955617420132106E-020
  -37.9300000000000         1.245175043084228E-019
  -37.7400000000000         1.028713455073534E-019
  -37.5500000000000        -1.761644160508059E-020
  -37.3600000000000        -1.242605163174945E-019
  -37.1700000000000        -1.168672058094400E-019
  -36.9800000000000        -3.302973183263710E-021
  -36.7900000000000         1.079479268788653E-019
  -36.6000000000000         1.110554777492999E-019
  -36.4100000000000         3.547390771981150E-021
  -36.2200000000000        -1.114815115700228E-019
  -36.0300000000000        -1.238361229362430E-019
  -35.8400000000000        -2.148799256108898E-020
  -35.6500000000000         9.791202781612320E-020
  -35.4600000000000         1.202829002605789E-019
  -35.2700000000000         2.396454265236774E-020
  -35.0800000000000        -9.972296566842657E-020
  -34.8900000000000        -1.336059210215317E-019
  -34.7000000000000        -4.624157690634354E-020
  -34.5100000000000         7.837243090601955E-020
  -34.3200000000000         1.212502901765532E-019
  -34.1300000000000         4.227664393433473E-020
  -33.9400000000000        -8.135194921541828E-020
  -33.7500000000000        -1.289773142094218E-019
  -33.5600000000000        -5.199974380377519E-020
  -33.3700000000000         7.944788940554987E-020
  -33.1800000000000         1.432028439935789E-019
  -32.9900000000000         8.135054030795989E-020
  -32.8000000000000        -4.484369172755337E-020
  -32.6100000000000        -1.136834167050793E-019
  -32.4200000000000        -5.945706998592710E-020
  -32.2300000000000         6.462133789541845E-020
  -32.0400000000000         1.372365244328270E-019
  -31.8500000000000         8.509643159188002E-020
  -31.6600000000000        -4.669965792944784E-020
  -31.4700000000000        -1.373100642433864E-019
  -31.2800000000000        -1.050041046233888E-019
  -31.0900000000000         1.535208852359373E-020
  -30.9000000000000         1.059260537900354E-019
  -30.7100000000000         7.856376345922276E-020
  -30.5200000000000        -4.092296576124346E-020
  -30.3300000000000        -1.373328202662258E-019
  -30.1400000000000        -1.161979714634444E-019
  -29.9500000000000         5.747438795936025E-021
  -29.7600000000000         1.162439209521847E-019
  -29.5700000000000         1.142735038874751E-019
  -29.3800000000000         5.935098798334704E-021
  -29.1900000000000        -1.018778301579044E-019
  -29.0000000000000        -1.037580092471222E-019
  -28.8100000000000         3.566917249503179E-021
  -28.6200000000000         1.182483608548937E-019
  -28.4300000000000         1.308933888175163E-019
  -28.2400000000000         2.940720398564739E-020
  -28.0500000000000        -8.929563732934727E-020
  -27.8600000000000        -1.119216584791120E-019
  -27.6700000000000        -1.708792792751282E-020
  -27.4800000000000         1.041957642205273E-019
  -27.2900000000000         1.352990177080108E-019
  -27.1000000000000         4.520451499645303E-020
  -26.9100000000000        -8.185661770817380E-020
  -26.7200000000000        -1.267354995471137E-019
  -26.5300000000000        -4.908434536018009E-020
  -26.3400000000000         7.422624477556886E-020
  -26.1500000000000         1.227761674437993E-019
  -25.9600000000000         4.784215580681888E-020
  -25.7700000000000        -8.098231634862826E-020
  -25.5800000000000        -1.422352495653074E-019
  -25.3900000000000        -7.861173209923707E-020
  -25.2000000000000         4.812564763755923E-020
  -25.0100000000000         1.158859937202456E-019
  -24.8200000000000         5.886419894451055E-020
  -24.6300000000000        -6.925797820114115E-020
  -24.4400000000000        -1.461268330897004E-019
  -24.2500000000000        -9.718068597454383E-020
  -24.0600000000000         3.343972789386179E-020
  -23.8700000000000         1.250880349854850E-019
  -23.6800000000000         9.543967487866144E-020
  -23.4900000000000        -2.156014520156908E-020
  -23.3000000000000        -1.087831392553814E-019
  -23.1100000000000        -7.839149505300513E-020
  -22.9200000000000         4.369607297733194E-020
  -22.7300000000000         1.421885393875667E-019
  -22.5400000000000         1.225018877681544E-019
  -22.3500000000000         1.290560688242128E-021
  -22.1600000000000        -1.091006260378859E-019
  -21.9700000000000        -1.073230523492102E-019
  -21.7800000000000         9.370588519039188E-022
  -21.5900000000000         1.089406238211507E-019
  -21.4000000000000         1.110527125397036E-019
  -21.2100000000000         3.682517175822722E-021
  -21.0200000000000        -1.113318191785173E-019
  -20.8300000000000        -1.242141817977650E-019
  -20.6400000000000        -2.240351317913878E-020
  -20.4500000000000         9.727673951414522E-020
  -20.2600000000000         1.210292086941755E-019
  -20.0700000000000         2.667292659364774E-020
  -19.8800000000000        -9.523608663410466E-020
  -19.6900000000000        -1.278464635822639E-019
  -19.5000000000000        -3.961498409922442E-020
  -19.3100000000000         8.540656127924827E-020
  -19.1200000000000         1.277015917094520E-019
  -18.9300000000000         4.643937241472405E-020
  -18.7400000000000        -8.148930682247637E-020
  -18.5500000000000        -1.348693371002162E-019
  -18.3600000000000        -6.374839562156332E-020
  -18.1700000000000         6.312822810248104E-020
  -17.9800000000000         1.240739252307937E-019
  -17.7900000000000         6.058202831261163E-020
  -17.6000000000000        -6.685518305656227E-020
  -17.4100000000000        -1.364812807304371E-019
  -17.2200000000000        -8.154830417413198E-020
  -17.0300000000000         4.596133358804526E-020
  -16.8400000000000         1.251334204708007E-019
  -16.6500000000000         8.175960103257553E-020
  -16.4600000000000        -4.078351924244284E-020
  -16.2700000000000        -1.230183419193579E-019
  -16.0800000000000        -8.351635260573170E-020
  -15.8900000000000         4.314117799962064E-020
  -15.7000000000000         1.389772843658452E-019
  -15.5100000000000         1.148835691118038E-019
  -15.3200000000000        -4.537863004331312E-021
  -15.1300000000000        -1.046787487135928E-019
  -14.9400000000000        -9.050437936008060E-020
  -14.7500000000000         2.286416833960539E-020
  -14.5600000000000         1.250496657807607E-019
  -14.3700000000000         1.162708468176094E-019
  -14.1800000000000         2.918819421719178E-021
  -13.9900000000000        -1.083700236727792E-019
  -13.8000000000000        -1.125787255103081E-019
  -13.6100000000000        -6.943559868967993E-021
  -13.4200000000000         1.059519107478390E-019
  -13.2300000000000         1.158782662113481E-019
  -13.0400000000000         1.018381444040681E-020
  -12.8500000000000        -1.139991873325493E-019
  -12.6600000000000        -1.421247861016120E-019
  -12.4700000000000        -5.100422186473577E-020
  -12.2800000000000         6.958354517385409E-020
  -12.0900000000000         1.029126582920905E-019
  -11.9000000000000         1.696688532184372E-020
  -11.7100000000000        -1.048523390186962E-019
  -11.5200000000000        -1.434831817189613E-019
  -11.3300000000000        -5.826639065529651E-020
  -11.1400000000000         7.385695973844675E-020
  -10.9500000000000         1.315253980820930E-019
  -10.7600000000000         6.453104382838386E-020
  -10.5700000000000        -5.850932973266657E-020
  -10.3800000000000        -1.157769803217095E-019
  -10.1900000000000        -4.864754411727222E-020
  -10.0000000000000         8.207938384337455E-020
  -9.81000000000000         1.539041109079382E-019
  -9.62000000000000         9.935516114665085E-020
  -9.42999999999999        -2.978299362288268E-020
  -9.23999999999999        -1.120678479927687E-019
  -9.05000000000000        -7.223794020293673E-020
  -8.86000000000000         4.737115761951093E-020
  -8.67000000000000         1.277513882783858E-019
  -8.48000000000000         8.725791553993525E-020
  -8.28999999999999        -4.000442710985823E-020
  -8.09999999999999        -1.363059354440662E-019
  -7.91000000000000        -1.124840879469847E-019
  -7.72000000000000         6.901222758115431E-021
  -7.53000000000000         1.069565099942637E-019
  -7.34000000000000         9.207526528088012E-020
  -7.15000000000001        -2.297309792188825E-020
  -6.95999999999999        -1.273282055733779E-019
  -6.77000000000000        -1.198887564832617E-019
  -6.58000000000000        -5.800142871014271E-021
  -6.39000000000000         1.083493426675298E-019
  -6.20000000000000         1.161088906306984E-019
  -6.01000000000001         1.261568440377842E-020
  -5.81999999999999        -1.010671205391330E-019
  -5.63000000000000        -1.148298443230793E-019
  -5.44000000000000        -1.478884168038066E-020
  -5.25000000000000         1.036874497477593E-019
  -5.06000000000000         1.273865473750751E-019
  -4.87000000000000         3.365139436934621E-020
  -4.67999999999999        -8.766572833619030E-020
  -4.48999999999999        -1.197408817377398E-019
  -4.30000000000000        -3.036137923332581E-020
  -4.11000000000000         9.702219561355588E-020
  -3.92000000000000         1.426359573561986E-019
  -3.73000000000000         6.435451541765663E-020
  -3.53999999999999        -6.258857355633958E-020
  -3.34999999999999        -1.178534944378914E-019
  -3.16000000000000        -5.096661104201424E-020
  -2.97000000000000         7.071366303513676E-020
  -2.78000000000000         1.267273968775241E-019
  -2.59000000000000         5.919308510574975E-020
  -2.40000000000001        -7.113427969899156E-020
  -2.20999999999999        -1.423712573588093E-019
  -2.02000000000000        -8.787049554396622E-020
  -1.83000000000000         3.990136360362430E-020
  -1.64000000000000         1.191733870101127E-019
  -1.45000000000000         7.480052226511411E-020
  -1.26000000000001        -5.026478829991457E-020
  -1.06999999999999        -1.359932451407498E-019
 -0.879999999999995        -9.972508770951065E-020
 -0.689999999999998         2.494595506869269E-020
 -0.500000000000000         1.201645124879191E-019
 -0.310000000000002         9.629816292675584E-020
 -0.120000000000005        -2.254106442501877E-020
  7.000000000000739E-002   -1.216936509457868E-019
  0.260000000000005        -1.055737819555174E-019
  0.450000000000003         1.105389099884040E-020
  0.640000000000001         1.171211993819442E-019
  0.829999999999998         1.111673118724117E-019
   1.02000000000000        -1.728963608403849E-021
   1.21000000000001        -1.144169243704997E-019
   1.40000000000001        -1.195292985046391E-019
   1.59000000000000        -1.167021498619396E-020
   1.78000000000000         1.076665923219231E-019
   1.97000000000000         1.270530557086708E-019
   2.16000000000000         3.119202435673800E-020
   2.34999999999999        -8.503661287287762E-020
   2.54000000000001        -1.076033601301958E-019
   2.73000000000000        -1.245426175109377E-020
   2.92000000000000         1.112989949108494E-019
   3.11000000000000         1.462781050374371E-019
   3.30000000000000         5.881503900473815E-020
   3.48999999999999        -6.906702999981920E-020
   3.68000000000001        -1.182432777939921E-019
   3.87000000000000        -4.629093685304816E-020
   4.06000000000000         7.236844669520160E-020
   4.25000000000000         1.181178896666981E-019
   4.44000000000000         4.098006145603445E-020
   4.63000000000000        -9.095076981019861E-020
   4.82000000000001        -1.557932731745605E-019
   5.01000000000001        -9.378376602732494E-020
   5.20000000000000         3.581165738626764E-020
   5.39000000000000         1.113011090467811E-019
   5.58000000000000         6.459063843231645E-020
   5.77000000000000        -5.438077146794181E-020
   5.96000000000001        -1.262400876204639E-019
   6.15000000000001        -7.709846065067807E-020
   6.34000000000000         5.007989632586590E-020
   6.53000000000000         1.359025864000437E-019