  -105.000000000000         0.000000000000000E+000
  -104.810000000000        -2.583954294225975E-020
  -104.620000000000        -7.125079668752779E-020
  -104.430000000000        -1.258049461931867E-019
  -104.240000000000        -1.778344810485870E-019
  -104.050000000000        -2.176813221041955E-019
  -103.860000000000        -2.403352862812717E-019
  -103.670000000000        -2.467047399576749E-019
  -103.480000000000        -2.431590470995920E-019
  -103.290000000000        -2.394849469728920E-019
  -103.100000000000        -2.458595466307659E-019
  -102.910000000000        -2.697266574380088E-019
  -102.720000000000        -3.134884417138034E-019
  -102.530000000000        -3.736847143306269E-019
  -102.340000000000        -4.418986986973997E-019
  -102.150000000000        -5.071266455060019E-019
  -101.960000000000        -5.589239582653354E-019
  -101.770000000000        -5.904143525019541E-019
  -101.580000000000        -6.002864553332569E-019
  -101.390000000000        -5.931940786783685E-019
  -101.200000000000        -5.784388050636672E-019
  -101.010000000000        -5.673128053480664E-019
  -100.820000000000        -5.698701666428331E-019
  -100.630000000000        -5.920616233035583E-019
  -100.440000000000        -6.340614059944279E-019
  -100.250000000000        -6.902676142850535E-019
  -100.060000000000        -7.509714302209676E-019
  -99.8700000000000        -8.052075004135693E-019
  -99.6800000000000        -8.439574599615314E-019
  -99.4900000000000        -8.627781326703313E-019
  -99.3000000000000        -8.630934667053956E-019
  -99.1100000000000        -8.517763412187431E-019
  -98.9200000000000        -8.391419404868210E-019
  -98.7300000000000        -8.359356880949568E-019
  -98.5400000000000        -8.501917129613346E-019
  -98.3500000000000        -8.848762828699903E-019
  -98.1600000000000        -9.370024710811271E-019
  -97.9700000000000        -9.984738818723461E-019
  -97.7800000000000        -1.058411963052024E-018
  -97.5900000000000        -1.106290407358684E-018
  -97.4000000000000        -1.134966639572918E-018
  -97.2100000000000        -1.142731299849621E-018
  -97.0200000000000        -1.133781958383021E-018
  -96.8300000000000        -1.116984086132614E-018
  -96.6400000000000        -1.103278845802685E-018
  -96.4500000000000        -1.102490295046380E-018
  -96.2600000000000        -1.120459924817183E-018
  -96.0700000000000        -1.157342219506406E-018
  -95.8800000000000        -1.207557573789315E-018
  -95.6900000000000        -1.261416403742455E-018
  -95.5000000000000        -1.307941731605274E-018
  -95.3100000000000        -1.338069240436635E-018
  -95.1200000000000        -1.347294957552006E-018
  -94.9300000000000        -1.337001845969596E-018
  -94.7400000000000        -1.314079776347518E-018
  -94.5500000000000        -1.288947431314901E-018
  -94.3600000000000        -1.272547438133860E-018
  -94.1700000000000        -1.273184345819982E-018
  -93.9800000000000        -1.294122542658015E-018
  -93.7900000000000        -1.332642995725546E-018
  -93.6000000000000        -1.380835612953812E-018
  -93.4100000000000        -1.427899872804195E-018
  -93.2200000000000        -1.463287160237853E-018
  -93.0300000000000        -1.479772883342771E-018
  -92.8400000000000        -1.475566881788437E-018
  -92.6500000000000        -1.454850339709935E-018
  -92.4600000000000        -1.426583922529192E-018
  -92.2700000000000        -1.401932001854744E-018
  -92.0800000000000        -1.391047113096048E-018
  -91.8900000000000        -1.400142886648497E-018
  -91.7000000000000        -1.429700347855139E-018
  -91.5100000000000        -1.474325571020472E-018
  -91.3200000000000        -1.524299538759199E-018
  -91.1300000000000        -1.568370895346297E-018
  -90.9400000000000        -1.596981481336352E-018
  -90.7500000000000        -1.604988992676337E-018
  -90.5600000000000        -1.593098165464466E-018
  -90.3700000000000        -1.567588647814031E-018
  -90.1800000000000        -1.538423767108135E-018
  -89.9900000000000        -1.516294828586810E-018
  -89.8000000000000        -1.509463862776325E-018
  -89.6100000000000        -1.521325281363583E-018
  -89.4200000000000        -1.549397823357505E-018
  -89.2300000000000        -1.586043063489373E-018
  -89.0400000000000        -1.620705230952450E-018
  -88.8500000000000        -1.643024004938243E-018
  -88.6600000000000        -1.645916062396512E-018
  -88.4700000000000        -1.627727633684938E-018
  -88.2800000000000        -1.592828273113253E-018
  -88.0900000000000        -1.550467944332544E-018
  -87.9000000000000        -1.512223410510626E-018
  -87.7100000000000        -1.488768471146906E-018
  -87.5200000000000        -1.486897088057244E-018
  -87.3300000000000        -1.507653649154177E-018
  -87.1400000000000        -1.546103716056305E-018
  -86.9500000000000        -1.592805036280824E-018
  -86.7600000000000        -1.636548667124852E-018
  -86.5700000000000        -1.667574424153393E-018
  -86.3800000000000        -1.680329105718781E-018
  -86.1900000000000        -1.674970264681424E-018
  -86.0000000000000        -1.657184870350774E-018
  -85.8100000000000        -1.636384688595625E-018
  -85.6200000000000        -1.622814266401078E-018
  -85.4300000000000        -1.624423808203815E-018
  -85.2400000000000        -1.644425745004071E-018
  -85.0500000000000        -1.680252186129328E-018
  -84.8600000000000        -1.724220744908468E-018
  -84.6700000000000        -1.765718228983702E-018
  -84.4800000000000        -1.794269737827770E-018
  -84.2900000000000        -1.802602193352552E-018
  -84.1000000000000        -1.788810573954974E-018
  -83.9100000000000        -1.756992663080234E-018
  -83.7200000000000        -1.716160464937633E-018
  -83.5300000000000        -1.677736304947477E-018
  -83.3400000000000        -1.652353834686605E-018
  -83.1500000000000        -1.646887743115741E-018
  -82.9600000000000        -1.662570403328337E-018
  -82.7700000000000        -1.694737677318947E-018
  -82.5800000000000        -1.734272508206521E-018
  -82.3900000000000        -1.770322668509884E-018
  -82.2000000000000        -1.793501208369276E-018
  -82.0100000000000        -1.798640232792104E-018
  -81.8200000000000        -1.786299299888245E-018
  -81.6300000000000        -1.762591077631951E-018
  -81.4400000000000        -1.737375248955747E-018
  -81.2500000000000        -1.721346195865083E-018
  -81.0600000000000        -1.722862724500478E-018
  -80.8700000000000        -1.745444325047187E-018
  -80.6800000000000        -1.786665350711528E-018
  -80.4900000000000        -1.838772288715846E-018
  -80.3000000000000        -1.890848681836960E-018
  -80.1100000000000        -1.931903091638595E-018
  -79.9200000000000        -1.953987897641972E-018
  -79.7300000000000        -1.954447626359880E-018
  -79.5400000000000        -1.936647032119262E-018
  -79.3500000000000        -1.908968449116940E-018
  -79.1600000000000        -1.882368249245772E-018
  -78.9700000000000        -1.867199352916801E-018
  -78.7800000000000        -1.870220120543730E-018
  -78.5900000000000        -1.892657060487278E-018
  -78.4000000000000        -1.929883520637767E-018
  -78.2100000000000        -1.972806612628361E-018
  -78.0200000000000        -2.010557199606984E-018
  -77.8300000000000        -2.033698872707211E-018
  -77.6400000000000        -2.037022097227303E-018
  -77.4500000000000        -2.021111446080426E-018
  -77.2600000000000        -1.992229875474576E-018
  -77.0700000000000        -1.960550413642614E-018
  -76.8800000000000        -1.937242768588490E-018
  -76.6900000000000        -1.931254126489863E-018
  -76.5000000000000        -1.946714582610492E-018
  -76.3100000000000        -1.981720538549000E-018
  -76.1200000000000        -2.028853142245659E-018
  -75.9300000000000        -2.077287066138618E-018
  -75.7400000000000        -2.115883425382138E-018
  -75.5500000000000        -2.136374359457594E-018
  -75.3600000000000        -2.135719684125413E-018
  -75.1700000000000        -2.116956201036067E-018
  -74.9800000000000        -2.088297561939692E-018
  -74.7900000000000        -2.060749217675542E-018
  -74.6000000000000        -2.044931412393301E-018
  -74.4100000000000        -2.048029658269353E-018
  -74.2200000000000        -2.071752281776451E-018
  -74.0300000000000        -2.111881081020121E-018
  -73.8400000000000        -2.159538983215291E-018
  -73.6500000000000        -2.203801007126690E-018
  -73.4600000000000        -2.234885519869431E-018
  -73.2700000000000        -2.246995112524915E-018
  -73.0800000000000        -2.239980035556418E-018
  -72.8900000000000        -2.219342046044047E-018
  -72.7000000000000        -2.194581291697275E-018
  -72.5100000000000        -2.176371368667103E-018
  -72.3200000000000        -2.173387945173824E-018
  -72.1300000000000        -2.189716865354681E-018
  -71.9400000000000        -2.223600080926072E-018
  -71.7500000000000        -2.267890110710612E-018
  -71.5600000000000        -2.312087209763139E-018
  -71.3700000000000        -2.345371648414409E-018
  -71.1800000000000        -2.359751424300809E-018
  -70.9900000000000        -2.352409812468530E-018
  -70.8000000000000        -2.326568872949483E-018
  -70.6100000000000        -2.290616690828918E-018
  -70.4200000000000        -2.255750905353382E-018
  -70.2300000000000        -2.232821040682813E-018
  -70.0400000000000        -2.229282102066439E-018
  -69.8500000000000        -2.247136063220129E-018
  -69.6600000000000        -2.282448544618786E-018
  -69.4700000000000        -2.326570808898135E-018
  -69.2800000000000        -2.368704875571326E-018
  -69.0900000000000        -2.399063133594369E-018
  -68.9000000000000        -2.411703507150984E-018
  -68.7100000000000        -2.406216349974683E-018
  -68.5200000000000        -2.387773903550104E-018
  -68.3300000000000        -2.365531677275136E-018
  -68.1400000000000        -2.349854079690421E-018
  -67.9500000000000        -2.349181671616091E-018
  -67.7600000000000        -2.367462379893010E-018
  -67.5700000000000        -2.402903239987578E-018
  -67.3800000000000        -2.448412359539766E-018
  -67.1900000000000        -2.493606818029197E-018
  -67.0000000000000        -2.527805147296302E-018
  -66.8100000000000        -2.543135257179068E-018
  -66.6200000000000        -2.536853457003421E-018
  -66.4300000000000        -2.512197890605031E-018
  -66.2400000000000        -2.477524224745904E-018
  -66.0500000000000        -2.443969448884860E-018
  -65.8600000000000        -2.422316481120065E-018
  -65.6700000000000        -2.419963959304547E-018
  -65.4800000000000        -2.438874772311763E-018
  -65.2900000000000        -2.475092627947286E-018
  -65.1000000000000        -2.519961351357059E-018
  -64.9100000000000        -2.562689141347214E-018
  -64.7200000000000        -2.593512239926701E-018
  -64.5300000000000        -2.606540563643683E-018
  -64.3400000000000        -2.601460364526210E-018
  -64.1500000000000        -2.583599107724461E-018
  -63.9600000000000        -2.562331363879788E-018
  -63.7700000000000        -2.548286244402253E-018
  -63.5800000000000        -2.550167431324634E-018
  -63.3900000000000        -2.572112731549652E-018
  -63.2000000000000        -2.612365483498425E-018
  -63.0100000000000        -2.663649426689714E-018
  -62.8200000000000        -2.715143720766870E-018
  -62.6300000000000        -2.755490886055925E-018
  -62.4400000000000        -2.775972332836463E-018
  -62.2500000000000        -2.772939110114077E-018
  -62.0600000000000        -2.748801598267767E-018
  -61.8700000000000        -2.711297619419385E-018
  -61.6800000000000        -2.671253855129304E-018
  -61.4900000000000        -2.639488503593767E-018
  -61.3000000000000        -2.623749731370377E-018
  -61.1100000000000        -2.626573531737483E-018
  -60.9200000000000        -2.644678347099383E-018
  -60.7300000000000        -2.670068049014884E-018
  -60.5400000000000        -2.692518104655107E-018
  -60.3500000000000        -2.702716614540743E-018
  -60.1600000000000        -2.695140658208803E-018
  -59.9700000000000        -2.669825215208917E-018
  -59.7800000000000        -2.632503892929358E-018
  -59.5900000000000        -2.593073403137620E-018
  -59.4000000000000        -2.562820225189533E-018
  -59.2100000000000        -2.551208237006075E-018
  -59.0200000000000        -2.563156374848101E-018
  -58.8300000000000        -2.597596933176973E-018
  -58.6400000000000        -2.647736534324194E-018
  -58.4500000000000        -2.702949218886520E-018
  -58.2600000000000        -2.751758021699590E-018
  -58.0700000000000        -2.785046303072004E-018
  -57.8800000000000        -2.798574979637474E-018
  -57.6900000000000        -2.794084731108403E-018
  -57.5000000000000        -2.778672917574257E-018
  -57.3100000000000        -2.762633454885682E-018
  -57.1200000000000        -2.756390218647515E-018
  -56.9300000000000        -2.767413744052343E-018
  -56.7400000000000        -2.798013233329342E-018
  -56.5500000000000        -2.844641169678991E-018
  -56.3600000000000        -2.898909449040092E-018
  -56.1700000000000        -2.950019471589599E-018
  -55.9800000000000        -2.987897035914120E-018
  -55.7900000000000        -3.006116350858637E-018
  -55.6000000000000        -3.003758057518210E-018
  -55.4100000000000        -2.985657633740259E-018
  -55.2200000000000        -2.960971824060389E-018
  -55.0300000000000        -2.940482868744275E-018
  -54.8400000000000        -2.933428708649649E-018
  -54.6500000000000        -2.944785005322355E-018
  -54.4600000000000        -2.973792970983744E-018
  -54.2700000000000        -3.014164812943282E-018
  -54.0800000000000        -3.055910821155911E-018
  -53.8900000000000        -3.088259528996688E-018
  -53.7000000000000        -3.102822325279353E-018
  -53.5100000000000        -3.096080576405281E-018
  -53.3200000000000        -3.070469064301443E-018
  -53.1300000000000        -3.033737426526592E-018
  -52.9400000000000        -2.996771989520102E-018
  -52.7500000000000        -2.970507671522186E-018
  -52.5600000000000        -2.962823273445347E-018
  -52.3700000000000        -2.976317295685483E-018
  -52.1800000000000        -3.007605245014407E-018
  -51.9900000000000        -3.048338364657246E-018
  -51.8000000000000        -3.087645694612389E-018
  -51.6100000000000        -3.115289903329194E-018
  -51.4200000000000        -3.124620916211871E-018
  -51.2300000000000        -3.114469962951840E-018
  -51.0400000000000        -3.089434473676321E-018
  -50.8500000000000        -3.058473310132011E-018
  -50.6600000000000        -3.032225905564527E-018
  -50.4700000000000        -3.019842527291429E-018
  -50.2800000000000        -3.026255236507677E-018
  -50.0900000000000        -3.050688564077892E-018
  -49.9000000000000        -3.086845417412350E-018
  -49.7100000000000        -3.124715179423224E-018
  -49.5200000000000        -3.153479827713736E-018
  -49.3300000000000        -3.164675789623683E-018
  -49.1400000000000        -3.154694887646040E-018
  -48.9500000000000        -3.125897986444841E-018
  -48.7600000000000        -3.086015165083189E-018
  -48.5700000000000        -3.046001401271975E-018
  -48.3800000000000        -3.016963847285285E-018
  -48.1900000000000        -3.007045936943757E-018
  -48.0000000000000        -3.019166325987942E-018
  -47.8100000000000        -3.050263209198530E-018
  -47.6200000000000        -3.092258674765568E-018
  -47.4300000000000        -3.134459864137857E-018
  -47.2400000000000        -3.166698188948214E-018
  -47.0500000000000        -3.182295013256041E-018
  -46.8600000000000        -3.179993209000011E-018
  -46.6700000000000        -3.164293718890324E-018
  -46.4800000000000        -3.144098473647317E-018
  -46.2900000000000        -3.130052949733890E-018
  -46.1000000000000        -3.131361097803781E-018
  -45.9100000000000        -3.153001175588888E-018
  -45.7200000000000        -3.194156288803632E-018
  -45.5300000000000        -3.248320734831797E-018
  -45.3400000000000        -3.305055872088190E-018
  -45.1500000000000        -3.352890518720884E-018
  -44.9600000000000        -3.382530677416571E-018
  -44.7700000000000        -3.389456224275788E-018
  -44.5800000000000        -3.375160781669821E-018
  -44.3900000000000        -3.346682020681297E-018
  -44.2000000000000        -3.314560634036615E-018
  -44.0100000000000        -3.289817141863343E-018
  -43.8200000000000        -3.280817620405313E-018
  -43.6300000000000        -3.290930968056490E-018
  -43.4400000000000        -3.317651318859603E-018
  -43.2500000000000        -3.353434639528925E-018
  -43.0600000000000        -3.388000780698457E-018
  -42.8700000000000        -3.411426258116114E-018
  -42.6800000000000        -3.417123660725712E-018
  -42.4900000000000        -3.403838005894622E-018
  -42.3000000000000        -3.376078060614966E-018
  -42.1100000000000        -3.342856987978822E-018
  -41.9200000000000        -3.315108365330855E-018
  -41.7300000000000        -3.302527980781447E-018
  -41.5400000000000        -3.310758180861740E-018
  -41.3500000000000        -3.339732505119626E-018
  -41.1600000000000        -3.383662530215536E-018
  -40.9700000000000        -3.432672859827754E-018
  -40.7800000000000        -3.475611886279467E-018
  -40.5900000000000        -3.503224885014749E-018
  -40.4000000000000        -3.510771875572411E-018
  -40.2100000000000        -3.499335273538001E-018
  -40.0200000000000        -3.475443215244533E-018
  -39.8300000000000        -3.449122145785532E-018
  -39.6400000000000        -3.430945629438807E-018
  -39.4500000000000        -3.428935283747487E-018
  -39.2600000000000        -3.446211933366937E-018
  -39.0700000000000        -3.480078420900980E-018
  -38.8800000000000        -3.522801312116178E-018
  -38.6900000000000        -3.563865394928471E-018
  -38.5000000000000        -3.593045262056454E-018
  -38.3100000000000        -3.603398454433965E-018
  -38.1200000000000        -3.593306119497808E-018
  -37.9300000000000        -3.566964759308460E-018
  -37.7400000000000        -3.533185329089354E-018
  -37.5500000000000        -3.502850328920798E-018
  -37.3600000000000        -3.485770062327716E-018
  -37.1700000000000        -3.487852230604624E-018
  -36.9800000000000        -3.509405905389613E-018
  -36.7900000000000        -3.545070610817077E-018
  -36.6000000000000        -3.585390150810874E-018
  -36.4100000000000        -3.619574738365134E-018
  -36.2200000000000        -3.638650770837891E-018
  -36.0300000000000        -3.638084540620375E-018
  -35.8400000000000        -3.619117679527507E-018
  -35.6500000000000        -3.588425429414892E-018
  -35.4600000000000        -3.556196037772132E-018
  -35.2700000000000        -3.533188536689878E-018
  -35.0800000000000        -3.527622765290943E-018
  -34.8900000000000        -3.542803740465696E-018
  -34.7000000000000        -3.576169108654222E-018
  -34.5100000000000        -3.620035683964532E-018
  -34.3200000000000        -3.663828401267227E-018
  -34.1300000000000        -3.697144739272260E-018
  -33.9400000000000        -3.712764314443989E-018
  -33.7500000000000        -3.708727937698248E-018
  -33.5600000000000        -3.688879965427877E-018
  -33.3700000000000        -3.661715145207435E-018
  -33.1800000000000        -3.637866176478950E-018
  -32.9900000000000        -3.626965467087059E-018
  -32.8000000000000        -3.634797145923147E-018
  -32.6100000000000        -3.661570067045620E-018
  -32.4200000000000        -3.701815232688932E-018
  -32.2300000000000        -3.745938424762561E-018
  -32.0400000000000        -3.782978934963875E-018
  -31.8500000000000        -3.803776570814878E-018
  -31.6600000000000        -3.803630805348495E-018
  -31.4700000000000        -3.783681281743892E-018
  -31.2800000000000        -3.750606787774107E-018
  -31.0900000000000        -3.714725661813247E-018
  -30.9000000000000        -3.687044576057934E-018
  -30.7100000000000        -3.676109594703198E-018
  -30.5200000000000        -3.685572692848457E-018
  -30.3300000000000        -3.713179872422952E-018
  -30.1400000000000        -3.751473382017619E-018
  -29.9500000000000        -3.790001499448390E-018
  -29.7600000000000        -3.818391189321905E-018
  -29.5700000000000        -3.829389243047856E-018
  -29.3800000000000        -3.820987938275513E-018
  -29.1900000000000        -3.797018032874564E-018
  -29.0000000000000        -3.766037498379553E-018
  -28.8100000000000        -3.738839671580363E-018
  -28.6200000000000        -3.725305858376869E-018
  -28.4300000000000        -3.731518289943685E-018
  -28.2400000000000        -3.757973808328051E-018
  -28.0500000000000        -3.799418143779506E-018
  -27.8600000000000        -3.846348617278485E-018
  -27.6700000000000        -3.887747992215612E-018
  -27.4800000000000        -3.914255679996358E-018
  -27.2900000000000        -3.920857266053041E-018
  -27.1000000000000        -3.908314102257986E-018
  -26.9100000000000        -3.882919750238367E-018
  -26.7200000000000        -3.854653843155825E-018
  -26.5300000000000        -3.834267489069151E-018
  -26.3400000000000        -3.830144619964908E-018
  -26.1500000000000        -3.845850807743639E-018
  -25.9600000000000        -3.879083866012176E-018
  -25.7700000000000        -3.922334247201237E-018
  -25.5800000000000        -3.965065400320862E-018
  -25.3900000000000        -3.996780798937572E-018
  -25.2000000000000        -4.010085645947989E-018
  -25.0100000000000        -4.002853051145732E-018
  -24.8200000000000        -3.978865626985015E-018
  -24.6300000000000        -3.946746620974022E-018
  -24.4400000000000        -3.917489981437211E-018
  -24.2500000000000        -3.901302811642233E-018
  -24.0600000000000        -3.904671208547819E-018
  -23.8700000000000        -3.928495689230121E-018
  -23.6800000000000        -3.967833816744358E-018
  -23.4900000000000        -4.013323559707068E-018
  -23.3000000000000        -4.053875139091672E-018
  -23.1100000000000        -4.079852404292587E-018
  -22.9200000000000        -4.085823846104600E-018
  -22.7300000000000        -4.072089492928602E-018
  -22.5400000000000        -4.044546322172233E-018
  -22.3500000000000        -4.012937045405251E-018
  -22.1600000000000        -3.987994727264995E-018
  -21.9700000000000        -3.978313902268448E-018
  -21.7800000000000        -3.987856750434548E-018
  -21.5900000000000        -4.014818272186919E-018
  -21.4000000000000        -4.052180148261285E-018
  -21.2100000000000        -4.089792614512750E-018
  -21.0200000000000        -4.117378949752280E-018
  -20.8300000000000        -4.127587224286635E-018
  -20.6400000000000        -4.118198265598516E-018
  -20.4500000000000        -4.092843271422710E-018
  -20.2600000000000        -4.060018102705858E-018
  -20.0700000000000        -4.030676594502666E-018
  -19.8800000000000        -4.015097302994781E-018
  -19.6900000000000        -4.019927880418965E-018
  -19.5000000000000        -4.046259417885903E-018
  -19.3100000000000        -4.089285997281281E-018
  -19.1200000000000        -4.139648716788060E-018
  -18.9300000000000        -4.186079368343862E-018
  -18.7400000000000        -4.218584769240374E-018
  -18.5500000000000        -4.231255896588487E-018
  -18.3600000000000        -4.223893137976525E-018
  -18.1700000000000        -4.201980932410445E-018
  -17.9800000000000        -4.175023193275202E-018
  -17.7900000000000        -4.153725923415957E-018
  -17.6000000000000        -4.146847029054716E-018
  -17.4100000000000        -4.158628525615743E-018
  -17.2200000000000        -4.187555581595545E-018
  -17.0300000000000        -4.226800352425376E-018
  -16.8400000000000        -4.266219116736665E-018
  -16.6500000000000        -4.295320507574166E-018
  -16.4600000000000        -4.306340450499468E-018
  -16.2700000000000        -4.296527565428408E-018
  -16.0800000000000        -4.268971476330980E-018
  -15.8900000000000        -4.231730185742466E-018
  -15.7000000000000        -4.195508494281653E-018
  -15.5100000000000        -4.170562799781517E-018
  -15.3200000000000        -4.163734233121810E-018
  -15.1300000000000        -4.176474854253738E-018
  -14.9400000000000        -4.204441668100398E-018
  -14.7500000000000        -4.238776721892701E-018
  -14.5600000000000        -4.268702362162859E-018
  -14.3700000000000        -4.284679922740803E-018
  -14.1800000000000        -4.281216458808185E-018
  -13.9900000000000        -4.258504636733235E-018
  -13.8000000000000        -4.222417300562549E-018
  -13.6100000000000        -4.182854383244700E-018
  -13.4200000000000        -4.150918652229753E-018
  -13.2300000000000        -4.135739067922339E-018
  -13.0400000000000        -4.141865000387816E-018
  -12.8500000000000        -4.167988915212683E-018
  -12.6600000000000        -4.207367501580099E-018
  -12.4700000000000        -4.249815707826185E-018
  -12.2800000000000        -4.284690047939075E-018
  -12.0900000000000        -4.303990504762109E-018
  -11.9000000000000        -4.304677780534532E-018
  -11.7100000000000        -4.289533099003682E-018
  -11.5200000000000        -4.266312846631640E-018
  -11.3300000000000        -4.245446176641392E-018
  -11.1400000000000        -4.236947273189871E-018
  -10.9500000000000        -4.247442830862813E-018
  -10.7600000000000        -4.278182145512146E-018
  -10.5700000000000        -4.324610879350970E-018
  -10.3800000000000        -4.377633715869645E-018
  -10.1900000000000        -4.426199271324480E-018
  -10.0000000000000        -4.460456413189391E-018
  -9.81000000000000        -4.474566269141681E-018
  -9.62000000000000        -4.468355664709246E-018
  -9.42999999999999        -4.447334420932930E-018
  -9.23999999999999        -4.421072600191523E-018
  -9.05000000000000        -4.400408406749178E-018
  -8.86000000000000        -4.394296839205292E-018
  -8.67000000000000        -4.407214456213798E-018
  -8.48000000000000        -4.437874691838085E-018
  -8.28999999999999        -4.479626979131377E-018
  -8.09999999999999        -4.522422314608776E-018
  -7.91000000000000        -4.555770948783644E-018
  -7.72000000000000        -4.571828677658893E-018
  -7.53000000000000        -4.567711933806710E-018
  -7.34000000000000        -4.546368331674685E-018
  -7.15000000000001        -4.515750350559750E-018
  -6.95999999999999        -4.486531685257300E-018
  -6.77000000000000        -4.469026375928478E-018
  -6.58000000000000        -4.470199930638743E-018
  -6.39000000000000        -4.491634563966818E-018
  -6.20000000000000        -4.529036153298370E-018
  -6.01000000000001        -4.573427281327807E-018
  -5.81999999999999        -4.613685011178020E-018
  -5.63000000000000        -4.639693411385346E-018
  -5.44000000000000        -4.645203017486849E-018
  -5.25000000000000        -4.629575157828139E-018
  -5.06000000000000        -4.597912964571016E-018
  -4.87000000000000        -4.559547852869092E-018
  -4.67999999999999        -4.525324821672556E-018
  -4.48999999999999        -4.504475195327961E-018
  -4.30000000000000        -4.501981979795808E-018
  -4.11000000000000        -4.517197969347241E-018
  -3.92000000000000        -4.544112807202332E-018
  -3.73000000000000        -4.573187252848442E-018
  -3.53999999999999        -4.594218343276421E-018
  -3.34999999999999        -4.599399757552767E-018
  -3.16000000000000        -4.585685173672467E-018
  -2.97000000000000        -4.555765306880291E-018
  -2.78000000000000        -4.517372321876932E-018
  -2.59000000000000        -4.481111228068432E-018
  -2.40000000000001        -4.457445293207188E-018
  -2.20999999999999        -4.453706917792832E-018
  -2.02000000000000        -4.471996785268085E-018
  -1.83000000000000        -4.508577159196619E-018
  -1.64000000000000        -4.554935174165771E-018
  -1.45000000000000        -4.600211444106043E-018
  -1.26000000000001        -4.634295121228748E-018
  -1.06999999999999        -4.650692552992384E-018
 -0.879999999999995        -4.648340388604373E-018
 -0.689999999999998        -4.631838506416612E-018
 -0.500000000000000        -4.610036422275680E-018
 -0.310000000000002        -4.593385893630381E-018
 -0.120000000000005        -4.590831525369530E-018
  7.000000000000739E-002   -4.607144678842930E-018
  0.260000000000005        -4.641475837453974E-018
  0.450000000000003        -4.687546015944731E-018
  0.640000000000001        -4.735421846586702E-018
  0.829999999999998        -4.774359159326714E-018
   1.02000000000000        -4.795889612144358E-018
   1.21000000000001        -4.796254233674630E-018
   1.40000000000001        -4.777476712790388E-018
   1.59000000000000        -4.746763564249470E-018
   1.78000000000000        -4.714404889079377E-018
   1.97000000000000        -4.690787144207250E-018
   2.16000000000000        -4.683389134006279E-018
   2.34999999999999        -4.694637299910314E-018
   2.54000000000001        -4.721245093605765E-018
   2.73000000000000        -4.755227774021692E-018
   2.92000000000000        -4.786295226953559E-018
   3.11000000000000        -4.804924033071401E-018
   3.30000000000000        -4.805212186157343E-018
   3.48999999999999        -4.786681631508113E-018
   3.68000000000001        -4.754497156077704E-018
   3.87000000000000        -4.718029349816188E-018
   4.06000000000000        -4.688172868690167E-018
   4.25000000000000        -4.674197453395646E-018
   4.44000000000000        -4.681049123409842E-018
   4.63000000000000        -4.707890598754793E-018
   4.82000000000001        -4.748310350250221E-018
   5.01000000000001        -4.792143545069470E-018
   5.20000000000000        -4.828378096982508E-018
   5.39000000000000        -4.848303216784398E-018
   5.58000000000000        -4.847988000360275E-018
   5.77000000000000        -4.829372599911178E-018
   5.96000000000001        -4.799657201801603E-018
   6.15000000000001        -4.769167969827564E-018
   6.34000000000000        -4.748321121225557E-018
   6.53000000000000        -4.744568084664047E-018