  -105.000000000000        -7.157768128049793E-019
  -104.810000000000        -5.421526538229442E-019
  -104.620000000000        -2.532658105371437E-019
  -104.430000000000         6.993392382987946E-020
  -104.240000000000         3.374707423765027E-019
  -104.050000000000         4.762569772446631E-019
  -103.860000000000         4.510944737028514E-019
  -103.670000000000         2.746577987392313E-019
  -103.480000000000         3.556988050330280E-021
  -103.290000000000        -2.783573347527369E-019
  -103.100000000000        -4.845570955503862E-019
  -102.910000000000        -5.510989880485267E-019
  -102.720000000000        -4.552489845160329E-019
  -102.530000000000        -2.220972783919537E-019
  -102.340000000000         8.271572183298725E-020
  -102.150000000000         3.720397243564710E-019
  -101.960000000000         5.625185186347580E-019
  -101.770000000000         5.988446372663687E-019
  -101.580000000000         4.699301796728906E-019
  -101.390000000000         2.122686138452263E-019
  -101.200000000000        -1.005339030221737E-019
  -101.010000000000        -3.790404712013109E-019
  -100.820000000000        -5.438807580597988E-019
  -100.630000000000        -5.487070922477610E-019
  -100.440000000000        -3.935297950070934E-019
  -100.250000000000        -1.245874693985724E-019
  -100.060000000000         1.791619319477070E-019
  -99.8700000000000         4.289781342005487E-019
  -99.6800000000000         5.520578071790089E-019
  -99.4900000000000         5.126132596602611E-019
  -99.3000000000000         3.222287956154319E-019
  -99.1100000000000         3.648961898252316E-020
  -98.9200000000000        -2.611675440459134E-019
  -98.7300000000000        -4.837195916410529E-019
  -98.5400000000000        -5.658876743013283E-019
  -98.3500000000000        -4.831473213983712E-019
  -98.1600000000000        -2.588704315812208E-019
  -97.9700000000000         4.247450447483495E-020
  -97.7800000000000         3.340619632414732E-019
  -97.5900000000000         5.319172324771692E-019
  -97.4000000000000         5.792679207072505E-019
  -97.2100000000000         4.629917380415980E-019
  -97.0200000000000         2.174108250362586E-019
  -96.8300000000000        -8.566847425150728E-020
  -96.6400000000000        -3.578030352804204E-019
  -96.4500000000000        -5.196171891165884E-019
  -96.2600000000000        -5.238965351362594E-019
  -96.0700000000000        -3.693368308500412E-019
  -95.8800000000000        -1.009273038845308E-019
  -95.6900000000000         2.031441022249638E-019
  -95.5000000000000         4.542332141678178E-019
  -95.3100000000000         5.789970004429596E-019
  -95.1200000000000         5.406877755617574E-019
  -94.9300000000000         3.498326326778173E-019
  -94.7400000000000         6.122646566588149E-020
  -94.5500000000000        -2.418934030907451E-019
  -94.3600000000000        -4.719363121097566E-019
  -94.1700000000000        -5.623625803853724E-019
  -93.9800000000000        -4.870431088503616E-019
  -93.7900000000000        -2.679269850618797E-019
  -93.6000000000000         3.125643706042672E-020
  -93.4100000000000         3.234618397985141E-019
  -93.2200000000000         5.235890395772558E-019
  -93.0300000000000         5.731779684003498E-019
  -92.8400000000000         4.573556931902459E-019
  -92.6500000000000         2.091378144665099E-019
  -92.4600000000000        -1.001245569610692E-019
  -92.2700000000000        -3.813582248131000E-019
  -92.0800000000000        -5.534809504472170E-019
  -91.8900000000000        -5.668057521937041E-019
  -91.7000000000000        -4.173895279415963E-019
  -91.5100000000000        -1.481646696230925E-019
  -91.3200000000000         1.635072341171438E-019
  -91.1300000000000         4.282761938239225E-019
  -90.9400000000000         5.707222894756319E-019
  -90.7500000000000         5.512005139017822E-019
  -90.5600000000000         3.772490426195171E-019
  -90.3700000000000         1.012565943341231E-019
  -90.1800000000000        -1.949014455559960E-019
  -89.9900000000000        -4.237665570869619E-019
  -89.8000000000000        -5.177945816549575E-019
  -89.6100000000000        -4.490615902123084E-019
  -89.4200000000000        -2.374708625469517E-019
  -89.2300000000000         5.493276090830560E-020
  -89.0400000000000         3.419222569885063E-019
  -88.8500000000000         5.381361918981514E-019
  -88.6600000000000         5.839469853142381E-019
  -88.4700000000000         4.629066997260385E-019
  -88.2800000000000         2.066750196405706E-019
  -88.0900000000000        -1.140109406867417E-019
  -87.9000000000000        -4.096840570137839E-019
  -87.7100000000000        -5.978824452647784E-019
  -87.5200000000000        -6.268128583544381E-019
  -87.3300000000000        -4.901248145483208E-019
  -87.1400000000000        -2.285665740274525E-019
  -86.9500000000000         8.193045375321390E-020
  -86.7600000000000         3.522956735592005E-019
  -86.5700000000000         5.061239740485541E-019
  -86.3800000000000         5.017596288848946E-019
  -86.1900000000000         3.442258529998244E-019
  -86.0000000000000         8.351211702210484E-020
  -85.8100000000000        -2.002703479391036E-019
  -85.6200000000000        -4.204976176532965E-019
  -85.4300000000000        -5.094846259700463E-019
  -85.2400000000000        -4.383519203601189E-019
  -85.0500000000000        -2.255434253153641E-019
  -84.8600000000000         6.845082282289815E-020
  -84.6700000000000         3.586142723314863E-019
  -84.4800000000000         5.600845794816020E-019
  -84.2900000000000         6.128552610071702E-019
  -84.1000000000000         4.993432542150466E-019
  -83.9100000000000         2.497032484171975E-019
  -83.7200000000000        -6.670465796245587E-020
  -83.5300000000000        -3.612656434705070E-019
  -83.3400000000000        -5.517002407204297E-019
  -83.1500000000000        -5.858379995418173E-019
  -82.9600000000000        -4.566375007760093E-019
  -82.7700000000000        -2.040874486693701E-019
  -82.5800000000000         9.652827103079280E-020
  -82.3900000000000         3.565545829354600E-019
  -82.2000000000000         4.997095688799019E-019
  -82.0100000000000         4.842093442295449E-019
  -81.8200000000000         3.148833615633218E-019
  -81.6300000000000         4.176195069000785E-020
  -81.4400000000000        -2.544813181590015E-019
  -81.2500000000000        -4.860271946276768E-019
  -81.0600000000000        -5.835199975433228E-019
  -80.8700000000000        -5.163275655853785E-019
  -80.6800000000000        -3.015488182818840E-019
  -80.4900000000000         8.461186483066654E-022
  -80.3000000000000         3.053180974924632E-019
  -80.1100000000000         5.254737894254538E-019
  -79.9200000000000         5.990326117858352E-019
  -79.7300000000000         5.058261207348020E-019
  -79.5400000000000         2.736284975541269E-019
  -79.3500000000000        -2.987210889626239E-020
  -79.1600000000000        -3.166566078170731E-019
  -78.9700000000000        -5.038688076426463E-019
  -78.7800000000000        -5.378441084935902E-019
  -78.5900000000000        -4.096820001923036E-019
  -78.4000000000000        -1.578014360139899E-019
  -78.2100000000000         1.432826873122408E-019
  -78.0200000000000         4.046790548032103E-019
  -77.8300000000000         5.489874952945905E-019
  -77.6400000000000         5.327943398052294E-019
  -77.4500000000000         3.593052481709827E-019
  -77.2600000000000         7.750391208068879E-020
  -77.0700000000000        -2.319062819345586E-019
  -76.8800000000000        -4.797507743905242E-019
  -76.6900000000000        -5.941578454087398E-019
  -76.5000000000000        -5.414265877528828E-019
  -76.3100000000000        -3.359182204474019E-019
  -76.1200000000000        -3.604765086702303E-020
  -75.9300000000000         2.725087160509199E-019
  -75.7400000000000         5.015353232150763E-019
  -75.5500000000000         5.857509531201469E-019
  -75.3600000000000         5.016290237441836E-019
  -75.1700000000000         2.741040445160181E-019
  -74.9800000000000        -3.075608953526947E-020
  -74.7900000000000        -3.249456781692667E-019
  -74.6000000000000        -5.239903367948083E-019
  -74.4100000000000        -5.713123997519868E-019
  -74.2200000000000        -4.544647018440738E-019
  -74.0300000000000        -2.085624086288201E-019
  -73.8400000000000         9.406865051998177E-020
  -73.6500000000000         3.650280102121504E-019
  -73.4600000000000         5.256210550486232E-019
  -73.2700000000000         5.297692416615347E-019
  -73.0800000000000         3.773659984452847E-019
  -72.8900000000000         1.142040120332932E-019
  -72.7000000000000        -1.814634713740119E-019
  -72.5100000000000        -4.217866907726538E-019
  -72.3200000000000        -5.349679688126204E-019
  -72.1300000000000        -4.862685703748785E-019
  -71.9400000000000        -2.882774020263299E-019
  -71.7500000000000         2.574258504526198E-021
  -71.5600000000000         3.022897618076951E-019
  -71.3700000000000         5.236748688329455E-019
  -71.1800000000000         6.017004908221219E-019
  -70.9900000000000         5.124467503260131E-019
  -70.8000000000000         2.800898227567144E-019
  -70.6100000000000        -3.009408988999024E-020
  -70.4200000000000        -3.306349253453589E-019
  -70.2300000000000        -5.371447660442007E-019
  -70.0400000000000        -5.926011016637741E-019
  -69.8500000000000        -4.836155192511914E-019
  -69.6600000000000        -2.440383069443801E-019
  -69.4700000000000         5.507472593235950E-020
  -69.2800000000000         3.261996855996901E-019
  -69.0900000000000         4.908001237237163E-019
  -68.9000000000000         5.021476657317819E-019
  -68.7100000000000         3.588722783456390E-019
  -68.5200000000000         1.052570595675764E-019
  -68.3300000000000        -1.818456700901356E-019
  -68.1400000000000        -4.156562191242181E-019
  -67.9500000000000        -5.250170734418046E-019
  -67.7600000000000        -4.753504658628408E-019
  -67.5700000000000        -2.788991539507058E-019
  -67.3800000000000         8.716372929532400E-021
  -67.1900000000000         3.046019175159780E-019
  -67.0000000000000         5.226653569069130E-019
  -66.8100000000000         5.986678686540872E-019
  -66.6200000000000         5.089685934277839E-019
  -66.4300000000000         2.775096803528139E-019
  -66.2400000000000        -3.099418277234172E-020
  -66.0500000000000        -3.296899749653766E-019
  -65.8600000000000        -5.346383919467566E-019
  -65.6700000000000        -5.890120449510565E-019
  -65.4800000000000        -4.794194633880125E-019
  -65.2900000000000        -2.396362264335004E-019
  -65.1000000000000         5.930563489245918E-020
  -64.9100000000000         3.297698451708652E-019
  -64.7200000000000         4.929300515928880E-019
  -64.5300000000000         5.016211311483865E-019
  -64.3400000000000         3.540459192320216E-019
  -64.1500000000000         9.436252196465820E-020
  -63.9600000000000        -2.000726971506758E-019
  -63.7700000000000        -4.411719224353032E-019
  -63.5800000000000        -5.557926122614351E-019
  -63.3900000000000        -5.071316266967741E-019
  -63.2000000000000        -3.055731646126883E-019
  -63.0100000000000        -5.826894345348468E-021
  -62.8200000000000         3.087847309723673E-019
  -62.6300000000000         5.502969115932290E-019
  -62.4400000000000         6.513758865076264E-019
  -62.2500000000000         5.846063469230858E-019
  -62.0600000000000         3.702622438247221E-019
  -61.8700000000000         7.035416736006210E-020
  -61.6800000000000        -2.293189128682458E-019
  -61.4900000000000        -4.439495654334211E-019
  -61.3000000000000        -5.141986867173513E-019
  -61.1100000000000        -4.232968142602430E-019
  -60.9200000000000        -2.017974114570604E-019
  -60.7300000000000         8.143064474451418E-020
  -60.5400000000000         3.393779987420584E-019
  -60.3500000000000         4.923674852513864E-019
  -60.1600000000000         4.913985226577778E-019
  -59.9700000000000         3.325728332319933E-019
  -59.7800000000000         5.842569285809608E-020
  -59.5900000000000        -2.542191646440935E-019
  -59.4000000000000        -5.163764477736078E-019
  -59.2100000000000        -6.526350699580126E-019
  -59.0200000000000        -6.230587392478276E-019
  -58.8300000000000        -4.348765323642605E-019
  -58.6400000000000        -1.405286264571600E-019
  -58.4500000000000         1.773928462397634E-019
  -58.2600000000000         4.299313418464309E-019
  -58.0700000000000         5.473574738765536E-019
  -57.8800000000000         4.991391992947539E-019
  -57.6900000000000         3.025364267334202E-019
  -57.5000000000000         1.738640316975512E-020
  -57.3100000000000        -2.713636135847228E-019
  -57.1200000000000        -4.783036466203436E-019
  -56.9300000000000        -5.422704673731573E-019
  -56.7400000000000        -4.440013039515347E-019
  -56.5500000000000        -2.116438507327692E-019
  -56.3600000000000         8.748633827135324E-020
  -56.1700000000000         3.665500893347961E-019
  -55.9800000000000         5.445498443213930E-019
  -55.7900000000000         5.700168499984792E-019
  -55.6000000000000         4.360700952222667E-019
  -55.4100000000000         1.824206621030363E-019
  -55.2200000000000        -1.162563535667051E-019
  -55.0300000000000        -3.721549922849200E-019
  -54.8400000000000        -5.099849520036873E-019
  -54.6500000000000        -4.889658999635064E-019
  -54.4600000000000        -3.147888171232599E-019
  -54.2700000000000        -3.806554717703482E-020
  -54.0800000000000         2.603130296912230E-019
  -53.8900000000000         4.926845306955885E-019
  -53.7000000000000         5.901536054497924E-019
  -53.5100000000000         5.227081227081905E-019
  -53.3200000000000         3.080367221887066E-019
  -53.1300000000000         6.476433009471851E-021
  -52.9400000000000        -2.964298894342612E-019
  -52.7500000000000        -5.146792221904858E-019
  -52.5600000000000        -5.866598425754640E-019
  -52.3700000000000        -4.929065675564729E-019
  -52.1800000000000        -2.616390668674129E-019
  -51.9900000000000         3.949555921591951E-020
  -51.8000000000000         3.230781506464772E-019
  -51.6100000000000         5.072907433276608E-019
  -51.4200000000000         5.396666521525883E-019
  -51.2300000000000         4.123140170495077E-019
  -51.0400000000000         1.641461016285619E-019
  -50.8500000000000        -1.305750409093182E-019
  -50.6600000000000        -3.840450497059552E-019
  -50.4700000000000        -5.206672434722159E-019
  -50.2800000000000        -4.991861039880100E-019
  -50.0900000000000        -3.247514062117059E-019
  -49.9000000000000        -4.744899380652628E-020
  -49.7100000000000         2.522192166305185E-019
  -49.5200000000000         4.866672127580420E-019
  -49.3300000000000         5.866167281880819E-019
  -49.1400000000000         5.212188150569449E-019
  -48.9500000000000         3.070892011205997E-019
  -48.7600000000000         3.627214669295651E-021
  -48.5700000000000        -3.040501336433094E-019
  -48.3800000000000        -5.296300178715546E-019
  -48.1900000000000        -6.104792073604423E-019
  -48.0000000000000        -5.256646583491116E-019
  -47.8100000000000        -3.018997882673208E-019
  -47.6200000000000        -5.698720367097107E-021
  -47.4300000000000         2.759796277543793E-019
  -47.2400000000000         4.609833934218826E-019
  -47.0500000000000         4.958068854254265E-019
  -46.8600000000000         3.711270319572203E-019
  -46.6700000000000         1.245361532775855E-019
  -46.4800000000000        -1.703523914011231E-019
  -46.2900000000000        -4.253094732220979E-019
  -46.1000000000000        -5.632113494519697E-019
  -45.9100000000000        -5.405826988819208E-019
  -45.7200000000000        -3.603693300116466E-019
  -45.5300000000000        -7.121028333041577E-020
  -45.3400000000000         2.465509868060270E-019
  -45.1500000000000         5.040024359282171E-019
  -44.9600000000000         6.292136242789376E-019
  -44.7700000000000         5.878390433569054E-019
  -44.5800000000000         3.928897058879917E-019
  -44.3900000000000         1.009037577883237E-019
  -44.2000000000000        -2.043738080723180E-019
  -44.0100000000000        -4.361210724443349E-019
  -43.8200000000000        -5.294423575958137E-019
  -43.6300000000000        -4.600277881422649E-019
  -43.4400000000000        -2.510517968478670E-019
  -43.2500000000000         3.371688365066984E-020
  -43.0600000000000         3.086056440962525E-019
  -42.8700000000000         4.910824046554157E-019
  -42.6800000000000         5.258464665010393E-019
  -42.4900000000000         4.009498739215036E-019
  -42.3000000000000         1.512777661076636E-019
  -42.1100000000000        -1.515914124148338E-019
  -41.9200000000000        -4.201728005141276E-019
  -41.7300000000000        -5.764704883573854E-019
  -41.5400000000000        -5.746294786036762E-019
  -41.3500000000000        -4.142853417734908E-019
  -41.1600000000000        -1.407286569614698E-019
  -40.9700000000000         1.681801429502954E-019
  -40.7800000000000         4.245437040562303E-019
  -40.5900000000000         5.558451018732045E-019
  -40.4000000000000         5.258612906390500E-019
  -40.2100000000000         3.450264891705875E-019
  -40.0200000000000         6.728562785408373E-020
  -39.8300000000000        -2.256108895366793E-019
  -39.6400000000000        -4.478163616455940E-019
  -39.4500000000000        -5.342657980823038E-019
  -39.2600000000000        -4.595522968030763E-019
  -39.0700000000000        -2.453297418602580E-019
  -38.8800000000000         4.595037127157481E-020
  -38.6900000000000         3.292026505349334E-019
  -38.5000000000000         5.215145360241102E-019
  -38.3100000000000         5.663580973315982E-019
  -38.1200000000000         4.501115028584108E-019
  -37.9300000000000         2.060407210459544E-019
  -37.7400000000000        -9.541357480746231E-020
  -37.5500000000000        -3.671671350546943E-019
  -37.3600000000000        -5.308153703598452E-019
  -37.1700000000000        -5.393769115811662E-019
  -36.9800000000000        -3.908872754148459E-019
  -36.7900000000000        -1.289427857709731E-019
  -36.6000000000000         1.699432808735738E-019
  -36.4100000000000         4.185195313435939E-019
  -36.2200000000000         5.441069997305248E-019
  -36.0300000000000         5.097127666302617E-019
  -35.8400000000000         3.248030199375983E-019
  -35.6500000000000         4.258009778795340E-020
  -35.4600000000000        -2.554540321470066E-019
  -35.2700000000000        -4.831504067400938E-019
  -35.0800000000000        -5.747021211548364E-019
  -34.8900000000000        -5.037227981654229E-019
  -34.7000000000000        -2.908921640383398E-019
  -34.5100000000000         2.045928188750918E-021
  -34.3200000000000         2.902044126776193E-019
  -34.1300000000000         4.902150369336667E-019
  -33.9400000000000         5.444862026999660E-019
  -33.7500000000000         4.379943358623450E-019
  -33.5600000000000         2.026827686999978E-019
  -33.3700000000000        -9.185184188244878E-020
  -33.1800000000000        -3.586775439499541E-019
  -32.9900000000000        -5.189027209966703E-019
  -32.8000000000000        -5.246881519774083E-019
  -32.6100000000000        -3.731923689983159E-019
  -32.4200000000000        -1.074245548564235E-019
  -32.2300000000000         1.961961737483303E-019
  -32.0400000000000         4.499411177371593E-019
  -31.8500000000000         5.801496209802148E-019
  -31.6600000000000         5.485805578454468E-019
  -31.4700000000000         3.635725862931076E-019
  -31.2800000000000         7.774603853392299E-020
  -31.0900000000000        -2.271479281314622E-019
  -30.9000000000000        -4.638810083262735E-019
  -30.7100000000000        -5.650437534624232E-019
  -30.5200000000000        -5.026061337738914E-019
  -30.3300000000000        -2.960202221653951E-019
  -30.1400000000000        -6.498832025066190E-021
  -29.9500000000000         2.808428686220777E-019
  -29.7600000000000         4.817627741707395E-019
  -29.5700000000000         5.373783517533091E-019
  -29.3800000000000         4.312631753076052E-019
  -29.1900000000000         1.942002519130855E-019
  -29.0000000000000        -1.047841466986356E-019
  -28.8100000000000        -3.785045317367443E-019
  -28.6200000000000        -5.469873897592638E-019
  -28.4300000000000        -5.607503273559366E-019
  -28.2400000000000        -4.152026888390625E-019
  -28.0500000000000        -1.519705830338887E-019
  -27.8600000000000         1.532160266440749E-019
  -27.6700000000000         4.125121095950558E-019
  -27.4800000000000         5.514155602233544E-019
  -27.2900000000000         5.303254806576131E-019
  -27.1000000000000         3.559885934781777E-019
  -26.9100000000000         7.954446157679694E-020
  -26.7200000000000        -2.182701660904955E-019
  -26.5300000000000        -4.505120493748384E-019
  -26.3400000000000        -5.492813540989848E-019
  -26.1500000000000        -4.855088778339654E-019
  -25.9600000000000        -2.774881695435982E-019
  -25.7700000000000         1.438304901484012E-020
  -25.5800000000000         3.051455540973530E-019
  -25.3900000000000         5.099875791217062E-019
  -25.2000000000000         5.689042053372896E-019
  -25.0100000000000         4.641226969101468E-019
  -24.8200000000000         2.252515747999340E-019
  -24.6300000000000        -7.928993003275466E-020
  -24.4400000000000        -3.620351729039365E-019
  -24.2500000000000        -5.417054487690846E-019
  -24.0600000000000        -5.666505201306648E-019
  -23.8700000000000        -4.297409094718528E-019
  -23.6800000000000        -1.704048600685436E-019
  -23.4900000000000         1.367912348505802E-019
  -23.3000000000000         4.037206145066462E-019
  -23.1100000000000         5.541779332105411E-019
  -22.9200000000000         5.458668971748622E-019
  -22.7300000000000         3.825157224479520E-019
  -22.5400000000000         1.126345155294233E-019
  -22.3500000000000        -1.846802943690953E-019
  -22.1600000000000        -4.227560427620724E-019
  -21.9700000000000        -5.325117219569463E-019
  -21.7800000000000        -4.825117336917594E-019
  -21.5900000000000        -2.880984576729465E-019
  -21.4000000000000        -6.941556152361000E-021
  -21.2100000000000         2.777321609954527E-019
  -21.0200000000000         4.813867231350220E-019
  -20.8300000000000         5.428596460519326E-019
  -20.6400000000000         4.422724511824461E-019
  -20.4500000000000         2.069300426882553E-019
  -20.2600000000000        -9.650029123711180E-020
  -20.0700000000000        -3.812248392051610E-019
  -19.8800000000000        -5.653703305282539E-019
  -19.6900000000000        -5.955944610180779E-019
  -19.5000000000000        -4.624665354139160E-019
  -19.3100000000000        -2.032171776010912E-019
  -19.1200000000000         1.089215498885459E-019
  -18.9300000000000         3.857410154928054E-019
  -18.7400000000000         5.494258600664729E-019
  -18.5500000000000         5.549552897527367E-019
  -18.3600000000000         4.030317715822166E-019
  -18.1700000000000         1.397654728300223E-019
  -17.9800000000000        -1.567997029362387E-019
  -17.7900000000000        -3.994009833241985E-019
  -17.6000000000000        -5.169083357969331E-019
  -17.4100000000000        -4.749462442873995E-019
  -17.2200000000000        -2.858092756240138E-019
  -17.0300000000000        -4.819764029351616E-021
  -16.8400000000000         2.857998192184818E-019
  -16.6500000000000         5.008711333019822E-019
  -16.4600000000000         5.770866480985973E-019
  -16.2700000000000         4.915014965753612E-019
  -16.0800000000000         2.682881299469457E-019
  -15.8900000000000        -2.824374314963833E-020
  -15.7000000000000        -3.123544864453191E-019
  -15.5100000000000        -5.018594969648048E-019
  -15.3200000000000        -5.420827643112124E-019
  -15.1300000000000        -4.217781915438272E-019
  -14.9400000000000        -1.764055386604599E-019
  -14.7500000000000         1.221444188959712E-019
  -14.5600000000000         3.863733986762963E-019
  -14.3700000000000         5.385325349186540E-019
  -14.1800000000000         5.331955164080204E-019
  -13.9900000000000         3.705128558376045E-019
  -13.8000000000000         9.627648607096381E-020
  -13.6100000000000        -2.112793989723096E-019
  -13.4200000000000        -4.641591885743408E-019
  -13.2300000000000        -5.901805200247231E-019
  -13.0400000000000        -5.539607301769771E-019
  -12.8500000000000        -3.671654166911024E-019
  -12.6600000000000        -8.503102156975584E-020
  -12.4700000000000         2.098023859609984E-019
  -12.2800000000000         4.314095094144144E-019
  -12.0900000000000         5.156005831193112E-019
  -11.9000000000000         4.385583740519338E-019
  -11.7100000000000         2.237000233017109E-019
  -11.5200000000000        -6.519618786132202E-020
  -11.3300000000000        -3.425974110450977E-019
  -11.1400000000000        -5.261623580183271E-019
  -10.9500000000000        -5.607688913128073E-019
  -10.7600000000000        -4.346099498473724E-019
  -10.5700000000000        -1.826621240956130E-019
  -10.3800000000000         1.234703895800780E-019
  -10.1900000000000         3.963549470892965E-019
  -10.0000000000000         5.580965626764828E-019
  -9.81000000000000         5.628936394660910E-019
  -9.62000000000000         4.102670178359671E-019
  -9.42999999999999         1.451683369831847E-019
  -9.23999999999999        -1.550589279518239E-019
  -9.05000000000000        -4.031198309823035E-019
  -8.86000000000000        -5.271242258280078E-019
  -8.67000000000000        -4.914852802155430E-019
  -8.48000000000000        -3.072590490029282E-019
  -8.28999999999999        -2.889330149880258E-020
  -8.09999999999999         2.616814765244382E-019
  -7.91000000000000         4.789724459728058E-019
  -7.72000000000000         5.588496600396582E-019
  -7.53000000000000         4.771982903003505E-019
  -7.34000000000000         2.569080050667372E-019
  -7.15000000000001        -3.876221087215041E-020
  -6.95999999999999        -3.244696945603024E-019
  -6.77000000000000        -5.174200564844716E-019
  -6.58000000000000        -5.612487151747453E-019
  -6.39000000000000        -4.422979502348082E-019
  -6.20000000000000        -1.936160304123439E-019
  -6.01000000000001         1.144985645214471E-019
  -5.81999999999999         3.947182726561070E-019
  -5.63000000000000         5.678336317403175E-019
  -5.44000000000000         5.855253673188334E-019
  -5.25000000000000         4.441643656071196E-019
  -5.06000000000000         1.856764112132292E-019
  -4.87000000000000        -1.147390721713879E-019
  -4.67999999999999        -3.704544280315986E-019
  -4.48999999999999        -5.084878341396331E-019
  -4.30000000000000        -4.905596976063032E-019
  -4.11000000000000        -3.240678200458985E-019
  -3.92000000000000        -5.982293049919000E-020
  -3.73000000000000         2.228076237709749E-019
  -3.53999999999999         4.390492008762541E-019
  -3.34999999999999         5.234348519846541E-019
  -3.16000000000000         4.488998036530779E-019
  -2.97000000000000         2.347124158222290E-019
  -2.78000000000000        -5.905515775229786E-020
  -2.59000000000000        -3.488963697301230E-019
  -2.40000000000001        -5.520099569774580E-019
  -2.20999999999999        -6.102006340612075E-019
  -2.02000000000000        -5.066622286227386E-019
  -1.83000000000000        -2.708487822885987E-019
  -1.64000000000000         2.996523625707579E-020
  -1.45000000000000         3.100441223702254E-019
  -1.26000000000001         4.899236941570778E-019
  -1.06999999999999         5.193793947824810E-019
 -0.879999999999995         3.919589418212663E-019
 -0.689999999999998         1.468199987029015E-019
 -0.500000000000000        -1.427023683001764E-019
 -0.310000000000002        -3.904753569099114E-019
 -0.120000000000005        -5.226460314196323E-019
  7.000000000000739E-002   -4.991137157243008E-019
  0.260000000000005        -3.251806060861464E-019
  0.450000000000003        -5.001806513058820E-020
  0.640000000000001         2.476043740154386E-019
  0.829999999999998         4.821844853841648E-019
   1.02000000000000         5.863111159937089E-019
   1.21000000000001         5.302532524796032E-019
   1.40000000000001         3.306268048940778E-019
   1.59000000000000         4.558245510177672E-020
   1.78000000000000        -2.421310331846541E-019
   1.97000000000000        -4.493001293948884E-019
   2.16000000000000        -5.165145735458447E-019
   2.34999999999999        -4.254744540558681E-019
   2.54000000000001        -2.042904908718975E-019
   2.73000000000000         8.075422393516050E-020
   2.92000000000000         3.445608535740822E-019
   3.11000000000000         5.080513305235609E-019
   3.30000000000000         5.212938430795734E-019
   3.48999999999999         3.782249523872595E-019
   3.68000000000001         1.186518235762767E-019
   3.87000000000000        -1.831392004291752E-019
   4.06000000000000        -4.399187210942037E-019
   4.25000000000000        -5.769275708785423E-019
   4.44000000000000        -5.537342196885009E-019
   4.63000000000000        -3.761295332542340E-019
   4.82000000000001        -9.455521672635683E-020
   5.01000000000001         2.104887231637363E-019
   5.20000000000000         4.517848230235662E-019
   5.39000000000000         5.606741336844768E-019
   5.58000000000000         5.069303054009983E-019
   5.77000000000000         3.074791595700329E-019
   5.96000000000001         2.143584112082737E-020
   6.15000000000001        -2.671020324662337E-019
   6.34000000000000        -4.735127989057027E-019
   6.53000000000000        -5.372741356633214E-019