  -105.000000000000        -1.412201525387007E-020
  -104.810000000000        -3.151891457474383E-020
  -104.620000000000        -2.663349634963964E-020
  -104.430000000000        -8.711283672747245E-021
  -104.240000000000         1.665844540361269E-021
  -104.050000000000        -7.639802100539524E-021
  -103.860000000000        -2.879709100268362E-020
  -103.670000000000        -4.168808936859005E-020
  -103.480000000000        -3.340261324670206E-020
  -103.290000000000        -1.087798556221280E-020
  -103.100000000000         5.440800298303952E-021
  -102.910000000000         9.073940806065196E-022
  -102.720000000000        -1.947897828141971E-020
  -102.530000000000        -3.590906045688783E-020
  -102.340000000000        -3.266034815962678E-020
  -102.150000000000        -1.302489938304269E-020
  -101.960000000000         3.946356019358011E-021
  -101.770000000000         1.740924451252367E-021
  -101.580000000000        -1.775963082175442E-020
  -101.390000000000        -3.601777931482487E-020
  -101.200000000000        -3.552465902210642E-020
  -101.010000000000        -1.653122405810597E-020
  -100.820000000000         3.180891962984399E-021
  -100.630000000000         5.278759837312386E-021
  -100.440000000000        -1.162078331361335E-020
  -100.250000000000        -3.065003233561965E-020
  -100.060000000000        -3.283430294765368E-020
  -99.8700000000000        -1.527177320057492E-020
  -99.6800000000000         6.017459927082707E-021
  -99.4900000000000         1.132752000541204E-020
  -99.3000000000000        -3.931256667108242E-021
  -99.1100000000000        -2.482201476210405E-020
  -98.9200000000000        -3.109433599845056E-020
  -98.7300000000000        -1.646767670605765E-020
  -98.5400000000000         5.399966940277614E-021
  -98.3500000000000         1.392934409295036E-020
  -98.1600000000000         1.203262868926309E-021
  -97.9700000000000        -2.053496238462945E-020
  -97.7800000000000        -3.058669813431962E-020
  -97.5900000000000        -1.951728934231107E-020
  -97.4000000000000         1.940418062220455E-021
  -97.2100000000000         1.328689003327053E-020
  -97.0200000000000         3.986635552206419E-021
  -96.8300000000000        -1.636476891916645E-020
  -96.6400000000000        -2.717583319325040E-020
  -96.4500000000000        -1.658603954478145E-020
  -96.2600000000000         7.041933188751960E-021
  -96.0700000000000         2.284941044508574E-020
  -95.8800000000000         1.709873730890442E-020
  -95.6900000000000        -3.989445664247295E-021
  -95.5000000000000        -2.038098241366814E-020
  -95.3100000000000        -1.742675620571530E-020
  -95.1200000000000         2.718740320568344E-022
  -94.9300000000000         1.356988500775694E-020
  -94.7400000000000         7.491745687935480E-021
  -94.5500000000000        -1.401935291544852E-020
  -94.3600000000000        -3.149830055812040E-020
  -94.1700000000000        -2.834517275372338E-020
  -93.9800000000000        -6.694700528362865E-021
  -93.7900000000000         1.440818479868138E-020
  -93.6000000000000         1.686136539303040E-020
  -93.4100000000000         4.201018005999304E-022
  -93.2200000000000        -1.741159901979829E-020
  -93.0300000000000        -1.835390439181960E-020
  -92.8400000000000        -9.550839428467266E-022
  -92.6500000000000         1.797449060638905E-020
  -92.4600000000000         1.945711971821294E-020
  -92.2700000000000         6.071622554082538E-022
  -92.0800000000000        -2.239265123457346E-020
  -91.8900000000000        -2.948495854872701E-020
  -91.7000000000000        -1.563894158409313E-020
  -91.5100000000000         4.563333372689370E-021
  -91.3200000000000         1.101040796227728E-020
  -91.1300000000000        -2.657297978444264E-021
  -90.9400000000000        -2.297947340280498E-020
  -90.7500000000000        -2.959798043904819E-020
  -90.5600000000000        -1.482708434027624E-020
  -90.3700000000000         8.809610208046984E-021
  -90.1800000000000         2.029015348827246E-020
  -89.9900000000000         9.911598672166784E-021
  -89.8000000000000        -1.166474609629905E-020
  -89.6100000000000        -2.372658956232628E-020
  -89.4200000000000        -1.528407811242118E-020
  -89.2300000000000         4.585794384433355E-021
  -89.0400000000000         1.564695680625042E-020
  -88.8500000000000         6.082249876785326E-021
  -88.6600000000000        -1.601114845633510E-020
  -88.4700000000000        -3.022944277104687E-020
  -88.2800000000000        -2.333538368602067E-020
  -88.0900000000000        -1.983572202613843E-021
  -87.9000000000000         1.351293400991389E-020
  -87.7100000000000         8.476999227141063E-021
  -87.5200000000000        -1.217277575663157E-020
  -87.3300000000000        -2.861041433597766E-020
  -87.1400000000000        -2.496305391740693E-020
  -86.9500000000000        -4.370257424977147E-021
  -86.7600000000000         1.408447428001190E-020
  -86.5700000000000         1.360319206906313E-020
  -86.3800000000000        -4.363301259646126E-021
  -86.1900000000000        -2.166992134158443E-020
  -86.0000000000000        -2.103523675442754E-020
  -85.8100000000000        -2.760894409936466E-021
  -85.6200000000000         1.542881120036960E-020
  -85.4300000000000         1.531106977545172E-020
  -85.2400000000000        -4.300034372656268E-021
  -85.0500000000000        -2.616398643674511E-020
  -84.8600000000000        -3.075119349580807E-020
  -84.6700000000000        -1.458559600899098E-020
  -84.4800000000000         6.648765374249114E-021
  -84.2900000000000         1.316532092304958E-020
  -84.1000000000000        -1.000505015040643E-022
  -83.9100000000000        -1.886774825765209E-020
  -83.7200000000000        -2.346286147948887E-020
  -83.5300000000000        -7.941108563973519E-021
  -83.3400000000000         1.393641916831205E-020
  -83.1500000000000         2.164033947039528E-020
  -82.9600000000000         7.414886404675076E-021
  -82.7700000000000        -1.622862623268923E-020
  -82.5800000000000        -2.826731223531452E-020
  -82.3900000000000        -1.900033215077654E-020
  -82.2000000000000         9.510067296857116E-022
  -82.0100000000000         1.105305843712291E-020
  -81.8200000000000         7.124957471799947E-022
  -81.6300000000000        -2.040682073498251E-020
  -81.4400000000000        -3.147135974630477E-020
  -81.2500000000000        -2.033190009028544E-020
  -81.0600000000000         4.761368711313391E-021
  -80.8700000000000         2.275188807102718E-020
  -80.6800000000000         1.946429109103857E-020
  -80.4900000000000         6.559622087443355E-022
  -80.3000000000000        -1.394166534264084E-020
  -80.1100000000000        -9.802562202076457E-021
  -79.9200000000000         8.379657357199059E-021
  -79.7300000000000         2.123828753180102E-020
  -79.5400000000000         1.347823923119586E-020
  -79.3500000000000        -1.110859845438216E-020
  -79.1600000000000        -3.274920845281879E-020
  -78.9700000000000        -3.404394504309805E-020
  -78.7800000000000        -1.614134852417431E-020
  -78.5900000000000         2.639926619557894E-021
  -78.4000000000000         4.375459289520838E-021
  -78.2100000000000        -1.150595212915270E-020
  -78.0200000000000        -2.801442180311904E-020
  -77.8300000000000        -2.722945230773493E-020
  -77.6400000000000        -7.773726435336610E-021
  -77.4500000000000         1.362951385611169E-020
  -77.2600000000000         1.802957001478011E-020
  -77.0700000000000         2.367136564129881E-021
  -76.8800000000000        -1.753989842082341E-020
  -76.6900000000000        -2.206928640629644E-020
  -76.5000000000000        -6.552996136261169E-021
  -76.3100000000000         1.421396227712470E-020
  -76.1200000000000         2.005075212522350E-020
  -75.9300000000000         4.647603593268445E-021
  -75.7400000000000        -1.834819912430349E-020
  -75.5500000000000        -2.822317796495202E-020
  -75.3600000000000        -1.679192606608019E-020
  -75.1700000000000         3.979764782928101E-021
  -74.9800000000000         1.358906375759191E-020
  -74.7900000000000         2.738489193314514E-021
  -74.6000000000000        -1.768517738649867E-020
  -74.4100000000000        -2.700488424878061E-020
  -74.2200000000000        -1.461145765607295E-020
  -74.0300000000000         9.673772467592513E-021
  -73.8400000000000         2.465371586194652E-020
  -73.6500000000000         1.765402439401531E-020
  -73.4600000000000        -3.650611495232462E-021
  -73.2700000000000        -1.872705756779750E-020
  -73.0800000000000        -1.382754064475865E-020
  -72.8900000000000         4.965717571904144E-021
  -72.7000000000000         1.772367517880230E-020
  -72.5100000000000         9.921141485641804E-021
  -72.3200000000000        -1.345377498193975E-020
  -72.1300000000000        -3.239531037479708E-020
  -71.9400000000000        -3.068783786511642E-020
  -71.7500000000000        -1.110831886920182E-020
  -71.5600000000000         7.432651636856163E-021
  -71.3700000000000         8.028138571345772E-021
  -71.1800000000000        -8.172588827271453E-021
  -70.9900000000000        -2.334015428610899E-020
  -70.8000000000000        -2.041050323423441E-020
  -70.6100000000000         1.516321493503316E-022
  -70.4200000000000         2.037254542904730E-020
  -70.2300000000000         2.163243651280658E-020
  -70.0400000000000         2.333979578616143E-021
  -69.8500000000000        -2.047002430399620E-020
  -69.6600000000000        -2.707870128797074E-020
  -69.4700000000000        -1.355842020519574E-020
  -69.2800000000000         4.950873157651124E-021
  -69.0900000000000         9.119505043465301E-021
  -68.9000000000000        -5.805714660505502E-021
  -68.7100000000000        -2.534271310751420E-020
  -68.5200000000000        -2.968202359901081E-020
  -68.3300000000000        -1.284884859034249E-020
  -68.1400000000000         1.123611551127751E-020
  -67.9500000000000         2.167393590065696E-020
  -67.7600000000000         1.024682469880476E-020
  -67.5700000000000        -1.089598246632339E-020
  -67.3800000000000        -2.086365189295379E-020
  -67.1900000000000        -9.889055930670069E-021
  -67.0000000000000         1.148299406771181E-020
  -66.8100000000000         2.258658060213170E-020
  -66.6200000000000         1.242142986761270E-020
  -66.4300000000000        -9.856340499926970E-021
  -66.2400000000000        -2.372360930045818E-020
  -66.0500000000000        -1.693699043066186E-020
  -65.8600000000000         2.757251601871763E-021
  -65.6700000000000         1.507363405355153E-020
  -65.4800000000000         6.697376150972931E-021
  -65.2900000000000        -1.580960594886424E-020
  -65.1000000000000        -3.207636509979276E-020
  -64.9100000000000        -2.720167312309372E-020
  -64.7200000000000        -5.864507963683693E-021
  -64.5300000000000         1.217895707866170E-020
  -64.3400000000000         1.090815924706953E-020
  -64.1500000000000        -6.786790687488425E-021
  -63.9600000000000        -2.204859708764948E-020
  -63.7700000000000        -1.829467225639393E-020
  -63.5800000000000         2.694652117948836E-021
  -63.3900000000000         2.224592950408748E-020
  -63.2000000000000         2.244108025419984E-020
  -63.0100000000000         3.112079515112094E-021
  -62.8200000000000        -1.801566744790887E-020
  -62.6300000000000        -2.215563231027716E-020
  -62.4400000000000        -7.220670792314493E-021
  -62.2500000000000         1.041623287544189E-020
  -62.0600000000000         1.182978138380295E-020
  -61.8700000000000        -6.091225863605226E-021
  -61.6800000000000        -2.740347530396378E-020
  -61.4900000000000        -3.214062052294194E-020
  -61.3000000000000        -1.530530912043712E-020
  -61.1100000000000         8.274352319952692E-021
  -60.9200000000000         1.784629189786043E-020
  -60.7300000000000         6.167150363496738E-021
  -60.5400000000000        -1.399059431381301E-020
  -60.3500000000000        -2.236893154642573E-020
  -60.1600000000000        -1.074688464577769E-020
  -59.9700000000000         9.236226495198080E-021
  -59.7800000000000         1.741483282557732E-020
  -59.5900000000000         4.681024574898081E-021
  -59.4000000000000        -1.798501326616534E-020
  -59.2100000000000        -2.972734111788503E-020
  -59.0200000000000        -1.955395035314576E-020
  -58.8300000000000         3.219616625776816E-021
  -58.6400000000000         1.779498030407070E-020
  -58.4500000000000         1.158833384239289E-020
  -58.2600000000000        -7.974368683867841E-021
  -58.0700000000000        -2.079847048406652E-020
  -57.8800000000000        -1.354004924335858E-020
  -57.6900000000000         7.499326161124724E-021
  -57.5000000000000         2.234547909653270E-020
  -57.3100000000000         1.647829764771538E-020
  -57.1200000000000        -5.181103718604773E-021
  -56.9300000000000        -2.282469545126985E-020
  -56.7400000000000        -2.056396829115113E-020
  -56.5500000000000        -1.561096385667688E-021
  -56.3600000000000         1.499364208676315E-020
  -56.1700000000000         1.222539270359305E-020
  -55.9800000000000        -8.251241954485490E-021
  -55.7900000000000        -2.777339396937368E-020
  -55.6000000000000        -2.832242273561988E-020
  -55.4100000000000        -9.606975535030061E-021
  -55.2200000000000         1.072756949552250E-020
  -55.0300000000000         1.394289857235138E-020
  -54.8400000000000        -1.959034069753150E-021
  -54.6500000000000        -2.041878801338774E-020
  -54.4600000000000        -2.224720175973299E-020
  -54.2700000000000        -4.083786432690552E-021
  -54.0800000000000         1.824474987557537E-020
  -53.8900000000000         2.466579017548719E-020
  -53.7000000000000         9.837942810487425E-021
  -53.5100000000000        -1.191749395199654E-020
  -53.3200000000000        -2.039145683295750E-020
  -53.1300000000000        -8.797656755918593E-021
  -52.9400000000000         9.819360008007979E-021
  -52.7500000000000         1.520355595728881E-020
  -52.5600000000000        -5.191494667735146E-022
  -52.3700000000000        -2.501273370259565E-020
  -52.1800000000000        -3.717730599461892E-020
  -51.9900000000000        -2.696644120956502E-020
  -51.8000000000000        -4.699001744135062E-021
  -51.6100000000000         8.954359477044814E-021
  -51.4200000000000         2.693322809350173E-021
  -51.2300000000000        -1.482513139883801E-020
  -51.0400000000000        -2.362197985603017E-020
  -50.8500000000000        -1.194971466305971E-020
  -50.6600000000000         1.200963913891272E-020
  -50.4700000000000         2.758173240844057E-020
  -50.2800000000000         2.113401912553975E-020
  -50.0900000000000        -9.299140176879185E-022
  -49.9000000000000        -1.813137643159075E-020
  -49.7100000000000        -1.518280402160820E-020
  -49.5200000000000         3.751418673250725E-021
  -49.3300000000000         1.932673170141463E-020
  -49.1400000000000         1.569103060586291E-020
  -48.9500000000000        -4.296296383514237E-021
  -48.7600000000000        -2.183960831953461E-020
  -48.5700000000000        -2.029862454383819E-020
  -48.3800000000000        -1.257369735959533E-021
  -48.1900000000000         1.683038499306363E-020
  -48.0000000000000         1.615403272148451E-020
  -47.8100000000000        -3.488219267191417E-021
  -47.6200000000000        -2.446446513525357E-020
  -47.4300000000000        -2.806075768243269E-020
  -47.2400000000000        -1.224404890274364E-020
  -47.0500000000000         6.517622522125321E-021
  -46.8600000000000         9.117018272920645E-021
  -46.6700000000000        -7.815493905103262E-021
  -46.4800000000000        -2.859420893550390E-020
  -46.2900000000000        -3.338928658110963E-020
  -46.1000000000000        -1.712154863929597E-020
  -45.9100000000000         5.694465379682612E-021
  -45.7200000000000         1.478090366744448E-020
  -45.5300000000000         3.407687073644132E-021
  -45.3400000000000        -1.525344822843289E-020
  -45.1500000000000        -2.081971789231499E-020
  -44.9600000000000        -5.323507782081395E-021
  -44.7700000000000         1.898650322983671E-020
  -44.5800000000000         3.114411182803162E-020
  -44.3900000000000         2.130766340044274E-020
  -44.2000000000000         3.087470872225826E-023
  -44.0100000000000        -1.186962814839810E-020
  -43.8200000000000        -3.196249408536918E-021
  -43.6300000000000         1.694463672542444E-020
  -43.4400000000000         2.785094761229584E-020
  -43.2500000000000         1.703308552794581E-020
  -43.0600000000000        -7.773103490196533E-021
  -42.8700000000000        -2.584338631031359E-020
  -42.6800000000000        -2.302632265545518E-020
  -42.4900000000000        -4.967610662258813E-021
  -42.3000000000000         8.566485585465951E-021
  -42.1100000000000         2.780861274942947E-021
  -41.9200000000000        -1.790186852024632E-020
  -41.7300000000000        -3.405185806216923E-020
  -41.5400000000000        -2.987762455461161E-020
  -41.3500000000000        -8.478661511667510E-021
  -41.1600000000000         1.089563147455633E-020
  -40.9700000000000         1.098361340313575E-020
  -40.7800000000000        -7.256071812629017E-021
  -40.5900000000000        -2.576684492859242E-020
  -40.4000000000000        -2.673318884875475E-020
  -40.2100000000000        -9.546842905802777E-021
  -40.0200000000000         8.790615053072970E-021
  -39.8300000000000         1.017837137173213E-020
  -39.6400000000000        -6.992027427889445E-021
  -39.4500000000000        -2.605732001344205E-020
  -39.2600000000000        -2.788652799266607E-020
  -39.0700000000000        -9.184941791680773E-021
  -38.8800000000000         1.421384774594740E-020
  -38.6900000000000         2.225231924917577E-020
  -38.5000000000000         9.565705623345361E-021
  -38.3100000000000        -9.605424396583673E-021
  -38.1200000000000        -1.518053039169306E-020
  -37.9300000000000        -5.435309332673861E-022
  -37.7400000000000         2.105840979923137E-020
  -37.5500000000000         2.915762566994724E-020
  -37.3600000000000         1.567931466730263E-020
  -37.1700000000000        -7.227818934756137E-021
  -36.9800000000000        -1.864398593906298E-020
  -36.7900000000000        -8.702715337980868E-021
  -36.6000000000000         1.210260810169486E-020
  -36.4100000000000         2.298988061121652E-020
  -36.2200000000000         1.273613913540257E-020
  -36.0300000000000        -9.619036142692687E-021
  -35.8400000000000        -2.342482711493926E-020
  -35.6500000000000        -1.616454376571101E-020
  -35.4600000000000         4.563974401575709E-021
  -35.2700000000000         1.826748147830563E-020
  -35.0800000000000         1.107043129178003E-020
  -34.8900000000000        -1.109581294376600E-020
  -34.7000000000000        -2.818132524691415E-020
  -34.5100000000000        -2.512889411694493E-020
  -34.3200000000000        -6.164735614100472E-021
  -34.1300000000000         9.370323126433870E-021
  -33.9400000000000         5.658169124730940E-021
  -33.7500000000000        -1.432311090062887E-020
  -33.5600000000000        -3.151593141188259E-020
  -33.3700000000000        -2.890835757971400E-020
  -33.1800000000000        -7.756537906796780E-021
  -32.9900000000000         1.357603360184940E-020
  -32.8000000000000         1.704418421698802E-020
  -32.6100000000000         1.984108915887911E-021
  -32.4200000000000        -1.446423731975765E-020
  -32.2300000000000        -1.397363186835601E-020
  -32.0400000000000         5.202865052827282E-021
  -31.8500000000000         2.632449587517445E-020
  -31.6600000000000         2.997218937310551E-020
  -31.4700000000000         1.249126576668627E-020
  -31.2800000000000        -1.052858027565739E-020
  -31.0900000000000        -1.904552180513792E-020
  -30.9000000000000        -7.524098285343173E-021
  -30.7100000000000         1.000243435333635E-020
  -30.5200000000000         1.357831013464438E-020
  -30.3300000000000        -3.355989537965198E-021
  -30.1400000000000        -2.744141475228386E-020
  -29.9500000000000        -3.793421535569715E-020
  -29.7600000000000        -2.634503617962568E-020
  -29.5700000000000        -4.445880819858020E-021
  -29.3800000000000         6.973936435293907E-021
  -29.1900000000000        -2.140623043865210E-021
  -29.0000000000000        -2.167602778734275E-020
  -28.8100000000000        -3.119418152711655E-020
  -28.6200000000000        -1.962173010719885E-020
  -28.4300000000000         4.046736111680078E-021
  -28.2400000000000         1.927529242798061E-020
  -28.0500000000000         1.358589126032915E-020
  -27.8600000000000        -5.529751841474451E-021
  -27.6700000000000        -1.778566255010380E-020
  -27.4800000000000        -9.510418102267425E-021
  -27.2900000000000         1.324158618094369E-020
  -27.1000000000000         3.038942178786777E-020
  -26.9100000000000         2.690747203025428E-020
  -26.7200000000000         7.091220891001990E-021
  -26.5300000000000        -9.611664375190915E-021
  -26.3400000000000        -7.223183930728969E-021
  -26.1500000000000         1.149204523011100E-020
  -25.9600000000000         2.770078593891975E-020
  -25.7700000000000         2.455247068744787E-020
  -25.5800000000000         3.346801925624007E-021
  -25.3900000000000        -1.763366133250774E-020
  -25.2000000000000        -2.052983935636712E-020
  -25.0100000000000        -4.948733427375665E-021
  -24.8200000000000         1.165253487577616E-020
  -24.6300000000000         1.066512584639628E-020
  -24.4400000000000        -9.796431226233678E-021
  -24.2500000000000        -3.291064553733686E-020
  -24.0600000000000        -3.896603655500167E-020
  -23.8700000000000        -2.390589908146375E-020
  -23.6800000000000        -2.955766644369832E-021
  -23.4900000000000         4.062788674953923E-021
  -23.3000000000000        -8.319823348456377E-021
  -23.1100000000000        -2.610141360775308E-020
  -22.9200000000000        -2.939747870494203E-020
  -22.7300000000000        -1.173844053027670E-020
  -22.5400000000000         1.340715004951682E-020
  -22.3500000000000         2.516743265287450E-020
  -22.1600000000000         1.492547644465832E-020
  -21.9700000000000        -5.634773002115799E-021
  -21.7800000000000        -1.574144238435989E-020
  -21.5900000000000        -5.303062530419708E-021
  -21.4000000000000         1.559630442386146E-020
  -21.2100000000000         2.649615124683647E-020
  -21.0200000000000         1.626946755658047E-020
  -20.8300000000000        -6.107402536166360E-021
  -20.6400000000000        -2.003608355897221E-020
  -20.4500000000000        -1.292312705714660E-020
  -20.2600000000000         7.815938022643876E-021
  -20.0700000000000         2.184764087498708E-020
  -19.8800000000000         1.533414067114366E-020
  -19.6900000000000        -5.858701599411352E-021
  -19.5000000000000        -2.176753912915274E-020
  -19.3100000000000        -1.741733929705044E-020
  -19.1200000000000         2.827935236876112E-021
  -18.9300000000000         1.937132682867279E-020
  -18.7400000000000         1.604158305993632E-020
  -18.5500000000000        -4.512488112719476E-021
  -18.3600000000000        -2.338117272128854E-020
  -18.1700000000000        -2.344008863560136E-020
  -17.9800000000000        -5.655884068940258E-021
  -17.7900000000000         1.188643151768323E-020
  -17.6000000000000         1.129048181700792E-020
  -17.4100000000000        -8.026482242757015E-021
  -17.2200000000000        -2.873929280869106E-020
  -17.0300000000000        -3.212005501436933E-020
  -16.8400000000000        -1.586605337877891E-020
  -16.6500000000000         3.788783664041829E-021
  -16.4600000000000         7.681511434104434E-021
  -16.2700000000000        -7.879665376266636E-021
  -16.0800000000000        -2.750046135615012E-020
  -15.8900000000000        -3.133610294373069E-020
  -15.7000000000000        -1.403484901901146E-020
  -15.5100000000000         1.008193206136522E-020
  -15.3200000000000         2.056477414157512E-020
  -15.1300000000000         1.018919602837234E-020
  -14.9400000000000        -8.353201138626604E-021
  -14.7500000000000        -1.477902118557175E-020
  -14.5600000000000        -7.272069441369928E-022
  -14.3700000000000         2.219824175270817E-020
  -14.1800000000000         3.352126004544438E-020
  -13.9900000000000         2.350339564159373E-020
  -13.8000000000000         2.513264469200411E-021
  -13.6100000000000        -8.841352641830829E-021
  -13.4200000000000         5.644406916618959E-022
  -13.2300000000000         2.163830750278467E-020
  -13.0400000000000         3.361420516470137E-020
  -12.8500000000000         2.375174473994785E-020
  -12.6600000000000        -5.800327362974670E-022
  -12.4700000000000        -1.892728849310053E-020
  -12.2800000000000        -1.716225277873429E-020
  -12.0900000000000        -7.751134494695605E-022
  -11.9000000000000         1.061344319385419E-020
  -11.7100000000000         2.264325092653207E-021
  -11.5200000000000        -2.132754937742427E-020
  -11.3300000000000        -4.049375875297876E-020
  -11.1400000000000        -3.901265469007950E-020
  -10.9500000000000        -1.950133069712820E-020
  -10.7600000000000        -8.759687156329125E-022
  -10.5700000000000        -3.039058765397812E-022
  -10.3800000000000        -1.686110533170551E-020
  -10.1900000000000        -3.248143515340875E-020
  -10.0000000000000        -2.930541037942899E-020
  -9.81000000000000        -6.886978378054284E-021
  -9.62000000000000         1.717265246713169E-020
  -9.42999999999999         2.378200838188966E-020
  -9.23999999999999         1.030617842840279E-020
  -9.05000000000000        -7.202871450189220E-021
  -8.86000000000000        -9.565215795614669E-021
  -8.67000000000000         7.071426064685523E-021
  -8.48000000000000         2.749730992742601E-020
  -8.28999999999999         3.198639132828332E-020
  -8.09999999999999         1.523690688566052E-020
  -7.91000000000000        -8.398145336489328E-021
  -7.72000000000000        -1.842851752943190E-020
  -7.53000000000000        -7.612032917955876E-021
  -7.34000000000000         1.129598573318280E-020
  -7.15000000000001         1.786069163228701E-020
  -6.95999999999999         3.582067800236739E-021
  -6.77000000000000        -1.990354359514401E-020
  -6.58000000000000        -3.184398903380022E-020
  -6.39000000000000        -2.210181505313123E-020
  -6.20000000000000        -7.782828897995667E-022
  -6.01000000000001         1.145055173847572E-020
  -5.81999999999999         3.047665305617039E-021
  -5.63000000000000        -1.746254635629311E-020
  -5.44000000000000        -2.977632152662180E-020
  -5.25000000000000        -2.133095376022083E-020
  -5.06000000000000         6.210759664484568E-022
  -4.87000000000000         1.591968043216847E-020
  -4.67999999999999         1.078831870531827E-020
  -4.48999999999999        -8.915309251705073E-021
  -4.30000000000000        -2.317502404395631E-020
  -4.11000000000000        -1.684224648783444E-020
  -3.92000000000000         5.925278044292226E-021
  -3.73000000000000         2.558937295780849E-020
  -3.53999999999999         2.575713743463360E-020
  -3.34999999999999         8.615140975181662E-021
  -3.16000000000000        -7.422769045409379E-021
  -2.97000000000000        -5.546799106062727E-021
  -2.78000000000000         1.321010158564005E-020
  -2.59000000000000         3.087254737405112E-020
  -2.40000000000001         2.973813388769313E-020
  -2.20999999999999         9.455107867202064E-021
  -2.02000000000000        -1.241785865856160E-020
  -1.83000000000000        -1.697492619289407E-020
  -1.64000000000000        -1.862824884589078E-021
  -1.45000000000000         1.656469649655749E-020
  -1.26000000000001         1.889559122325141E-020
  -1.06999999999999         1.201078046388294E-021
 -0.879999999999995        -2.119216357438644E-020
 -0.689999999999998        -2.829618117526415E-020
 -0.500000000000000        -1.451068675738603E-020
 -0.310000000000002         6.053267407008090E-021
 -0.120000000000005         1.306019176467311E-020
  7.000000000000739E-002   -6.421061955534034E-022
  0.260000000000005        -2.223251232117733E-020
  0.450000000000003        -3.121190196206165E-020
  0.640000000000001        -1.903526837588709E-020
  0.829999999999998         2.652140193276672E-021
   1.02000000000000         1.304878327835744E-020
   1.21000000000001         2.014923920361607E-021
   1.40000000000001        -2.020996725277658E-020
   1.59000000000000        -3.267392103440571E-020
   1.78000000000000        -2.355426518751146E-020
   1.97000000000000        -1.255898624605036E-021
   2.16000000000000         1.377738398160879E-020
   2.34999999999999         8.662148072575535E-021
   2.54000000000001        -9.638649362716440E-021
   2.73000000000000        -2.104412344143895E-020
   2.92000000000000        -1.165387379126218E-020
   3.11000000000000         1.281595070382505E-020
   3.30000000000000         3.229979938783169E-020
   3.48999999999999         3.132586024329895E-020
   3.68000000000001         1.353138100288691E-020
   3.87000000000000        -2.099369388581896E-021
   4.06000000000000         3.779940464226776E-022
   4.25000000000000         1.847419600080315E-020
   4.44000000000000         3.358850135746277E-020
   4.63000000000000         2.884128406381716E-020
   4.82000000000001         5.400599980265039E-021
   5.01000000000001        -1.830921874391407E-020
   5.20000000000000        -2.381656906481451E-020
   5.39000000000000        -9.840856253674889E-021
   5.58000000000000         6.868859756839374E-021
   5.77000000000000         7.838797118454963E-021
   5.96000000000001        -9.320184494943578E-021
   6.15000000000001        -2.863734658070207E-020
   6.34000000000000        -3.120411019155922E-020
   6.53000000000000        -1.353577433259780E-020