  -105.000000000000         0.000000000000000E+000
  -104.810000000000         2.498114567449141E-010
  -104.620000000000         5.515899773856034E-010
  -104.430000000000         8.373088513083846E-010
  -104.240000000000         1.216066110062134E-009
  -104.050000000000         1.639194977636963E-009
  -103.860000000000         1.899626366076788E-009
  -103.670000000000         1.898080239059542E-009
  -103.480000000000         1.765226180709911E-009
  -103.290000000000         2.357270472629492E-009
  -103.100000000000         3.403458899510120E-009
  -102.910000000000         5.014946138567164E-009
  -102.720000000000         6.761056323122047E-009
  -102.530000000000         8.266359895142352E-009
  -102.340000000000         9.402791905672192E-009
  -102.150000000000         1.002616081425153E-008
  -101.960000000000         1.038287156350474E-008
  -101.770000000000         1.040748471920259E-008
  -101.580000000000         1.068475891438563E-008
  -101.390000000000         1.118735510535502E-008
  -101.200000000000         1.157990677440088E-008
  -101.010000000000         1.154279234887992E-008
  -100.820000000000         1.080399866319259E-008
  -100.630000000000         9.709529637080822E-009
  -100.440000000000         8.592060753021379E-009
  -100.250000000000         7.714615468846153E-009
  -100.060000000000         7.222941642968898E-009
  -99.8700000000000         7.213272190464733E-009
  -99.6800000000000         7.326802071823762E-009
  -99.4900000000000         7.036276271613896E-009
  -99.3000000000000         6.000899645268420E-009
  -99.1100000000000         4.587218717659711E-009
  -98.9200000000000         2.905238355381212E-009
  -98.7300000000000         1.502124326284101E-009
  -98.5400000000000         8.856378029898846E-010
  -98.3500000000000         5.445662633217056E-010
  -98.1600000000000         6.811614930691049E-010
  -97.9700000000000         1.030140532323183E-009
  -97.7800000000000         1.289508197003852E-009
  -97.5900000000000         1.224912756522225E-009
  -97.4000000000000         9.756998858652914E-010
  -97.2100000000000         8.873810438139303E-010
  -97.0200000000000         9.883394392361104E-010
  -96.8300000000000         1.978326861345379E-009
  -96.6400000000000         3.063036366230883E-009
  -96.4500000000000         4.327217314142620E-009
  -96.2600000000000         5.746683646755676E-009
  -96.0700000000000         6.750814423360526E-009
  -95.8800000000000         7.304496834413915E-009
  -95.6900000000000         7.583978219416104E-009
  -95.5000000000000         7.696383493594656E-009
  -95.3100000000000         8.041342786752922E-009
  -95.1200000000000         8.343469968367730E-009
  -94.9300000000000         8.660881683629984E-009
  -94.7400000000000         8.699075118827749E-009
  -94.5500000000000         8.604225228416145E-009
  -94.3600000000000         8.554100738873880E-009
  -94.1700000000000         8.558741048221939E-009
  -93.9800000000000         8.304809049473534E-009
  -93.7900000000000         8.157805872335203E-009
  -93.6000000000000         9.144568176543949E-009
  -93.4100000000000         9.965666195657758E-009
  -93.2200000000000         1.065786093045105E-008
  -93.0300000000000         1.106644899887109E-008
  -92.8400000000000         1.096946623950506E-008
  -92.6500000000000         1.006994411748550E-008
  -92.4600000000000         8.403880897983170E-009
  -92.2700000000000         6.407749221994907E-009
  -92.0800000000000         4.736752554711512E-009
  -91.8900000000000         3.804665827054534E-009
  -91.7000000000000         3.736533475445588E-009
  -91.5100000000000         3.531015876965964E-009
  -91.3200000000000         3.154168542497127E-009
  -91.1300000000000         1.458154373413191E-009
  -90.9400000000000        -4.458407022275491E-010
  -90.7500000000000        -2.126399291194838E-009
  -90.5600000000000        -2.903450458154024E-009
  -90.3700000000000        -2.533851819403717E-009
  -90.1800000000000        -1.264282842877736E-009
  -89.9900000000000         3.331697970413340E-010
  -89.8000000000000         1.488600696585582E-009
  -89.6100000000000         1.335923244459171E-009
  -89.4200000000000         6.338268195764378E-010
  -89.2300000000000         4.525088312068443E-010
  -89.0400000000000         1.462989298481476E-009
  -88.8500000000000         2.055108430556521E-009
  -88.6600000000000         3.330647443735211E-009
  -88.4700000000000         4.015438590983443E-009
  -88.2800000000000         3.830408835222005E-009
  -88.0900000000000         2.961447329190437E-009
  -87.9000000000000         1.873056304672751E-009
  -87.7100000000000         1.227083191061665E-009
  -87.5200000000000         1.124559576864963E-009
  -87.3300000000000         8.674591932459086E-010
  -87.1400000000000         9.186482829557262E-010
  -86.9500000000000         1.708172724967993E-009
  -86.7600000000000         2.542895850456847E-009
  -86.5700000000000         3.456454793689711E-009
  -86.3800000000000         4.717841906300336E-009
  -86.1900000000000         6.265319248955097E-009
  -86.0000000000000         7.980351410020816E-009
  -85.8100000000000         9.840633007894076E-009
  -85.6200000000000         1.184074498502890E-008
  -85.4300000000000         1.375743672476987E-008
  -85.2400000000000         1.556221804771522E-008
  -85.0500000000000         1.731632148319320E-008
  -84.8600000000000         1.875450633235017E-008
  -84.6700000000000         1.965247846420623E-008
  -84.4800000000000         2.013002574086943E-008
  -84.2900000000000         2.048281114712329E-008
  -84.1000000000000         2.112215938313851E-008
  -83.9100000000000         2.246300062624182E-008
  -83.7200000000000         2.296635071279405E-008
  -83.5300000000000         2.605799389780938E-008
  -83.3400000000000         2.625344448523384E-008
  -83.1500000000000         2.594252035407569E-008
  -82.9600000000000         2.471798601230769E-008
  -82.7700000000000         2.325839284233207E-008
  -82.5800000000000         2.195056283368490E-008
  -82.3900000000000         2.103958047755154E-008
  -82.2000000000000         2.028028983238207E-008
  -82.0100000000000         1.937075186993087E-008
  -81.8200000000000         1.806695236315647E-008
  -81.6300000000000         1.633377872048020E-008
  -81.4400000000000         1.466254805984237E-008
  -81.2500000000000         1.369710921999093E-008
  -81.0600000000000         1.340455239906789E-008
  -80.8700000000000         1.453096724478695E-008
  -80.6800000000000         1.605957754452564E-008
  -80.4900000000000         1.707250444308473E-008
  -80.3000000000000         1.764019765372293E-008
  -80.1100000000000         1.825294793703064E-008
  -79.9200000000000         1.876921242973206E-008
  -79.7300000000000         1.943053044707375E-008
  -79.5400000000000         2.067349083028795E-008
  -79.3500000000000         2.279206157437143E-008
  -79.1600000000000         2.462843444148764E-008
  -78.9700000000000         2.566077645861669E-008
  -78.7800000000000         2.617106082542261E-008
  -78.5900000000000         2.638291925707690E-008
  -78.4000000000000         2.644391407562308E-008
  -78.2100000000000         2.631329406522212E-008
  -78.0200000000000         2.565361588614648E-008
  -77.8300000000000         2.484234517957709E-008
  -77.6400000000000         2.379395543934575E-008
  -77.4500000000000         2.286210660799162E-008
  -77.2600000000000         2.236039166674285E-008
  -77.0700000000000         2.220134946416502E-008
  -76.8800000000000         2.230819056255935E-008
  -76.6900000000000         2.266422292020478E-008
  -76.5000000000000         2.324666574903919E-008
  -76.3100000000000         2.330827210128813E-008
  -76.1200000000000         2.368266381898681E-008
  -75.9300000000000         2.274309088987430E-008
  -75.7400000000000         2.279203848307049E-008
  -75.5500000000000         2.248355999754824E-008
  -75.3600000000000         2.224788986194320E-008
  -75.1700000000000         2.172718050707354E-008
  -74.9800000000000         2.010552980483542E-008
  -74.7900000000000         1.805658906741520E-008
  -74.6000000000000         1.621736246975468E-008
  -74.4100000000000         1.486582088333648E-008
  -74.2200000000000         1.408328738484134E-008
  -74.0300000000000         1.367424184123526E-008
  -73.8400000000000         1.342093658747208E-008
  -73.6500000000000         1.363725492951972E-008
  -73.4600000000000         1.419568728187239E-008
  -73.2700000000000         1.509765920366824E-008
  -73.0800000000000         1.662391659259114E-008
  -72.8900000000000         1.985066394458684E-008
  -72.7000000000000         2.264278124195208E-008
  -72.5100000000000         2.586013196853148E-008
  -72.3200000000000         2.854204377997415E-008
  -72.1300000000000         3.016171673410800E-008
  -71.9400000000000         3.094174971732498E-008
  -71.7500000000000         3.511722083165854E-008
  -71.5600000000000         3.518815240534875E-008
  -71.3700000000000         3.548870926745162E-008
  -71.1800000000000         3.670895671063051E-008
  -70.9900000000000         3.722079101145433E-008
  -70.8000000000000         4.241831849483475E-008
  -70.6100000000000         4.217672966307603E-008
  -70.4200000000000         4.256455044754576E-008
  -70.2300000000000         4.955007505690662E-008
  -70.0400000000000         4.906452024988189E-008
  -69.8500000000000         4.956086814107442E-008
  -69.6600000000000         5.034889153805033E-008
  -69.4700000000000         5.145210771438569E-008
  -69.2800000000000         5.090344718387438E-008
  -69.0900000000000         5.104346610164939E-008
  -68.9000000000000         5.102668060004670E-008
  -68.7100000000000         5.047476789395265E-008
  -68.5200000000000         4.940831145312397E-008
  -68.3300000000000         4.814478660116612E-008
  -68.1400000000000         4.709909459529333E-008
  -67.9500000000000         4.670062625141258E-008
  -67.7600000000000         4.668960023485567E-008
  -67.5700000000000         4.772194908257796E-008
  -67.3800000000000         5.065032713865773E-008
  -67.1900000000000         5.403833890301953E-008
  -67.0000000000000         5.593880400701614E-008
  -66.8100000000000         6.015527206789242E-008
  -66.6200000000000         6.108783712657203E-008
  -66.4300000000000         6.250947123449072E-008
  -66.2400000000000         6.886018350070208E-008
  -66.0500000000000         6.945719188266393E-008
  -65.8600000000000         6.946960571379109E-008
  -65.6700000000000         6.905617114075135E-008
  -65.4800000000000         6.874561156271721E-008
  -65.2900000000000         6.806709871123719E-008
  -65.1000000000000         6.737824168288282E-008
  -64.9100000000000         6.689413924220872E-008
  -64.7200000000000         6.648986315209097E-008
  -64.5300000000000         6.590581467811125E-008
  -64.3400000000000         6.609254727183592E-008
  -64.1500000000000         6.634563780617716E-008
  -63.9600000000000         6.649883499471216E-008
  -63.7700000000000         6.656082834265889E-008
  -63.5800000000000         6.647489456870004E-008
  -63.3900000000000         6.649330844191055E-008
  -63.2000000000000         6.625054064153808E-008
  -63.0100000000000         6.623884116227514E-008
  -62.8200000000000         6.654688142495334E-008
  -62.6300000000000         6.711481745341201E-008
  -62.4400000000000         6.757593379939700E-008
  -62.2500000000000         6.780342902724451E-008
  -62.0600000000000         6.791532407116483E-008
  -61.8700000000000         6.792824975325336E-008
  -61.6800000000000         6.789070977408133E-008
  -61.4900000000000         6.817772271042815E-008
  -61.3000000000000         6.928717805469996E-008
  -61.1100000000000         7.169794563382913E-008
  -60.9200000000000         7.451335740831490E-008
  -60.7300000000000         7.705959786575334E-008
  -60.5400000000000         7.872146320833193E-008
  -60.3500000000000         7.962270390114789E-008
  -60.1600000000000         8.044062933820087E-008
  -59.9700000000000         8.164811983872591E-008
  -59.7800000000000         8.301575650275279E-008
  -59.5900000000000         8.424569333683991E-008
  -59.4000000000000         8.504457772534044E-008
  -59.2100000000000         8.531313930068766E-008
  -59.0200000000000         8.537143972722416E-008
  -58.8300000000000         8.555446181848367E-008
  -58.6400000000000         8.579956569184767E-008
  -58.4500000000000         8.629368234357229E-008
  -58.2600000000000         8.707829250026607E-008
  -58.0700000000000         8.760415333612192E-008
  -57.8800000000000         8.699498780002013E-008
  -57.6900000000000         8.740578255278359E-008
  -57.5000000000000         8.742978928514715E-008
  -57.3100000000000         8.741150387510509E-008
  -57.1200000000000         8.970061351873839E-008
  -56.9300000000000         9.154541452426986E-008
  -56.7400000000000         9.364709287751930E-008
  -56.5500000000000         9.722270789953944E-008
  -56.3600000000000         9.900382964546728E-008
  -56.1700000000000         1.014181976227953E-007
  -55.9800000000000         1.029052037949377E-007
  -55.7900000000000         1.041083639906026E-007
  -55.6000000000000         1.053424388130975E-007
  -55.4100000000000         1.048849204696109E-007
  -55.2200000000000         1.036369790814416E-007
  -55.0300000000000         1.017404686498699E-007
  -54.8400000000000         9.966386513934029E-008
  -54.6500000000000         9.814722033074779E-008
  -54.4600000000000         9.719053179695087E-008
  -54.2700000000000         9.702393045444051E-008
  -54.0800000000000         9.739144050911293E-008
  -53.8900000000000         9.827314340416581E-008
  -53.7000000000000         9.969238461039533E-008
  -53.5100000000000         1.019431071843297E-007
  -53.3200000000000         1.047996496176531E-007
  -53.1300000000000         1.083166828064355E-007
  -52.9400000000000         1.117985105747739E-007
  -52.7500000000000         1.146581028346662E-007
  -52.5600000000000         1.167771749797597E-007
  -52.3700000000000         1.187703845542541E-007
  -52.1800000000000         1.192723799624545E-007
  -51.9900000000000         1.236415055506789E-007
  -51.8000000000000         1.268868048010443E-007
  -51.6100000000000         1.281760438755910E-007
  -51.4200000000000         1.296351081041715E-007
  -51.2300000000000         1.329408203284586E-007
  -51.0400000000000         1.339138114783125E-007
  -50.8500000000000         1.359612118998535E-007
  -50.6600000000000         1.376446161465153E-007
  -50.4700000000000         1.447815834339802E-007
  -50.2800000000000         1.477597222404188E-007
  -50.0900000000000         1.493993712047315E-007
  -49.9000000000000         1.520343639242373E-007
  -49.7100000000000         1.530675532543354E-007
  -49.5200000000000         1.539749588357947E-007
  -49.3300000000000         1.548742109258745E-007
  -49.1400000000000         1.545927140490373E-007
  -48.9500000000000         1.556608457282365E-007
  -48.7600000000000         1.545541454609908E-007
  -48.5700000000000         1.556320425646240E-007
  -48.3800000000000         1.551209659782308E-007
  -48.1900000000000         1.552184716535997E-007
  -48.0000000000000         1.562864557798663E-007
  -47.8100000000000         1.589190709825908E-007
  -47.6200000000000         1.624152548364555E-007
  -47.4300000000000         1.659896314665943E-007
  -47.2400000000000         1.698582108606209E-007
  -47.0500000000000         1.730079648268181E-007
  -46.8600000000000         1.757759747258875E-007
  -46.6700000000000         1.788168114330714E-007
  -46.4800000000000         1.817889352487928E-007
  -46.2900000000000         1.847990574132968E-007
  -46.1000000000000         1.871771868979743E-007
  -45.9100000000000         1.889099580365101E-007
  -45.7200000000000         1.900393431992718E-007
  -45.5300000000000         1.898113783228703E-007
  -45.3400000000000         1.889216644867516E-007
  -45.1500000000000         1.883287463419920E-007
  -44.9600000000000         1.881010667222928E-007
  -44.7700000000000         1.883424603749609E-007
  -44.5800000000000         1.886715812827718E-007
  -44.3900000000000         1.892900615493673E-007
  -44.2000000000000         1.896114151766702E-007
  -44.0100000000000         1.900382575071846E-007
  -43.8200000000000         1.901691424746459E-007
  -43.6300000000000         1.908398516999607E-007
  -43.4400000000000         1.919673034592382E-007
  -43.2500000000000         1.933359379316869E-007
  -43.0600000000000         1.945903680613095E-007
  -42.8700000000000         1.960502819675922E-007
  -42.6800000000000         1.969352360112826E-007
  -42.4900000000000         1.975396025018589E-007
  -42.3000000000000         1.978117818172074E-007
  -42.1100000000000         1.983162292749756E-007
  -41.9200000000000         1.983908703368239E-007
  -41.7300000000000         1.992595965542325E-007
  -41.5400000000000         1.999559877737967E-007
  -41.3500000000000         2.008463504804565E-007
  -41.1600000000000         2.018114080147127E-007
  -40.9700000000000         2.028736495025415E-007
  -40.7800000000000         2.047879867281392E-007
  -40.5900000000000         2.064284540155172E-007
  -40.4000000000000         2.093191369831073E-007
  -40.2100000000000         2.113201986715962E-007
  -40.0200000000000         2.144613534451945E-007
  -39.8300000000000         2.159862498168326E-007
  -39.6400000000000         2.185694015676895E-007
  -39.4500000000000         2.200272436806122E-007
  -39.2600000000000         2.215543047275389E-007
  -39.0700000000000         2.220528913568514E-007
  -38.8800000000000         2.217888910922601E-007
  -38.6900000000000         2.231658535505257E-007
  -38.5000000000000         2.250351205800945E-007
  -38.3100000000000         2.273665717065280E-007
  -38.1200000000000         2.306971106855785E-007
  -37.9300000000000         2.333117973620729E-007
  -37.7400000000000         2.363083246555464E-007
  -37.5500000000000         2.386976331583898E-007
  -37.3600000000000         2.416236179792171E-007
  -37.1700000000000         2.442447380154453E-007
  -36.9800000000000         2.482091301286372E-007
  -36.7900000000000         2.513085990963832E-007
  -36.6000000000000         2.553579819284688E-007
  -36.4100000000000         2.578991765414082E-007
  -36.2200000000000         2.609050983694300E-007
  -36.0300000000000         2.619529950328573E-007
  -35.8400000000000         2.634713806006916E-007
  -35.6500000000000         2.640710979738030E-007
  -35.4600000000000         2.658958086743447E-007
  -35.2700000000000         2.671491538781348E-007
  -35.0800000000000         2.703472047549344E-007
  -34.8900000000000         2.719894435635709E-007
  -34.7000000000000         2.761336711999224E-007
  -34.5100000000000         2.778269679941143E-007
  -34.3200000000000         2.822219180002057E-007
  -34.1300000000000         2.838692200499492E-007
  -33.9400000000000         2.878744456209959E-007
  -33.7500000000000         2.905896417668812E-007
  -33.5600000000000         2.947002613686956E-007
  -33.3700000000000         2.962102526522748E-007
  -33.1800000000000         2.987139874320295E-007
  -32.9900000000000         2.998508651578058E-007
  -32.8000000000000         3.031386207678941E-007
  -32.6100000000000         3.035698187997376E-007
  -32.4200000000000         3.060780238966912E-007
  -32.2300000000000         3.073824792300436E-007
  -32.0400000000000         3.114027349819098E-007
  -31.8500000000000         3.132288167489488E-007
  -31.6600000000000         3.181334787758442E-007
  -31.4700000000000         3.204545621590564E-007
  -31.2800000000000         3.261025894846681E-007
  -31.0900000000000         3.286649107523088E-007
  -30.9000000000000         3.338577547247068E-007
  -30.7100000000000         3.361121205245780E-007
  -30.5200000000000         3.403108155409062E-007
  -30.3300000000000         3.421562599033904E-007
  -30.1400000000000         3.463681843426910E-007
  -29.9500000000000         3.483254721794702E-007
  -29.7600000000000         3.523003447587388E-007
  -29.5700000000000         3.537759320228568E-007
  -29.3800000000000         3.562465620722294E-007
  -29.1900000000000         3.566348203548778E-007
  -29.0000000000000         3.565389955826861E-007
  -28.8100000000000         3.575721332754402E-007
  -28.6200000000000         3.578295984268042E-007
  -28.4300000000000         3.590263337531205E-007
  -28.2400000000000         3.590685793899276E-007
  -28.0500000000000         3.602583811789620E-007
  -27.8600000000000         3.601432816065471E-007
  -27.6700000000000         3.613658988991220E-007
  -27.4800000000000         3.629232502532616E-007
  -27.2900000000000         3.644192702861800E-007
  -27.1000000000000         3.659667654823562E-007
  -26.9100000000000         3.674461685433994E-007
  -26.7200000000000         3.686174126492221E-007
  -26.5300000000000         3.691409428764027E-007
  -26.3400000000000         3.695855025275324E-007
  -26.1500000000000         3.697823317847159E-007
  -25.9600000000000         3.699974215294894E-007
  -25.7700000000000         3.703986755543239E-007
  -25.5800000000000         3.709800471103242E-007
  -25.3900000000000         3.718903855178630E-007
  -25.2000000000000         3.728965816436074E-007
  -25.0100000000000         3.740981195336688E-007
  -24.8200000000000         3.761816594238400E-007
  -24.6300000000000         3.782724077621270E-007
  -24.4400000000000         3.802868944182466E-007
  -24.2500000000000         3.823217598078337E-007
  -24.0600000000000         3.842597337207858E-007
  -23.8700000000000         3.863783483000779E-007
  -23.6800000000000         3.884824071137549E-007
  -23.4900000000000         3.902166821346891E-007
  -23.3000000000000         3.920401054749249E-007
  -23.1100000000000         3.937681176090555E-007
  -22.9200000000000         3.947887460709314E-007
  -22.7300000000000         3.952883167644683E-007
  -22.5400000000000         3.961356291340299E-007
  -22.3500000000000         3.974899431073072E-007
  -22.1600000000000         3.993343105601747E-007
  -21.9700000000000         4.016247691821718E-007
  -21.7800000000000         4.036547362321587E-007
  -21.5900000000000         4.049426386245100E-007
  -21.4000000000000         4.061712612849493E-007
  -21.2100000000000         4.075082572983962E-007
  -21.0200000000000         4.083388773764664E-007
  -20.8300000000000         4.098941891816497E-007
  -20.6400000000000         4.113200570865389E-007
  -20.4500000000000         4.127542340639520E-007
  -20.2600000000000         4.179720220301765E-007
  -20.0700000000000         4.193980140724817E-007
  -19.8800000000000         4.252533849739605E-007
  -19.6900000000000         4.261233583588715E-007
  -19.5000000000000         4.278276010036390E-007
  -19.3100000000000         4.308689258146115E-007
  -19.1200000000000         4.316842958352942E-007
  -18.9300000000000         4.365601018388289E-007
  -18.7400000000000         4.366261542983575E-007
  -18.5500000000000         4.359287310292236E-007
  -18.3600000000000         4.371631301305567E-007
  -18.1700000000000         4.425168195606514E-007
  -17.9800000000000         4.413697741883733E-007
  -17.7900000000000         4.429936260928364E-007
  -17.6000000000000         4.424492378173186E-007
  -17.4100000000000         4.422236705756392E-007
  -17.2200000000000         4.421865948450672E-007
  -17.0300000000000         4.421919577064269E-007
  -16.8400000000000         4.432589426014500E-007
  -16.6500000000000         4.428826177131330E-007
  -16.4600000000000         4.428360266205432E-007
  -16.2700000000000         4.427353736709248E-007
  -16.0800000000000         4.454110470632737E-007
  -15.8900000000000         4.463342305408748E-007
  -15.7000000000000         4.517679669518677E-007
  -15.5100000000000         4.533061907904276E-007
  -15.3200000000000         4.593697850676383E-007
  -15.1300000000000         4.606979636523227E-007
  -14.9400000000000         4.663050728933106E-007
  -14.7500000000000         4.669252841166353E-007
  -14.5600000000000         4.698640999803331E-007
  -14.3700000000000         4.714908086377241E-007
  -14.1800000000000         4.780695054470557E-007
  -13.9900000000000         4.788260117163200E-007
  -13.8000000000000         4.806020216025333E-007
  -13.6100000000000         4.813224514620669E-007
  -13.4200000000000         4.853686196456094E-007
  -13.2300000000000         4.853504697678049E-007
  -13.0400000000000         4.858216444009942E-007
  -12.8500000000000         4.866385640904182E-007
  -12.6600000000000         4.915956149408107E-007
  -12.4700000000000         4.920560622621893E-007
  -12.2800000000000         4.936350389833004E-007
  -12.0900000000000         4.942758446316917E-007
  -11.9000000000000         4.983311873932155E-007
  -11.7100000000000         4.987514294432483E-007
  -11.5200000000000         5.011272026394140E-007
  -11.3300000000000         5.020642012707882E-007
  -11.1400000000000         5.070857784987083E-007
  -10.9500000000000         5.081909240709453E-007
  -10.7600000000000         5.131393616252261E-007
  -10.5700000000000         5.149761192546735E-007
  -10.3800000000000         5.221195675244175E-007
  -10.1900000000000         5.228438490565538E-007
  -10.0000000000000         5.248966003137104E-007
  -9.81000000000000         5.259234372121854E-007
  -9.62000000000000         5.309423736344453E-007
  -9.42999999999999         5.310963410146512E-007
  -9.23999999999999         5.304404383050053E-007
  -9.05000000000000         5.314970388525761E-007
  -8.86000000000000         5.360211018474063E-007
  -8.67000000000000         5.361465430367034E-007
  -8.48000000000000         5.361079709077558E-007
  -8.28999999999999         5.366072298997635E-007
  -8.09999999999999         5.395255428356542E-007
  -7.91000000000000         5.398354368946976E-007
  -7.72000000000000         5.399854787493682E-007
  -7.53000000000000         5.407851468965225E-007
  -7.34000000000000         5.440329077941624E-007
  -7.15000000000001         5.440534144045290E-007
  -6.95999999999999         5.430263311349210E-007
  -6.77000000000000         5.430294097867681E-007
  -6.58000000000000         5.437004556737425E-007
  -6.39000000000000         5.437160525896447E-007
  -6.20000000000000         5.424717087165490E-007
  -6.01000000000001         5.432570224580971E-007
  -5.81999999999999         5.467176352724836E-007
  -5.63000000000000         5.430016921428317E-007
  -5.44000000000000         5.437477881701896E-007
  -5.25000000000000         5.446263831383686E-007
  -5.06000000000000         5.442523824863486E-007
  -4.87000000000000         5.414771963850308E-007
  -4.67999999999999         5.427428740389123E-007
  -4.48999999999999         5.456377265788086E-007
  -4.30000000000000         5.437907056801214E-007
  -4.11000000000000         5.441460437078849E-007
  -3.92000000000000         5.461125006062668E-007
  -3.73000000000000         5.402974322853215E-007
  -3.53999999999999         5.420214050207641E-007
  -3.34999999999999         5.452512446407541E-007
  -3.16000000000000         5.442294903774863E-007
  -2.97000000000000         5.432635270389059E-007
  -2.78000000000000         5.379831118555977E-007
  -2.59000000000000         5.386998782784346E-007
  -2.40000000000001         5.414515121877691E-007
  -2.20999999999999         5.374791084592285E-007
  -2.02000000000000         5.393946040439724E-007
  -1.83000000000000         5.429452135910534E-007
  -1.64000000000000         5.412151416729299E-007
  -1.45000000000000         5.422434208493893E-007
  -1.26000000000001         5.452194665321131E-007
  -1.06999999999999         5.436186469633735E-007
 -0.879999999999995         5.467791152594921E-007
 -0.689999999999998         5.510793580446390E-007
 -0.500000000000000         5.531852798627342E-007
 -0.310000000000002         5.494866816468640E-007
 -0.120000000000005         5.510257804194673E-007
  7.000000000000739E-002    5.537637270809927E-007
  0.260000000000005         5.528395997401830E-007
  0.450000000000003         5.522723968882192E-007
  0.640000000000001         5.487769008140780E-007
  0.829999999999998         5.524293103643585E-007
   1.02000000000000         5.578574039328637E-007
   1.21000000000001         5.603968249350789E-007
   1.40000000000001         5.595178373472851E-007
   1.59000000000000         5.580514306394656E-007
   1.78000000000000         5.564896252419778E-007
   1.97000000000000         5.550104642058428E-007
   2.16000000000000         5.538441683755915E-007
   2.34999999999999         5.499628872035568E-007
   2.54000000000001         5.565787171096200E-007
   2.73000000000000         5.637836547172157E-007
   2.92000000000000         5.680137427642600E-007
   3.11000000000000         5.693563420964427E-007
   3.30000000000000         5.692638907010942E-007
   3.48999999999999         5.685465562712316E-007
   3.68000000000001         5.675559781050517E-007
   3.87000000000000         5.664849139365118E-007
   4.06000000000000         5.662351982707087E-007
   4.25000000000000         5.664186131881444E-007
   4.44000000000000         5.666880488001022E-007
   4.63000000000000         5.673197402649762E-007
   4.82000000000001         5.676491988230739E-007
   5.01000000000001         5.681611991121989E-007
   5.20000000000000         5.686566606289598E-007
   5.39000000000000         5.696834498107874E-007
   5.58000000000000         5.703128055691159E-007
   5.77000000000000         5.714102328501944E-007
   5.96000000000001         5.722794760135452E-007
   6.15000000000001         5.729741926293557E-007
   6.34000000000000         5.734205069935140E-007
   6.53000000000000         5.733652176758116E-007