  -105.000000000000         0.000000000000000E+000
  -104.810000000000        -2.489227489357909E-020
  -104.620000000000        -6.863876645740314E-020
  -104.430000000000        -1.211929726983867E-019
  -104.240000000000        -1.713151078638633E-019
  -104.050000000000        -2.097011560309099E-019
  -103.860000000000        -2.315246114283758E-019
  -103.670000000000        -2.376605489536807E-019
  -103.480000000000        -2.342448430341834E-019
  -103.290000000000        -2.307054594619226E-019
  -103.100000000000        -2.368464138276955E-019
  -102.910000000000        -2.598386219140918E-019
  -102.720000000000        -3.019961716318946E-019
  -102.530000000000        -3.599857063056350E-019
  -102.340000000000        -4.256989767214692E-019
  -102.150000000000        -4.885356204802702E-019
  -101.960000000000        -5.384339877078997E-019
  -101.770000000000        -5.687699498894787E-019
  -101.580000000000        -5.782801856527865E-019
  -101.390000000000        -5.714477267335941E-019
  -101.200000000000        -5.572330162205700E-019
  -101.010000000000        -5.465144476289349E-019
  -100.820000000000        -5.489781260161475E-019
  -100.630000000000        -5.703571976292843E-019
  -100.440000000000        -6.108193002220231E-019
  -100.250000000000        -6.649665488239697E-019
  -100.060000000000        -7.234441129011484E-019
  -99.8700000000000        -7.756874957608765E-019
  -99.6800000000000        -8.130100081595067E-019
  -99.4900000000000        -8.311349696130460E-019
  -99.3000000000000        -8.314390656837013E-019
  -99.1100000000000        -8.205469939550882E-019
  -98.9200000000000        -8.083955736911316E-019
  -98.7300000000000        -8.053302441678265E-019
  -98.5400000000000        -8.190791780595652E-019
  -98.3500000000000        -8.524867428478009E-019
  -98.1600000000000        -9.026668472594187E-019
  -97.9700000000000        -9.618222529316724E-019
  -97.7800000000000        -1.019490141311658E-018
  -97.5900000000000        -1.065559629502643E-018
  -97.4000000000000        -1.093184016651210E-018
  -97.2100000000000        -1.100742827428266E-018
  -97.0200000000000        -1.092285494647607E-018
  -96.8300000000000        -1.076329222377929E-018
  -96.6400000000000        -1.063361186361352E-018
  -96.4500000000000        -1.062771911898124E-018
  -96.2600000000000        -1.080112713571257E-018
  -96.0700000000000        -1.115476236818162E-018
  -95.8800000000000        -1.163472114024098E-018
  -95.6900000000000        -1.214804822245915E-018
  -95.5000000000000        -1.258993685934738E-018
  -95.3100000000000        -1.287441867337837E-018
  -95.1200000000000        -1.295959307079321E-018
  -94.9300000000000        -1.286003590681270E-018
  -94.7400000000000        -1.264276052384435E-018
  -94.5500000000000        -1.240789159458880E-018
  -94.3600000000000        -1.225966171043153E-018
  -94.1700000000000        -1.227616186902751E-018
  -93.9800000000000        -1.248665109596440E-018
  -93.7900000000000        -1.286304451284640E-018
  -93.6000000000000        -1.332808002700621E-018
  -93.4100000000000        -1.377780335157248E-018
  -93.2200000000000        -1.411182968700350E-018
  -93.0300000000000        -1.426257224495102E-018
  -92.8400000000000        -1.421494293291386E-018
  -92.6500000000000        -1.401082419839974E-018
  -92.4600000000000        -1.373704464772705E-018
  -92.2700000000000        -1.350036367670586E-018
  -92.0800000000000        -1.339670954863268E-018
  -91.8900000000000        -1.348356088315719E-018
  -91.7000000000000        -1.376344948701158E-018
  -91.5100000000000        -1.418335058754523E-018
  -91.3200000000000        -1.465012908185962E-018
  -91.1300000000000        -1.505755066882178E-018
  -90.9400000000000        -1.531700227808571E-018
  -90.7500000000000        -1.538298699639415E-018
  -90.5600000000000        -1.526598487998278E-018
  -90.3700000000000        -1.502895625312047E-018
  -90.1800000000000        -1.476853202142189E-018
  -89.9900000000000        -1.458639553911905E-018
  -89.8000000000000        -1.455920955939511E-018
  -89.6100000000000        -1.471584823574262E-018
  -89.4200000000000        -1.502854975287908E-018
  -89.2300000000000        -1.542055249728687E-018
  -89.0400000000000        -1.578800484677337E-018
  -88.8500000000000        -1.602982347169114E-018
  -88.6600000000000        -1.607689399158568E-018
  -88.4700000000000        -1.591221014303085E-018
  -88.2800000000000        -1.557617236934418E-018
  -88.0900000000000        -1.515555456827869E-018
  -87.9000000000000        -1.475935312767633E-018
  -87.7100000000000        -1.448848671794869E-018
  -87.5200000000000        -1.440803723704235E-018
  -87.3300000000000        -1.452993861010557E-018
  -87.1400000000000        -1.481098511019545E-018
  -86.9500000000000        -1.516662408883929E-018
  -86.7600000000000        -1.549646775864766E-018
  -86.5700000000000        -1.571409075507389E-018
  -86.3800000000000        -1.577245005541455E-018
  -86.1900000000000        -1.567754509748254E-018
  -86.0000000000000        -1.548636762077694E-018
  -85.8100000000000        -1.528977153646093E-018
  -85.6200000000000        -1.518528046007020E-018
  -85.4300000000000        -1.524776426237921E-018
  -85.2400000000000        -1.550651743394119E-018
  -85.0500000000000        -1.593540278070008E-018
  -84.8600000000000        -1.645893938500891E-018
  -84.6700000000000        -1.697261486548817E-018
  -84.4800000000000        -1.737161736157612E-018
  -84.2900000000000        -1.757978275992608E-018
  -84.1000000000000        -1.757050872321272E-018
  -83.9100000000000        -1.737369017359406E-018
  -83.7200000000000        -1.706671863765413E-018
  -83.5300000000000        -1.675213832250959E-018
  -83.3400000000000        -1.652837814344125E-018
  -83.1500000000000        -1.646197526004585E-018
  -82.9600000000000        -1.656927491363248E-018
  -82.7700000000000        -1.681284446309735E-018
  -82.5800000000000        -1.711357485000106E-018
  -82.3900000000000        -1.737490409864256E-018
  -82.2000000000000        -1.751209802669521E-018
  -82.0100000000000        -1.747806253765960E-018
  -81.8200000000000        -1.727815197223153E-018
  -81.6300000000000        -1.696960345047385E-018
  -81.4400000000000        -1.664567869848402E-018
  -81.2500000000000        -1.640905770069066E-018
  -81.0600000000000        -1.634219521363069E-018
  -80.8700000000000        -1.648327839091892E-018
  -80.6800000000000        -1.681482981386496E-018
  -80.4900000000000        -1.726834620024081E-018
  -80.3000000000000        -1.774370680096087E-018
  -80.1100000000000        -1.813777592898223E-018
  -79.9200000000000        -1.837391852284165E-018
  -79.7300000000000        -1.842384476830566E-018
  -79.5400000000000        -1.831539850968512E-018
  -79.3500000000000        -1.812397165906851E-018
  -79.1600000000000        -1.794998451400615E-018
  -78.9700000000000        -1.788894028095342E-018
  -78.7800000000000        -1.800276140731962E-018
  -78.5900000000000        -1.830080142963536E-018
  -78.4000000000000        -1.873616831268543E-018
  -78.2100000000000        -1.921856439188115E-018
  -78.0200000000000        -1.964001966107796E-018
  -77.8300000000000        -1.990609215882424E-018
  -77.6400000000000        -1.996346534464545E-018
  -77.4500000000000        -1.981587532148730E-018
  -77.2600000000000        -1.952365553187009E-018
  -77.0700000000000        -1.918692335085328E-018
  -76.8800000000000        -1.891719093043325E-018
  -76.6900000000000        -1.880558590973267E-018
  -76.5000000000000        -1.889691186437018E-018
  -76.3100000000000        -1.917712820038748E-018
  -76.1200000000000        -1.957793529620099E-018
  -75.9300000000000        -1.999714136007787E-018
  -75.7400000000000        -2.032884636116528E-018
  -75.5500000000000        -2.049459137177228E-018
  -75.3600000000000        -2.046634604181724E-018
  -75.1700000000000        -2.027461722089390E-018
  -74.9800000000000        -1.999933973938205E-018
  -74.7900000000000        -1.974626063921390E-018
  -74.6000000000000        -1.961576122933212E-018
  -74.4100000000000        -1.967324402784121E-018
  -74.2200000000000        -1.992973266320338E-018
  -74.0300000000000        -2.033835697925603E-018
  -73.8400000000000        -2.080778733766008E-018
  -73.6500000000000        -2.122875733262017E-018
  -73.4600000000000        -2.150598522191356E-018
  -73.2700000000000        -2.158618817484923E-018
  -73.0800000000000        -2.147397370362592E-018
  -72.8900000000000        -2.123089938253616E-018
  -72.7000000000000        -2.095790409750705E-018
  -72.5100000000000        -2.076618511906903E-018
  -72.3200000000000        -2.074498166760406E-018
  -72.1300000000000        -2.093563019206661E-018
  -71.9400000000000        -2.131941964115176E-018
  -71.7500000000000        -2.182273803005119E-018
  -71.5600000000000        -2.233795156086664E-018
  -71.3700000000000        -2.275388722506429E-018
  -71.1800000000000        -2.298704747942750E-018
  -70.9900000000000        -2.300455959200401E-018
  -70.8000000000000        -2.283235416788486E-018
  -70.6100000000000        -2.254641457526352E-018
  -70.4200000000000        -2.224985318736560E-018
  -70.2300000000000        -2.204261970511084E-018
  -70.0400000000000        -2.199267803621265E-018
  -69.8500000000000        -2.211695482349568E-018
  -69.6600000000000        -2.237745947824018E-018
  -69.4700000000000        -2.269356065904765E-018
  -69.2800000000000        -2.296674672828627E-018
  -69.0900000000000        -2.311061778715845E-018
  -68.9000000000000        -2.307736012679679E-018
  -68.7100000000000        -2.287296700206584E-018
  -68.5200000000000        -2.255672506322524E-018
  -68.3300000000000        -2.222506774781479E-018
  -68.1400000000000        -2.198446920612296E-018
  -67.9500000000000        -2.192125282197224E-018
  -67.7600000000000        -2.207706468307138E-018
  -67.5700000000000        -2.243707013531753E-018
  -67.3800000000000        -2.293419499434658E-018
  -67.1900000000000        -2.346807252150021E-018
  -67.0000000000000        -2.393314520500479E-018
  -66.8100000000000        -2.424781625458930E-018
  -66.6200000000000        -2.437634805141920E-018
  -66.4300000000000        -2.433737455146214E-018
  -66.2400000000000        -2.419677665748485E-018
  -66.0500000000000        -2.404714029486492E-018
  -65.8600000000000        -2.397980999619869E-018
  -65.6700000000000        -2.405761421918989E-018
  -65.4800000000000        -2.429610998243137E-018
  -65.2900000000000        -2.465873805753058E-018
  -65.1000000000000        -2.506728007654619E-018
  -64.9100000000000        -2.542460240858575E-018
  -64.7200000000000        -2.564312550694115E-018
  -64.5300000000000        -2.567078910929977E-018
  -64.3400000000000        -2.550697089694926E-018
  -64.1500000000000        -2.520367482419136E-018
  -63.9600000000000        -2.485153743003253E-018
  -63.7700000000000        -2.455460110176953E-018
  -63.5800000000000        -2.440109449186845E-018
  -63.3900000000000        -2.443866399781379E-018
  -63.2000000000000        -2.466123660230810E-018
  -63.0100000000000        -2.501131694480254E-018
  -62.8200000000000        -2.539702936455625E-018
  -62.6300000000000        -2.571894233410327E-018
  -62.4400000000000        -2.589890216230525E-018
  -62.2500000000000        -2.590254581385260E-018
  -62.0600000000000        -2.574899852251399E-018
  -61.8700000000000        -2.550495641992967E-018
  -61.6800000000000        -2.526484794739501E-018
  -61.4900000000000        -2.512277787723089E-018
  -61.3000000000000        -2.514434948458984E-018
  -61.1100000000000        -2.534655548808183E-018
  -60.9200000000000        -2.569167867493968E-018
  -60.7300000000000        -2.609715339995533E-018
  -60.5400000000000        -2.645872473323155E-018
  -60.3500000000000        -2.668032896679245E-018
  -60.1600000000000        -2.670206476247374E-018
  -59.9700000000000        -2.651807184581294E-018
  -59.7800000000000        -2.617899874537053E-018
  -59.5900000000000        -2.577820435482051E-018
  -59.4000000000000        -2.542558919058568E-018
  -59.2100000000000        -2.521659510576487E-018
  -59.0200000000000        -2.520537684194244E-018
  -58.8300000000000        -2.538998606852670E-018
  -58.6400000000000        -2.571392711497220E-018
  -58.4500000000000        -2.608364967131057E-018
  -58.2600000000000        -2.639685565089434E-018
  -58.0700000000000        -2.657330843704082E-018
  -57.8800000000000        -2.657908575743205E-018
  -57.6900000000000        -2.643712938163268E-018
  -57.5000000000000        -2.622094714196109E-018
  -57.3100000000000        -2.603323675032681E-018
  -57.1200000000000        -2.597559892759009E-018
  -56.9300000000000        -2.611812936589478E-018
  -56.7400000000000        -2.647777330240453E-018
  -56.5500000000000        -2.701185099696702E-018
  -56.3600000000000        -2.762880901393419E-018
  -56.1700000000000        -2.821326139141545E-018
  -55.9800000000000        -2.865819125917749E-018
  -55.7900000000000        -2.889501349501742E-018
  -55.6000000000000        -2.891272677398934E-018
  -55.4100000000000        -2.876051019897377E-018
  -55.2200000000000        -2.853295475849630E-018
  -55.0300000000000        -2.834222631091427E-018
  -54.8400000000000        -2.828530218371605E-018
  -54.6500000000000        -2.841585800068166E-018
  -54.4600000000000        -2.872898319646309E-018
  -54.2700000000000        -2.916310282441154E-018
  -54.0800000000000        -2.961842469161154E-018
  -53.8900000000000        -2.998641327825669E-018
  -53.7000000000000        -3.018161579412434E-018
  -53.5100000000000        -3.016653943502746E-018
  -53.3200000000000        -2.996236813462022E-018
  -53.1300000000000        -2.964248243688344E-018
  -52.9400000000000        -2.931077027015914E-018
  -52.7500000000000        -2.907112492873539E-018
  -52.5600000000000        -2.899705621057373E-018
  -52.3700000000000        -2.911027401331562E-018
  -52.1800000000000        -2.937446777120624E-018
  -51.9900000000000        -2.970607339539463E-018
  -51.8000000000000        -2.999888434584585E-018
  -51.6100000000000        -3.015534826591432E-018
  -51.4200000000000        -3.011544630607335E-018
  -51.2300000000000        -2.987474712691021E-018
  -51.0400000000000        -2.948637793074804E-018
  -50.8500000000000        -2.904635228259899E-018
  -50.6600000000000        -2.866655907264467E-018
  -50.4700000000000        -2.844330758705368E-018
  -50.2800000000000        -2.843057101051834E-018
  -50.0900000000000        -2.862561112740440E-018
  -49.9000000000000        -2.897096782167809E-018
  -49.7100000000000        -2.937199913276623E-018
  -49.5200000000000        -2.972468916388613E-018
  -49.3300000000000        -2.994557775531774E-018
  -49.1400000000000        -2.999518811499718E-018
  -48.9500000000000        -2.988832719886616E-018
  -48.7600000000000        -2.968849223926240E-018
  -48.5700000000000        -2.948820256871219E-018
  -48.3800000000000        -2.938108246224563E-018
  -48.1900000000000        -2.943383189515253E-018
  -48.0000000000000        -2.966619923233997E-018
  -47.8100000000000        -3.004472435321593E-018
  -47.6200000000000        -3.049202473051070E-018
  -47.4300000000000        -3.090889891526191E-018
  -47.2400000000000        -3.120281777114894E-018
  -47.0500000000000        -3.131453868401087E-018
  -46.8600000000000        -3.123514801868336E-018
  -46.6700000000000        -3.100863556516412E-018
  -46.4800000000000        -3.071929902919698E-018
  -46.2900000000000        -3.046765006858556E-018
  -46.1000000000000        -3.034179984436738E-018
  -45.9100000000000        -3.039259285088034E-018
  -45.7200000000000        -3.061964590057820E-018
  -45.5300000000000        -3.097225341450402E-018
  -45.3400000000000        -3.136479069349624E-018
  -45.1500000000000        -3.170206372603075E-018
  -44.9600000000000        -3.190722759319401E-018
  -44.7700000000000        -3.194421523035720E-018
  -44.5800000000000        -3.182824169844168E-018
  -44.3900000000000        -3.162138152158681E-018
  -44.2000000000000        -3.141447963818639E-018
  -44.0100000000000        -3.130056447790784E-018
  -43.8200000000000        -3.134739106853548E-018
  -43.6300000000000        -3.157703968810765E-018
  -43.4400000000000        -3.195852260043112E-018
  -43.2500000000000        -3.241565561798885E-018
  -43.0600000000000        -3.284807328981021E-018
  -42.8700000000000        -3.315944522383392E-018
  -42.6800000000000        -3.328479770522767E-018
  -42.4900000000000        -3.320902794246609E-018
  -42.3000000000000        -3.297120780414910E-018
  -42.1100000000000        -3.265338786388612E-018
  -41.9200000000000        -3.235711672847532E-018
  -41.7300000000000        -3.217445870559618E-018
  -41.5400000000000        -3.216188592707732E-018
  -41.3500000000000        -3.232458960968065E-018
  -41.1600000000000        -3.261575356717521E-018
  -40.9700000000000        -3.295102009679254E-018
  -40.7800000000000        -3.323397218052557E-018
  -40.5900000000000        -3.338522313824819E-018
  -40.4000000000000        -3.336661102961128E-018
  -40.2100000000000        -3.319338561354201E-018
  -40.0200000000000        -3.293074222838866E-018
  -39.8300000000000        -3.267558073268509E-018
  -39.6400000000000        -3.252864933566805E-018
  -39.4500000000000        -3.256505663459591E-018
  -39.2600000000000        -3.281168653661738E-018
  -39.0700000000000        -3.323814724683577E-018
  -38.8800000000000        -3.376404267198038E-018
  -38.6900000000000        -3.428065402036977E-018
  -38.5000000000000        -3.468091610164641E-018
  -38.3100000000000        -3.488911001636487E-018
  -38.1200000000000        -3.488171800685194E-018
  -37.9300000000000        -3.469340502955982E-018
  -37.7400000000000        -3.440638038536148E-018
  -37.5500000000000        -3.412621604188370E-018
  -37.3600000000000        -3.395114904928756E-018
  -37.1700000000000        -3.394379347849656E-018
  -36.9800000000000        -3.411345920875537E-018
  -36.7900000000000        -3.441415358710331E-018
  -36.6000000000000        -3.475877172235414E-018
  -36.4100000000000        -3.504529623800729E-018
  -36.2200000000000        -3.518736276377392E-018
  -36.0300000000000        -3.514028391126769E-018
  -35.8400000000000        -3.491492550685899E-018
  -35.6500000000000        -3.457533728026149E-018
  -35.4600000000000        -3.422076549927568E-018
  -35.2700000000000        -3.395724887410649E-018
  -35.0800000000000        -3.386706140773343E-018
  -34.8900000000000        -3.398489819843562E-018
  -34.7000000000000        -3.428773046369780E-018
  -34.5100000000000        -3.470128618333503E-018
  -34.3200000000000        -3.512129803092609E-018
  -34.1300000000000        -3.544337867391844E-018
  -33.9400000000000        -3.559287348417430E-018
  -33.7500000000000        -3.554604554104821E-018
  -33.5600000000000        -3.533647457942265E-018
  -33.3700000000000        -3.504486147403906E-018
  -33.1800000000000        -3.477526183533230E-018
  -32.9900000000000        -3.462471093352723E-018
  -32.8000000000000        -3.465509429173228E-018
  -32.6100000000000        -3.487542127623611E-018
  -32.4200000000000        -3.523959362316641E-018
  -32.2300000000000        -3.566022815732146E-018
  -32.0400000000000        -3.603441544605292E-018
  -31.8500000000000        -3.627384639804660E-018
  -31.6600000000000        -3.633052250362711E-018
  -31.4700000000000        -3.621060441003574E-018
  -31.2800000000000        -3.597241857770052E-018
  -31.0900000000000        -3.570922615897299E-018
  -30.9000000000000        -3.552176652143689E-018
  -30.7100000000000        -3.548856398890835E-018
  -30.5200000000000        -3.564265739716807E-018
  -30.3300000000000        -3.596156111640741E-018
  -30.1400000000000        -3.637341686279881E-018
  -29.9500000000000        -3.677756994223561E-018
  -29.7600000000000        -3.707359682195490E-018
  -29.5700000000000        -3.719036354426515E-018
  -29.3800000000000        -3.710670298265770E-018
  -29.1900000000000        -3.685772846901696E-018
  -29.0000000000000        -3.652494214896229E-018
  -28.8100000000000        -3.621297509088440E-018
  -28.6200000000000        -3.601967336062823E-018
  -28.4300000000000        -3.600818478514288E-018
  -28.2400000000000        -3.618912878034657E-018
  -28.0500000000000        -3.651801117309379E-018
  -27.8600000000000        -3.690862304088709E-018
  -27.6700000000000        -3.725851728041908E-018
  -27.4800000000000        -3.747914303712817E-018
  -27.2900000000000        -3.752186413896091E-018
  -27.1000000000000        -3.739228377748693E-018
  -26.9100000000000        -3.714869286004440E-018
  -26.7200000000000        -3.688507216107882E-018
  -26.5300000000000        -3.670356976202031E-018
  -26.3400000000000        -3.668443608967923E-018
  -26.1500000000000        -3.686214846011047E-018
  -25.9600000000000        -3.721469323542370E-018
  -25.7700000000000        -3.766919728679792E-018
  -25.5800000000000        -3.812237034770254E-018
  -25.3900000000000        -3.846989254485598E-018
  -25.2000000000000        -3.863623836581947E-018
  -25.0100000000000        -3.859627059847635E-018
  -24.8200000000000        -3.838232168495717E-018
  -24.6300000000000        -3.807470380251417E-018
  -24.4400000000000        -3.777840901331990E-018
  -24.2500000000000        -3.759276315504732E-018
  -24.0600000000000        -3.758282578101786E-018
  -23.8700000000000        -3.776081864036695E-018
  -23.6800000000000        -3.808297191987837E-018
  -23.4900000000000        -3.846271467741414E-018
  -23.3000000000000        -3.879637692516150E-018
  -23.1100000000000        -3.899391005769292E-018
  -22.9200000000000        -3.900565759262566E-018
  -22.7300000000000        -3.883735394090867E-018
  -22.5400000000000        -3.854895719671631E-018
  -22.3500000000000        -3.823763388738312E-018
  -22.1600000000000        -3.800983175849747E-018
  -21.9700000000000        -3.795054678600951E-018
  -21.7800000000000        -3.809869483343168E-018
  -21.5900000000000        -3.843571964500812E-018
  -21.4000000000000        -3.889073017034677E-018
  -21.2100000000000        -3.936067064744529E-018
  -21.0200000000000        -3.973967526392775E-018
  -20.8300000000000        -3.994910731170797E-018
  -20.6400000000000        -3.995959124529297E-018
  -20.4500000000000        -3.979867177626243E-018
  -20.2600000000000        -3.954192243793368E-018
  -20.0700000000000        -3.929016800941093E-018
  -19.8800000000000        -3.913954535126260E-018
  -19.6900000000000        -3.915319366977905E-018
  -19.5000000000000        -3.934284136162398E-018
  -19.3100000000000        -3.966562383735507E-018
  -19.1200000000000        -4.003700101273417E-018
  -18.9300000000000        -4.035595173338980E-018
  -18.7400000000000        -4.053506335092205E-018
  -18.5500000000000        -4.052672132892163E-018
  -18.3600000000000        -4.033773136554979E-018
  -18.1700000000000        -4.002806111470240E-018
  -17.9800000000000        -3.969401809192093E-018
  -17.7900000000000        -3.944073299638186E-018
  -17.6000000000000        -3.935194345261778E-018
  -17.4100000000000        -3.946585494904293E-018
  -17.2200000000000        -3.976407956670721E-018
  -17.0300000000000        -4.017684645212410E-018
  -16.8400000000000        -4.060295376984321E-018
  -16.6500000000000        -4.093867122131022E-018
  -16.4600000000000        -4.110723838780802E-018
  -16.2700000000000        -4.108045827281225E-018
  -16.0800000000000        -4.088618464528065E-018
  -15.8900000000000        -4.059958800158775E-018
  -15.7000000000000        -4.032078369987820E-018
  -15.5100000000000        -4.014535156952415E-018
  -15.3200000000000        -4.013632346948043E-018
  -15.1300000000000        -4.030577512799618E-018
  -14.9400000000000        -4.061135541935322E-018
  -14.7500000000000        -4.096872864375160E-018
  -14.5600000000000        -4.127627279949740E-018
  -14.3700000000000        -4.144483263176887E-018
  -14.1800000000000        -4.142388831549740E-018
  -13.9900000000000        -4.121655616095684E-018
  -13.8000000000000        -4.087906962590578E-018
  -13.6100000000000        -4.050487312867703E-018
  -13.4200000000000        -4.019791263728469E-018
  -13.2300000000000        -4.004284557620920E-018
  -13.0400000000000        -4.008081185939844E-018
  -12.8500000000000        -4.029782342182485E-018
  -12.6600000000000        -4.062917064431001E-018
  -12.4700000000000        -4.097856968000473E-018
  -12.2800000000000        -4.124647505264584E-018
  -12.0900000000000        -4.135932909795622E-018
  -11.9000000000000        -4.129127007698428E-018
  -11.7100000000000        -4.107202058359312E-018
  -11.5200000000000        -4.077867762908071E-018
  -11.3300000000000        -4.051376615912681E-018
  -11.1400000000000        -4.037586528001280E-018
  -10.9500000000000        -4.043125277220908E-018
  -10.7600000000000        -4.069473550769865E-018
  -10.5700000000000        -4.112520478412281E-018
  -10.3800000000000        -4.163721116527767E-018
  -10.1900000000000        -4.212522071767741E-018
  -10.0000000000000        -4.249354778313249E-018
  -9.81000000000000        -4.268332183572936E-018
  -9.62000000000000        -4.268871040250011E-018
  -9.42999999999999        -4.255774405792819E-018
  -9.23999999999999        -4.237756639915094E-018
  -9.05000000000000        -4.224844493853266E-018
  -8.86000000000000        -4.225411248184099E-018
  -8.67000000000000        -4.243704394519956E-018
  -8.48000000000000        -4.278582607182153E-018
  -8.28999999999999        -4.323826157869524E-018
  -8.09999999999999        -4.369927761144200E-018
  -7.91000000000000        -4.406840966142277E-018
  -7.72000000000000        -4.426885484768622E-018
  -7.53000000000000        -4.426964090049148E-018
  -7.34000000000000        -4.409447851166790E-018
  -7.15000000000001        -4.381476278129907E-018
  -6.95999999999999        -4.352879985579974E-018
  -6.77000000000000        -4.333329915239000E-018
  -6.58000000000000        -4.329536932528679E-018
  -6.39000000000000        -4.343309670127618E-018
  -6.20000000000000        -4.371032333774741E-018
  -6.01000000000001        -4.404716432700346E-018
  -5.81999999999999        -4.434326490072969E-018
  -5.63000000000000        -4.450709911578423E-018
  -5.44000000000000        -4.448282745249118E-018
  -5.25000000000000        -4.426690243117055E-018
  -5.06000000000000        -4.390957432475892E-018
  -4.87000000000000        -4.350084324962925E-018
  -4.67999999999999        -4.314492782135711E-018
  -4.48999999999999        -4.293064809096240E-018
  -4.30000000000000        -4.290629375748695E-018
  -4.11000000000000        -4.306623232563299E-018
  -3.92000000000000        -4.335309238211944E-018
  -3.73000000000000        -4.367484569493489E-018
  -3.53999999999999        -4.393182746943294E-018
  -3.34999999999999        -4.404589256153809E-018
  -3.16000000000000        -4.398329487145543E-018
  -2.97000000000000        -4.376467475067064E-018
  -2.78000000000000        -4.345925004272634E-018
  -2.59000000000000        -4.316486925037294E-018
  -2.40000000000001        -4.297967763596406E-018
  -2.20999999999999        -4.297358203600495E-018
  -2.02000000000000        -4.316776821608572E-018
  -1.83000000000000        -4.352820209992921E-018
  -1.64000000000000        -4.397501590073050E-018
  -1.45000000000000        -4.440511642028749E-018
  -1.26000000000001        -4.472155084725934E-018
  -1.06999999999999        -4.486118964988444E-018
 -0.879999999999995        -4.481271681744014E-018
 -0.689999999999998        -4.461967754532691E-018
 -0.500000000000000        -4.436765159856797E-018
 -0.310000000000002        -4.415923634100249E-018
 -0.120000000000005        -4.408408135426457E-018
  7.000000000000739E-002   -4.419267231776378E-018
  0.260000000000005        -4.448147906259063E-018
  0.450000000000003        -4.489377495015094E-018
  0.640000000000001        -4.533588406198653E-018
  0.829999999999998        -4.570415422684866E-018
   1.02000000000000        -4.591486498477724E-018
   1.21000000000001        -4.592843392950750E-018
   1.40000000000001        -4.576092351244138E-018
   1.59000000000000        -4.547950115266335E-018
   1.78000000000000        -4.518311784835516E-018
   1.97000000000000        -4.497393583612785E-018
   2.16000000000000        -4.492774511987168E-018
   2.34999999999999        -4.507195742679675E-018
   2.54000000000001        -4.537760224566423E-018
   2.73000000000000        -4.576768079408917E-018
   2.92000000000000        -4.613946441073194E-018
   3.11000000000000        -4.639426046222875E-018
   3.30000000000000        -4.646599242806579E-018
   3.48999999999999        -4.634028307127951E-018
   3.68000000000001        -4.605849254662061E-018
   3.87000000000000        -4.570554024102178E-018
   4.06000000000000        -4.538506256081342E-018
   4.25000000000000        -4.518916954168924E-018
   4.44000000000000        -4.517167158986220E-018
   4.63000000000000        -4.533264624100159E-018
   4.82000000000001        -4.561887581122005E-018
   5.01000000000001        -4.594000790623973E-018
   5.20000000000000        -4.619566569586195E-018
   5.39000000000000        -4.630551998272499E-018
   5.58000000000000        -4.623347252960918E-018
   5.77000000000000        -4.599884523201530E-018
   5.96000000000001        -4.567129236735765E-018
   6.15000000000001        -4.535090805834651E-018
   6.34000000000000        -4.513930688752276E-018
   6.53000000000000        -4.511008963060932E-018