  -105.000000000000        -3.776579045226741E-020
  -104.810000000000        -8.428942788120375E-020
  -104.620000000000        -7.122457677135547E-020
  -104.430000000000        -2.329609104005884E-020
  -104.240000000000         4.454931136360756E-021
  -104.050000000000        -2.043071534754376E-020
  -103.860000000000        -7.701059681155985E-020
  -103.670000000000        -1.114843213976120E-019
  -103.480000000000        -8.932686578369685E-020
  -103.290000000000        -2.909041397297782E-020
  -103.100000000000         1.455005370186685E-020
  -102.910000000000         2.426634926045246E-021
  -102.720000000000        -5.209160621939584E-020
  -102.530000000000        -9.603003350439066E-020
  -102.340000000000        -8.734234482484236E-020
  -102.150000000000        -3.483113817841155E-020
  -101.960000000000         1.055635210126606E-020
  -101.770000000000         4.657777521455302E-021
  -101.580000000000        -4.749852409819676E-020
  -101.390000000000        -9.633308247514052E-020
  -101.200000000000        -9.500815087445784E-020
  -101.010000000000        -4.418806150817918E-020
  -100.820000000000         8.553468201641080E-021
  -100.630000000000         1.414758131032919E-020
  -100.440000000000        -3.112400301532921E-020
  -100.250000000000        -8.210606009632251E-020
  -100.060000000000        -8.795507667558544E-020
  -99.8700000000000        -4.083907178207659E-020
  -99.6800000000000         1.635153418313792E-020
  -99.4900000000000         3.074044140078694E-020
  -99.3000000000000        -1.014438961554373E-020
  -99.1100000000000        -6.642024346496529E-020
  -98.9200000000000        -8.377706419123781E-020
  -98.7300000000000        -4.510701076159397E-020
  -98.5400000000000         1.337042789413752E-020
  -98.3500000000000         3.675827028228952E-020
  -98.1600000000000         3.778705799304699E-021
  -97.9700000000000        -5.313956195111991E-020
  -97.7800000000000        -7.905547883321848E-020
  -97.5900000000000        -4.912318684345310E-020
  -97.4000000000000         7.699334801983884E-021
  -97.2100000000000         3.652609241027685E-020
  -97.0200000000000         9.338285359745994E-021
  -96.8300000000000        -4.781660271523215E-020
  -96.6400000000000        -7.927583001366557E-020
  -96.4500000000000        -5.260200438193961E-020
  -96.2600000000000         1.051224103938200E-020
  -96.0700000000000         5.468907486691731E-020
  -95.8800000000000         4.315418156184669E-020
  -95.6900000000000        -7.974583536593122E-021
  -95.5000000000000        -4.603184335198901E-020
  -95.3100000000000        -3.299479145690448E-020
  -95.1200000000000         1.761547550301311E-020
  -94.9300000000000         5.355864510523993E-020
  -94.7400000000000         3.423649939298511E-020
  -94.5500000000000        -2.956330094366708E-020
  -94.3600000000000        -8.466509131211556E-020
  -94.1700000000000        -8.494438820145504E-020
  -93.9800000000000        -3.431397275602597E-020
  -93.7900000000000         1.760128918527317E-020
  -93.6000000000000         2.292910664481951E-020
  -93.4100000000000        -1.913381611166148E-020
  -93.2200000000000        -6.231685916818712E-020
  -93.0300000000000        -5.839718392981937E-020
  -92.8400000000000        -4.186232282006199E-021
  -92.6500000000000         5.456753792666610E-020
  -92.4600000000000         6.613680963148292E-020
  -92.2700000000000         2.170326433629617E-020
  -92.0800000000000        -3.643508617570767E-020
  -91.8900000000000        -5.517567176818939E-020
  -91.7000000000000        -2.098079477309180E-020
  -91.5100000000000         2.775597903331971E-020
  -91.3200000000000         3.806992615806558E-020
  -91.1300000000000        -6.279570698614166E-021
  -90.9400000000000        -6.862593341211978E-020
  -90.7500000000000        -9.380287500855939E-020
  -90.5600000000000        -6.035331889641771E-020
  -90.3700000000000        -7.771756936242975E-022
  -90.1800000000000         2.947959039543316E-020
  -89.9900000000000         4.685434064059768E-021
  -89.8000000000000        -4.715705694897196E-020
  -89.6100000000000        -7.182119177618130E-020
  -89.4200000000000        -4.145866638415925E-020
  -89.2300000000000         1.814914317682962E-020
  -89.0400000000000         5.185839086399032E-020
  -88.8500000000000         2.783868483023424E-020
  -88.6600000000000        -3.165883663256865E-020
  -88.4700000000000        -7.096497543125607E-020
  -88.2800000000000        -5.359509708007677E-020
  -88.0900000000000         3.247371679838923E-021
  -87.9000000000000         4.514629973910390E-020
  -87.7100000000000         3.221043577341437E-020
  -87.5200000000000        -2.324301363348102E-020
  -87.3300000000000        -6.885710343953824E-020
  -87.1400000000000        -6.243263632307095E-020
  -86.9500000000000        -1.213104159243166E-020
  -86.7600000000000         3.168106497771585E-020
  -86.5700000000000         2.509443799688230E-020
  -86.3800000000000        -2.675112503814455E-020
  -86.1900000000000        -7.400886824982612E-020
  -86.0000000000000        -6.945175979384570E-020
  -85.8100000000000        -1.369471350403726E-020
  -85.6200000000000         4.485583873988709E-020
  -85.4300000000000         5.533449126626637E-020
  -85.2400000000000         1.192022969318555E-020
  -85.0500000000000        -4.157565903909914E-020
  -84.8600000000000        -5.418099265171713E-020
  -84.6700000000000        -1.661418014703112E-020
  -84.4800000000000         3.017941305571975E-020
  -84.2900000000000         3.492292211039778E-020
  -84.1000000000000        -1.393830960866707E-020
  -83.9100000000000        -7.609244570819662E-020
  -83.7200000000000        -9.694770704582179E-020
  -83.5300000000000        -5.918738082436809E-020
  -83.3400000000000         8.715533751876379E-022
  -83.1500000000000         2.776052071985015E-020
  -82.9600000000000        -6.099657446959286E-022
  -82.7700000000000        -5.238306912588313E-020
  -82.5800000000000        -7.272838291719711E-020
  -82.3900000000000        -3.676644368331874E-020
  -82.2000000000000         2.611929758056776E-020
  -82.0100000000000         5.982002350265663E-020
  -81.8200000000000         3.461100137194679E-020
  -81.6300000000000        -2.479224019148955E-020
  -81.4400000000000        -6.287226626548586E-020
  -81.2500000000000        -4.599252883103748E-020
  -81.0600000000000         6.127879510549217E-021
  -80.8700000000000         4.008473336334757E-020
  -80.6800000000000         2.067540037565399E-020
  -80.4900000000000        -3.473953411358615E-020
  -80.3000000000000        -7.240008701030430E-020
  -80.1100000000000        -5.348847469790939E-020
  -79.9200000000000         8.379569818565676E-021
  -79.7300000000000         5.934968339673910E-020
  -79.5400000000000         5.567487755726577E-020
  -79.3500000000000         4.365796989476520E-021
  -79.1600000000000        -4.440985046731963E-020
  -78.9700000000000        -4.572801393655176E-020
  -78.7800000000000        -2.765078833532308E-021
  -78.5900000000000         3.686365765702848E-020
  -78.4000000000000         2.766832052527375E-020
  -78.2100000000000        -2.901376805710645E-020
  -78.0200000000000        -8.520065222305417E-020
  -77.8300000000000        -9.139635441749478E-020
  -77.6400000000000        -4.368695075020616E-020
  -77.4500000000000         1.220994286161874E-020
  -77.2600000000000         2.402360250105730E-020
  -77.0700000000000        -1.772017104710866E-020
  -76.8800000000000        -7.102616535083224E-020
  -76.6900000000000        -8.267130907711346E-020
  -76.5000000000000        -3.895433250506273E-020
  -76.3100000000000         2.142450442559017E-020
  -76.1200000000000         4.449917787990506E-020
  -75.9300000000000         1.260107432255446E-020
  -75.7400000000000        -3.890857397935917E-020
  -75.5500000000000        -5.569054370032428E-020
  -75.3600000000000        -1.674502392860351E-020
  -75.1700000000000         4.499941112449912E-020
  -74.9800000000000         7.359981218349742E-020
  -74.7900000000000         4.312184489810695E-020
  -74.6000000000000        -1.777712447759931E-020
  -74.4100000000000        -5.312500546871732E-020
  -74.2200000000000        -3.272874989461780E-020
  -74.0300000000000         1.949701046748212E-020
  -73.8400000000000         4.885299971921196E-020
  -73.6500000000000         2.247918656083355E-020
  -73.4600000000000        -3.896374702401016E-020
  -73.2700000000000        -8.079892475441570E-020
  -73.0800000000000        -6.638360035388818E-020
  -72.8900000000000        -1.194188892080355E-020
  -72.7000000000000         2.911721307038249E-020
  -72.5100000000000         1.735270760877052E-020
  -72.3200000000000        -3.504184180284231E-020
  -72.1300000000000        -7.608088258279477E-020
  -71.9400000000000        -6.402984328461291E-020
  -71.7500000000000        -7.820517517069011E-021
  -71.5600000000000         4.087883106405715E-020
  -71.3700000000000         3.655096993736774E-020
  -71.1800000000000        -1.687544341766111E-020
  -70.9900000000000        -6.962426262702757E-020
  -70.8000000000000        -7.312844211287304E-020
  -70.6100000000000        -2.567831615741580E-020
  -70.4200000000000         2.672708872405201E-020
  -70.2300000000000         3.487752935208067E-020
  -70.0400000000000        -6.457507524903876E-021
  -69.8500000000000        -5.374431374687711E-020
  -69.6600000000000        -5.684855475911614E-020
  -69.4700000000000        -7.782272083953157E-021
  -69.2800000000000         5.072471205358724E-020
  -69.0900000000000         6.525199196220268E-020
  -68.9000000000000         2.225406017774823E-020
  -68.7100000000000        -3.904173767269895E-020
  -68.5200000000000        -6.371649625901327E-020
  -68.3300000000000        -3.292130188548288E-020
  -68.1400000000000         1.891644012041311E-020
  -67.9500000000000         3.771781179582405E-020
  -67.7600000000000         2.010530266337150E-021
  -67.5700000000000        -5.617926831821225E-020
  -67.3800000000000        -8.183907109129223E-020
  -67.1900000000000        -4.971728327542881E-020
  -67.0000000000000         1.120688945249955E-020
  -66.8100000000000         4.502602413545449E-020
  -66.6200000000000         2.197383572116356E-020
  -66.4300000000000        -3.337542442320744E-020
  -66.2400000000000        -6.571039950580078E-020
  -66.0500000000000        -4.192725633015986E-020
  -65.8600000000000         1.706834941878637E-020
  -65.6700000000000         5.608313352643448E-020
  -65.4800000000000         3.811773545800871E-020
  -65.2900000000000        -2.043135403714889E-020
  -65.1000000000000        -6.536937336727190E-020
  -64.9100000000000        -5.613759833793280E-020
  -64.7200000000000        -4.039033670351009E-021
  -64.5300000000000         3.905568469167772E-020
  -64.3400000000000         3.058937408746474E-020
  -64.1500000000000        -2.187699621895704E-020
  -63.9600000000000        -6.789477001085597E-020
  -63.7700000000000        -6.248279678529943E-020
  -63.5800000000000        -9.376993624148570E-021
  -63.3900000000000         4.221705067953777E-020
  -63.2000000000000         4.432675153110443E-020
  -63.0100000000000        -4.189971829443434E-021
  -62.8200000000000        -5.663903393703419E-020
  -62.6300000000000        -6.300766883617442E-020
  -62.4400000000000        -1.753706289017252E-020
  -62.2500000000000         3.601625234256116E-020
  -62.0600000000000         4.640644754404845E-020
  -61.8700000000000         3.987317703714748E-021
  -61.6800000000000        -5.013791240511761E-020
  -61.4900000000000        -6.366303197263859E-020
  -61.3000000000000        -2.341889210845576E-020
  -61.1100000000000         3.173825014857639E-020
  -60.9200000000000         4.790610356461050E-020
  -60.7300000000000         7.728343444791548E-021
  -60.5400000000000        -5.266895199792231E-020
  -60.3500000000000        -7.768249855726776E-020
  -60.1600000000000        -4.488547191491225E-020
  -59.9700000000000         1.382140001866623E-020
  -59.7800000000000         4.270937481028879E-020
  -59.5900000000000         1.524799490314490E-020
  -59.4000000000000        -4.090364912997748E-020
  -59.2100000000000        -7.066314495442021E-020
  -59.0200000000000        -4.439147292272776E-020
  -58.8300000000000         1.361474128386595E-020
  -58.6400000000000         4.819666383368920E-020
  -58.4500000000000         2.598685861675753E-020
  -58.2600000000000        -3.260602193215142E-020
  -58.0700000000000        -7.267504247871772E-020
  -57.8800000000000        -5.701164806119781E-020
  -57.6900000000000        -1.405872226351431E-021
  -57.5000000000000         4.062504982326143E-020
  -57.3100000000000         2.905437236445039E-020
  -57.1200000000000        -2.439182264584309E-020
  -56.9300000000000        -6.742463549768295E-020
  -56.7400000000000        -5.714338789543931E-020
  -56.5500000000000        -1.059451809186236E-021
  -56.3600000000000         4.999961497127155E-020
  -56.1700000000000         5.032302799984483E-020
  -55.9800000000000         2.760905369742193E-021
  -55.7900000000000        -4.435501241111366E-020
  -55.6000000000000        -4.380144701376835E-020
  -55.4100000000000         5.051864268842481E-021
  -55.2200000000000         5.538663637791189E-020
  -55.0300000000000         5.760132391378509E-020
  -54.8400000000000         6.918091232723323E-021
  -54.6500000000000        -5.154570637465839E-020
  -54.4600000000000        -6.522567601337567E-020
  -54.2700000000000        -2.372203617555128E-020
  -54.0800000000000         3.165349055078649E-020
  -53.8900000000000         4.740155321890816E-020
  -53.7000000000000         8.663836564731200E-021
  -53.5100000000000        -4.706451947934235E-020
  -53.3200000000000        -6.625906160127424E-020
  -53.1300000000000        -3.093311601051939E-020
  -52.9400000000000         2.385243106015292E-020
  -52.7500000000000         4.333906412193826E-020
  -52.5600000000000         5.492244446572846E-021
  -52.3700000000000        -5.760365581917930E-020
  -52.1800000000000        -8.989389742556173E-020
  -51.9900000000000        -6.431760679906911E-020
  -51.8000000000000        -8.087218550142361E-021
  -51.6100000000000         2.373456843261523E-020
  -51.4200000000000         1.033397013322530E-021
  -51.2300000000000        -5.261970916578156E-020
  -51.0400000000000        -8.271587426922446E-020
  -50.8500000000000        -5.626451927789915E-020
  -50.6600000000000         6.262656299516592E-021
  -50.4700000000000         5.014328272104547E-020
  -50.2800000000000         3.845191793986569E-020
  -50.0900000000000        -1.282975744201980E-020
  -49.9000000000000        -5.022354126702509E-020
  -49.7100000000000        -3.399203060492617E-020
  -49.5200000000000         2.369596655475487E-020
  -49.3300000000000         7.012946556168014E-020
  -49.1400000000000         6.220255796206683E-020
  -48.9500000000000         7.567287655552263E-021
  -48.7600000000000        -4.250358960612146E-020
  -48.5700000000000        -4.180880024275460E-020
  -48.3800000000000         6.936392429198027E-021
  -48.1900000000000         5.486877692384967E-020
  -48.0000000000000         5.364557017615908E-020
  -47.8100000000000         1.494716107748163E-021
  -47.6200000000000        -5.519381656702040E-020
  -47.4300000000000        -6.617348847582210E-020
  -47.2400000000000        -2.523879677375879E-020
  -47.0500000000000         2.402243054801456E-020
  -46.8600000000000         3.013133860793556E-020
  -46.6700000000000        -1.676903000201222E-020
  -46.4800000000000        -7.512831538659379E-020
  -46.2900000000000        -9.129360923469413E-020
  -46.1000000000000        -5.039339180723214E-020
  -45.9100000000000         9.692546915328833E-021
  -45.7200000000000         3.450065245656850E-020
  -45.5300000000000         4.708724832190629E-021
  -45.3400000000000        -4.594767532592272E-020
  -45.1500000000000        -6.359684612127548E-020
  -44.9600000000000        -2.638372563028594E-020
  -44.7700000000000         3.416459480229138E-020
  -44.5800000000000         6.307412220552509E-020
  -44.3900000000000         3.452183904700278E-020
  -44.2000000000000        -2.324632893545974E-020
  -44.0100000000000        -5.458277781880541E-020
  -43.8200000000000        -2.934890169721174E-020
  -43.6300000000000         2.836497067927343E-020
  -43.4400000000000         6.316558467157803E-020
  -43.2500000000000         4.114882696667537E-020
  -43.0600000000000        -1.778205847498455E-020
  -42.8700000000000        -5.892174652742427E-020
  -42.6800000000000        -4.494040477616527E-020
  -42.4900000000000         8.573246212537380E-021
  -42.3000000000000         4.809307664763604E-020
  -42.1100000000000         3.334759979441207E-020
  -41.9200000000000        -2.409773143401726E-020
  -41.7300000000000        -7.168278973451430E-020
  -41.5400000000000        -6.583481060981467E-020
  -41.3500000000000        -1.343872418162154E-020
  -41.1600000000000         3.478515248064000E-020
  -40.9700000000000         3.266283322982779E-020
  -40.7800000000000        -1.750206228439365E-020
  -40.5900000000000        -6.734295604797240E-020
  -40.4000000000000        -6.878619851748887E-020
  -40.2100000000000        -2.004325262010037E-020
  -40.0200000000000         3.264966137965301E-020
  -39.8300000000000         3.918113682316314E-020
  -39.6400000000000        -6.572937868574479E-021
  -39.4500000000000        -6.091709686333480E-020
  -39.2600000000000        -7.210234971167984E-020
  -39.0700000000000        -2.972078661041861E-020
  -38.8800000000000         2.551684420286671E-020
  -38.6900000000000         4.093426732405176E-020
  -38.5000000000000         2.511805839216459E-021
  -38.3100000000000        -5.142795321972652E-020
  -38.1200000000000        -6.663740964911411E-020
  -37.9300000000000        -2.481508755165773E-020
  -37.7400000000000         3.856065145708015E-020
  -37.5500000000000         6.755468091441292E-020
  -37.3600000000000         3.856664816631836E-020
  -37.1700000000000        -1.770342650569247E-020
  -36.9800000000000        -4.597358749693662E-020
  -36.7900000000000        -1.932404861563191E-020
  -36.6000000000000         3.517407666749175E-020
  -36.4100000000000         6.256543311947419E-020
  -36.2200000000000         3.292048158722543E-020
  -36.0300000000000        -2.947876654918982E-020
  -35.8400000000000        -6.864281307054201E-020
  -35.6500000000000        -4.972545444810721E-020
  -35.4600000000000         8.130481787239926E-021
  -35.2700000000000         5.021445381901680E-020
  -35.0800000000000         3.825329110618204E-020
  -34.8900000000000        -1.363982496307431E-020
  -34.7000000000000        -5.322169228490485E-020
  -34.5100000000000        -4.074059082593746E-020
  -34.3200000000000         1.258516056390568E-020
  -34.1300000000000         5.507963082359286E-020
  -33.9400000000000         4.409100476558528E-020
  -33.7500000000000        -1.292089197344095E-020
  -33.5600000000000        -6.509099304375138E-020
  -33.3700000000000        -6.632618635352025E-020
  -33.1800000000000        -1.894940249255193E-020
  -32.9900000000000         2.884841655636027E-020
  -32.8000000000000         2.928234189100158E-020
  -32.6100000000000        -1.921498983993691E-020
  -32.4200000000000        -7.040574132433324E-020
  -32.2300000000000        -7.447105742783822E-020
  -32.0400000000000        -2.585196829543288E-020
  -31.8500000000000         3.106363476154953E-020
  -31.6600000000000         4.397578527916984E-020
  -31.4700000000000         2.376989199614359E-021
  -31.2800000000000        -5.250192048412172E-020
  -31.0900000000000        -6.701865925042911E-020
  -30.9000000000000        -2.626412905804508E-020
  -30.7100000000000         3.170066360439131E-020
  -30.5200000000000         5.211547917679794E-020
  -30.3300000000000         1.577660902984612E-020
  -30.1400000000000        -4.254177505624752E-020
  -29.9500000000000        -6.709495742054371E-020
  -29.7600000000000        -3.412598907519759E-020
  -29.5700000000000         2.570667738146129E-020
  -29.3800000000000         5.669750570957907E-020
  -29.1900000000000         3.111282700975398E-020
  -29.0000000000000        -2.470389157073730E-020
  -28.8100000000000        -5.589902571402983E-020
  -28.6200000000000        -3.178770105822889E-020
  -28.4300000000000         2.474767569469481E-020
  -28.2400000000000         5.923640368157879E-020
  -28.0500000000000         3.790133957020305E-020
  -27.8600000000000        -1.984141266632083E-020
  -27.6700000000000        -5.979738904374983E-020
  -27.4800000000000        -4.473387830264102E-020
  -27.2900000000000         9.980180603132447E-021
  -27.1000000000000         5.087439026293717E-020
  -26.9100000000000         3.723051801818022E-020
  -26.7200000000000        -2.017913688308108E-020
  -26.5300000000000        -6.942136368842985E-020
  -26.3400000000000        -6.692530663424423E-020
  -26.1500000000000        -1.884722925593934E-020
  -25.9600000000000         2.528944123221942E-020
  -25.7700000000000         2.056938849654733E-020
  -25.5800000000000        -2.967176376569167E-020
  -25.3900000000000        -7.638859719568259E-020
  -25.2000000000000        -7.133343767450340E-020
  -25.0100000000000        -1.330790237173803E-020
  -24.8200000000000         4.998277782496426E-020
  -24.6300000000000         6.642650822992399E-020
  -24.4400000000000         2.812344343675394E-020
  -24.2500000000000        -2.206940939570057E-020
  -24.0600000000000        -3.212393358413010E-020
  -23.8700000000000         9.266784535133281E-021
  -23.6800000000000         6.207640661024899E-020
  -23.4900000000000         7.356946516879786E-020
  -23.3000000000000         2.913464973977597E-020
  -23.1100000000000        -3.327895184992140E-020
  -22.9200000000000        -5.895551954117120E-020
  -22.7300000000000        -2.828820521638686E-020
  -22.5400000000000         2.481512768941003E-020
  -22.3500000000000         4.558151894414201E-020
  -22.1600000000000         1.085792042071048E-020
  -21.9700000000000        -4.871334582960777E-020
  -21.7800000000000        -7.796649082575015E-020
  -21.5900000000000        -4.995227979091497E-020
  -21.4000000000000         8.190594988655845E-021
  -21.2100000000000         4.093878438428633E-020
  -21.0200000000000         1.717535070989690E-020
  -20.8300000000000        -4.031101367838974E-020
  -20.6400000000000        -7.679665166121115E-020
  -20.4500000000000        -5.803788226101603E-020
  -20.2600000000000        -2.969199300900300E-021
  -20.0700000000000         3.460676129345762E-020
  -19.8800000000000         1.783504925282121E-020
  -19.6900000000000        -3.742163305624531E-020
  -19.5000000000000        -7.716107228000292E-020
  -19.3100000000000        -6.047269916327469E-020
  -19.1200000000000         1.317802772027247E-021
  -18.9300000000000         5.496075787023339E-020
  -18.7400000000000         5.533478807092610E-020
  -18.5500000000000         7.629521082916265E-021
  -18.3600000000000        -3.838838274778980E-020
  -18.1700000000000        -3.631652499978079E-020
  -17.9800000000000         1.259971500065430E-020
  -17.7900000000000         6.101118593703636E-020
  -17.6000000000000         6.117098551516755E-020
  -17.4100000000000         1.100373064506359E-020
  -17.2200000000000        -4.357758918517966E-020
  -17.0300000000000        -5.239971830062051E-020
  -16.8400000000000        -9.019697513526174E-021
  -16.6500000000000         4.295155067374827E-020
  -16.4600000000000         5.131786079617429E-020
  -16.2700000000000         5.033334383083927E-021
  -16.0800000000000        -5.518660526105007E-020
  -15.8900000000000        -7.544965370010760E-020
  -15.7000000000000        -3.968059937691557E-020
  -15.5100000000000         1.554944083042852E-020
  -15.3200000000000         3.641599703052110E-020
  -15.1300000000000         3.536082159174648E-021
  -14.9400000000000        -4.955673970498366E-020
  -14.7500000000000        -6.886794107909012E-020
  -14.5600000000000        -3.222777755030658E-020
  -14.3700000000000         2.873200314252203E-020
  -14.1800000000000         5.811481253908734E-020
  -13.9900000000000         2.880221914581993E-020
  -13.8000000000000        -3.154212450153051E-020
  -13.6100000000000        -6.642321368748133E-020
  -13.4200000000000        -4.386603072585579E-020
  -13.2300000000000         1.356764738326918E-020
  -13.0400000000000         5.063146126823985E-020
  -12.8500000000000         3.218619200811563E-020
  -12.6600000000000        -2.343344882727329E-020
  -12.4700000000000        -6.216258752811737E-020
  -12.2800000000000        -4.594574875080014E-020
  -12.0900000000000         1.096092032373593E-020
  -11.9000000000000         5.571595953124486E-020
  -11.7100000000000         4.746840115095232E-020
  -11.5200000000000        -3.585232751688607E-021
  -11.3300000000000        -4.604610310698396E-020
  -11.1400000000000        -3.669028232231632E-020
  -10.9500000000000         1.782488093278025E-020
  -10.7600000000000         6.681920675397117E-020
  -10.5700000000000         6.349283743256554E-020
  -10.3800000000000         9.270921508879635E-021
  -10.1900000000000        -4.759189048935623E-020
  -10.0000000000000        -5.775193907614748E-020
  -9.81000000000000        -1.723613633283139E-020
  -9.62000000000000         2.964479843920795E-020
  -9.42999999999999         3.354361095965024E-020
  -9.23999999999999        -1.208489660110538E-020
  -9.05000000000000        -6.448958399388689E-020
  -8.86000000000000        -7.274380250261003E-020
  -8.67000000000000        -2.709321224851950E-020
  -8.48000000000000         3.081753981115416E-020
  -8.28999999999999         4.689324973586392E-020
  -8.09999999999999         5.799379626461889E-021
  -7.91000000000000        -5.434382894259212E-020
  -7.72000000000000        -7.790635967362725E-020
  -7.53000000000000        -4.420453541921531E-020
  -7.34000000000000         1.341074152083607E-020
  -7.15000000000001         3.984501928027952E-020
  -6.95999999999999         1.094890310099226E-020
  -6.77000000000000        -4.367637169656649E-020
  -6.58000000000000        -6.936865251578104E-020
  -6.39000000000000        -3.904807922439810E-020
  -6.20000000000000         2.054973990840108E-020
  -6.01000000000001         5.420264321716720E-020
  -5.81999999999999         3.097777913988602E-020
  -5.63000000000000        -2.598366188291806E-020
  -5.44000000000000        -6.123674321708339E-020
  -5.25000000000000        -3.969248161362041E-020
  -5.06000000000000         1.999643952155332E-020
  -4.87000000000000         6.310346486434321E-020
  -4.67999999999999         5.070118297994073E-020
  -4.48999999999999        -3.627345191361195E-021
  -4.30000000000000        -4.711049523572568E-020
  -4.11000000000000        -3.830475962226426E-020
  -3.92000000000000         1.350867844004484E-020
  -3.73000000000000         5.767316675969863E-020
  -3.53999999999999         5.116989223185776E-020
  -3.34999999999999         2.288827323207167E-022
  -3.16000000000000        -4.539613931813603E-020
  -2.97000000000000        -4.008706399056994E-020
  -2.78000000000000         1.358121167927904E-020
  -2.59000000000000         6.657832482063520E-020
  -2.40000000000001         6.952470399548777E-020
  -2.20999999999999         1.937508315880217E-020
  -2.02000000000000        -3.778493260857866E-020
  -1.83000000000000        -5.049931031405372E-020
  -1.64000000000000        -1.054629549541961E-020
  -1.45000000000000         3.984796337535085E-020
  -1.26000000000001         4.883345729614219E-020
  -1.06999999999999         4.667034373186372E-021
 -0.879999999999995        -5.312093856785868E-020
 -0.689999999999998        -7.169605933640178E-020
 -0.500000000000000        -3.566138618427172E-020
 -0.310000000000002         1.804187254531766E-020
 -0.120000000000005         3.547011174424071E-020
  7.000000000000739E-002   -2.452207505736646E-021
  0.260000000000005        -6.116735726225346E-020
  0.450000000000003        -8.490901963561948E-020
  0.640000000000001        -4.953817927494631E-020
  0.829999999999998         1.447242575325608E-020
   1.02000000000000         5.075944660013255E-020
   1.21000000000001         3.015820772888647E-020
   1.40000000000001        -2.233897184072864E-020
   1.59000000000000        -5.229876658515902E-020
   1.78000000000000        -2.842991969185011E-020
   1.97000000000000         2.737071199292413E-020
   2.16000000000000         6.124976245617132E-020
   2.34999999999999         3.948558776310742E-020
   2.54000000000001        -1.853566960825404E-020
   2.73000000000000        -5.816184938310852E-020
   2.92000000000000        -4.130265595620370E-020
   3.11000000000000         1.710895912184404E-020
   3.30000000000000         6.288583699203808E-020
   3.48999999999999         5.365448030708262E-020
   3.68000000000001        -1.297959792347564E-021
   3.87000000000000        -5.024970712147789E-020
   4.06000000000000        -4.839976765580489E-020
   4.25000000000000        -2.325108074265860E-022
   4.44000000000000         4.536921583275556E-020
   4.63000000000000         4.235006116495594E-020
   4.82000000000001        -8.196756967557521E-021
   5.01000000000001        -5.899110354039775E-020
   5.20000000000000        -6.189563026631869E-020
   5.39000000000000        -1.423044766335709E-020
   5.58000000000000         3.834957043505255E-020
   5.77000000000000         4.532340626203123E-020
   5.96000000000001        -3.462222292914225E-022
   6.15000000000001        -5.517461067405144E-020
   6.34000000000000        -6.622234910691150E-020
   6.53000000000000        -2.122234846640951E-020