  -105.000000000000         0.000000000000000E+000
  -104.810000000000        -1.435100037186161E-020
  -104.620000000000        -3.202998259485742E-020
  -104.430000000000        -4.141633954497671E-020
  -104.240000000000        -4.088249719007979E-020
  -104.050000000000        -3.972346571315962E-020
  -103.860000000000        -4.864616902214644E-020
  -103.670000000000        -6.898749250155238E-020
  -103.480000000000        -9.101021115323899E-020
  -103.290000000000        -1.029317014993572E-019
  -103.100000000000        -1.020645684629706E-019
  -102.910000000000        -9.740268109264779E-020
  -102.720000000000        -1.011424471910733E-019
  -102.530000000000        -1.171974914560182E-019
  -102.340000000000        -1.376338599227418E-019
  -102.150000000000        -1.503875824894583E-019
  -101.960000000000        -1.508696924305382E-019
  -101.770000000000        -1.463761686909773E-019
  -101.580000000000        -1.490997369723853E-019
  -101.390000000000        -1.644256078482920E-019
  -101.200000000000        -1.857063083129388E-019
  -101.010000000000        -2.005287051805860E-019
  -100.820000000000        -2.024977716860469E-019
  -100.630000000000        -1.972783872639625E-019
  -100.440000000000        -1.971216907881216E-019
  -100.250000000000        -2.091055084097876E-019
  -100.060000000000        -2.283219936247243E-019
  -99.8700000000000        -2.425284375465099E-019
  -99.6800000000000        -2.438408409019133E-019
  -99.4900000000000        -2.363148545569177E-019
  -99.3000000000000        -2.321594731696143E-019
  -99.1100000000000        -2.401697226108241E-019
  -98.9200000000000        -2.573991656863009E-019
  -98.7300000000000        -2.720050070034944E-019
  -98.5400000000000        -2.745398297757066E-019
  -98.3500000000000        -2.669242444037223E-019
  -98.1600000000000        -2.605716870684368E-019
  -97.9700000000000        -2.654883361999865E-019
  -97.7800000000000        -2.807647206098623E-019
  -97.5900000000000        -2.955294181566094E-019
  -97.4000000000000        -2.994315316103746E-019
  -97.2100000000000        -2.926036709318558E-019
  -97.0200000000000        -2.855516164944694E-019
  -96.8300000000000        -2.890551224951523E-019
  -96.6400000000000        -3.037219255262576E-019
  -96.4500000000000        -3.191799379003452E-019
  -96.2600000000000        -3.237106871913947E-019
  -96.0700000000000        -3.151852863053800E-019
  -95.8800000000000        -3.029288387419662E-019
  -95.6900000000000        -2.987866973118782E-019
  -95.5000000000000        -3.059591804858716E-019
  -95.3100000000000        -3.162787977856340E-019
  -95.1200000000000        -3.184972012394950E-019
  -94.9300000000000        -3.095849170944891E-019
  -94.7400000000000        -2.981449160995039E-019
  -94.5500000000000        -2.965750473251547E-019
  -94.3600000000000        -3.093789704580975E-019
  -94.1700000000000        -3.287477820237587E-019
  -93.9800000000000        -3.416578379746504E-019
  -93.7900000000000        -3.417870916710487E-019
  -93.6000000000000        -3.349693480842468E-019
  -93.4100000000000        -3.330740311460172E-019
  -93.2200000000000        -3.422401982066782E-019
  -93.0300000000000        -3.567544376299282E-019
  -92.8400000000000        -3.644311281000098E-019
  -92.6500000000000        -3.583452058970907E-019
  -92.4600000000000        -3.436954636878764E-019
  -92.2700000000000        -3.332132182371272E-019
  -92.0800000000000        -3.354482232400837E-019
  -91.8900000000000        -3.470585509838959E-019
  -91.7000000000000        -3.564149785119954E-019
  -91.5100000000000        -3.550312529976707E-019
  -91.3200000000000        -3.458677064793339E-019
  -91.1300000000000        -3.405646810576059E-019
  -90.9400000000000        -3.482539433448070E-019
  -90.7500000000000        -3.666425357542111E-019
  -90.5600000000000        -3.838990358480598E-019
  -90.3700000000000        -3.895767969348500E-019
  -90.1800000000000        -3.841943626116370E-019
  -89.9900000000000        -3.783745525845852E-019
  -89.8000000000000        -3.824138976672943E-019
  -89.6100000000000        -3.962942342251946E-019
  -89.4200000000000        -4.097059505422432E-019
  -89.2300000000000        -4.120485274511754E-019
  -89.0400000000000        -4.028092761350481E-019
  -88.8500000000000        -3.923423389228591E-019
  -88.6600000000000        -3.922305758995589E-019
  -88.4700000000000        -4.043726968432350E-019
  -88.2800000000000        -4.191972665634362E-019
  -88.0900000000000        -4.247388337336638E-019
  -87.9000000000000        -4.179632653250973E-019
  -87.7100000000000        -4.075832398328046E-019
  -87.5200000000000        -4.057232997312001E-019
  -87.3300000000000        -4.164155850135276E-019
  -87.1400000000000        -4.318889990382247E-019
  -86.9500000000000        -4.401399868162948E-019
  -86.7600000000000        -4.364987948433487E-019
  -86.5700000000000        -4.281011821247625E-019
  -86.3800000000000        -4.269629084045333E-019
  -86.1900000000000        -4.382666096392572E-019
  -86.0000000000000        -4.550862783394671E-019
  -85.8100000000000        -4.646582783609186E-019
  -85.6200000000000        -4.602902694710014E-019
  -85.4300000000000        -4.476130596397615E-019
  -85.2400000000000        -4.392631627898202E-019
  -85.0500000000000        -4.430833723563510E-019
  -84.8600000000000        -4.550619132246778E-019
  -84.6700000000000        -4.636721495640034E-019
  -84.4800000000000        -4.613753016805498E-019
  -84.2900000000000        -4.522039726028301E-019
  -84.1000000000000        -4.481045912785985E-019
  -83.9100000000000        -4.575005302541235E-019
  -83.7200000000000        -4.770197206477135E-019
  -83.5300000000000        -4.943406589315362E-019
  -83.3400000000000        -4.995109253609732E-019
  -83.1500000000000        -4.940094686489647E-019
  -82.9600000000000        -4.889619274874301E-019
  -82.7700000000000        -4.942412556319492E-019
  -82.5800000000000        -5.088674937552658E-019
  -82.3900000000000        -5.218780411404841E-019
  -82.2000000000000        -5.228387423549271E-019
  -82.0100000000000        -5.119527080598683E-019
  -81.8200000000000        -5.001071334239175E-019
  -81.6300000000000        -4.988005275385289E-019
  -81.4400000000000        -5.095281846966839E-019
  -81.2500000000000        -5.226919887194134E-019
  -81.0600000000000        -5.270053456524777E-019
  -80.8700000000000        -5.203633945054046E-019
  -80.6800000000000        -5.117731469744061E-019
  -80.4900000000000        -5.125067423626563E-019
  -80.3000000000000        -5.249741699375686E-019
  -80.1100000000000        -5.400187754265721E-019
  -79.9200000000000        -5.452997903227743E-019
  -79.7300000000000        -5.368345388955171E-019
  -79.5400000000000        -5.227469106320133E-019
  -79.3500000000000        -5.156780854237561E-019
  -79.1600000000000        -5.210879077760124E-019
  -78.9700000000000        -5.325538286013377E-019
  -78.7800000000000        -5.384645530719021E-019
  -78.5900000000000        -5.336045585580798E-019
  -78.4000000000000        -5.244563631622312E-019
  -78.2100000000000        -5.230905967584756E-019
  -78.0200000000000        -5.354815950239315E-019
  -77.8300000000000        -5.554668446032362E-019
  -77.6400000000000        -5.702122097025797E-019
  -77.4500000000000        -5.720678858883145E-019
  -77.2600000000000        -5.655724314151646E-019
  -77.0700000000000        -5.629389169379130E-019
  -76.8800000000000        -5.723060964130657E-019
  -76.6900000000000        -5.899288597712293E-019
  -76.5000000000000        -6.037211938623689E-019
  -76.3100000000000        -6.047315061231532E-019
  -76.1200000000000        -5.955798821806448E-019
  -75.9300000000000        -5.878218185287892E-019
  -75.7400000000000        -5.907914739380742E-019
  -75.5500000000000        -6.026070766409456E-019
  -75.3600000000000        -6.119538805441972E-019
  -75.1700000000000        -6.089701857338150E-019
  -74.9800000000000        -5.948541043168875E-019
  -74.7900000000000        -5.810022571040860E-019
  -74.6000000000000        -5.784678032556069E-019
  -74.4100000000000        -5.877575644055739E-019
  -74.2200000000000        -5.986553053337195E-019
  -74.0300000000000        -6.001944893655286E-019
  -73.8400000000000        -5.912464413560765E-019
  -73.6500000000000        -5.816303494722279E-019
  -73.4600000000000        -5.827043504629594E-019
  -73.2700000000000        -5.964365733413516E-019
  -73.0800000000000        -6.134079418696377E-019
  -72.8900000000000        -6.216623414758294E-019
  -72.7000000000000        -6.179458596595431E-019
  -72.5100000000000        -6.105978005090838E-019
  -72.3200000000000        -6.113518307682102E-019
  -72.1300000000000        -6.239137003941639E-019
  -71.9400000000000        -6.402625661496723E-019
  -71.7500000000000        -6.482450408423173E-019
  -71.5600000000000        -6.432343628061586E-019
  -71.3700000000000        -6.327110850379754E-019
  -71.1800000000000        -6.293449942299590E-019
  -70.9900000000000        -6.391237535366866E-019
  -70.8000000000000        -6.558022140282294E-019
  -70.6100000000000        -6.669125615395782E-019
  -70.4200000000000        -6.655599741680473E-019
  -70.2300000000000        -6.567562678244385E-019
  -70.0400000000000        -6.523065130142565E-019
  -69.8500000000000        -6.592101206839023E-019
  -69.6600000000000        -6.727293522380701E-019
  -69.4700000000000        -6.808125714923664E-019
  -69.2800000000000        -6.756866156299724E-019
  -69.0900000000000        -6.615371809120039E-019
  -68.9000000000000        -6.508908586843355E-019
  -68.7100000000000        -6.530806380444589E-019
  -68.5200000000000        -6.657267189999607E-019
  -68.3300000000000        -6.772929066228841E-019
  -68.1400000000000        -6.782368137164447E-019
  -67.9500000000000        -6.701046593771274E-019
  -67.7600000000000        -6.639040452340316E-019
  -67.5700000000000        -6.693406578759191E-019
  -67.3800000000000        -6.852521671949520E-019
  -67.1900000000000        -7.004395048906104E-019
  -67.0000000000000        -7.041447348396155E-019
  -66.8100000000000        -6.961808868986602E-019
  -66.6200000000000        -6.870348456681424E-019
  -66.4300000000000        -6.878308293246175E-019
  -66.2400000000000        -6.997175069489615E-019
  -66.0500000000000        -7.128007811368226E-019
  -65.8600000000000        -7.156498643544222E-019
  -65.6700000000000        -7.063148083576833E-019
  -65.4800000000000        -6.943382736143768E-019
  -65.2900000000000        -6.918300688836401E-019
  -65.1000000000000        -7.021021881484933E-019
  -64.9100000000000        -7.166704307632033E-019
  -64.7200000000000        -7.234344755169078E-019
  -64.5300000000000        -7.182052635579369E-019
  -64.3400000000000        -7.085933153340705E-019
  -64.1500000000000        -7.065813014047007E-019
  -63.9600000000000        -7.169065738972740E-019
  -63.7700000000000        -7.323813140088258E-019
  -63.5800000000000        -7.406500366756881E-019
  -63.3900000000000        -7.359445715860027E-019
  -63.2000000000000        -7.246075574174637E-019
  -63.0100000000000        -7.191004060041824E-019
  -62.8200000000000        -7.261997467126528E-019
  -62.6300000000000        -7.406232389002554E-019
  -62.4400000000000        -7.501426608703987E-019
  -62.2500000000000        -7.472873227985212E-019
  -62.0600000000000        -7.364564849802251E-019
  -61.8700000000000        -7.296528727317827E-019
  -61.6800000000000        -7.349413042528140E-019
  -61.4900000000000        -7.487052794457275E-019
  -61.3000000000000        -7.591332564024164E-019
  -61.1100000000000        -7.576044584469405E-019
  -60.9200000000000        -7.470727213459573E-019
  -60.7300000000000        -7.394001390923888E-019
  -60.5400000000000        -7.441359508369366E-019
  -60.3500000000000        -7.594143408515990E-019
  -60.1600000000000        -7.736553002886983E-019
  -59.9700000000000        -7.764708201792662E-019
  -59.7800000000000        -7.684031682816052E-019
  -59.5900000000000        -7.602412577513567E-019
  -59.4000000000000        -7.626089302184107E-019
  -59.2100000000000        -7.757846444207478E-019
  -59.0200000000000        -7.894609253010905E-019
  -58.8300000000000        -7.926534041313849E-019
  -58.6400000000000        -7.842873236132212E-019
  -58.4500000000000        -7.743386718745829E-019
  -58.2600000000000        -7.744123173388536E-019
  -58.0700000000000        -7.867289602088006E-019
  -57.8800000000000        -8.020288334807665E-019
  -57.6900000000000        -8.083933864720556E-019
  -57.5000000000000        -8.025630649267799E-019
  -57.3100000000000        -7.929558675392166E-019
  -57.1200000000000        -7.915224034282891E-019
  -56.9300000000000        -8.022247601446370E-019
  -56.7400000000000        -8.171437649174088E-019
  -56.5500000000000        -8.239392475449041E-019
  -56.3600000000000        -8.175463566048994E-019
  -56.1700000000000        -8.049393938558209E-019
  -55.9800000000000        -7.984236059649584E-019
  -55.7900000000000        -8.038902498153188E-019
  -55.6000000000000        -8.152785106811816E-019
  -55.4100000000000        -8.205347996805511E-019
  -55.2200000000000        -8.133588022590212E-019
  -55.0300000000000        -7.994878778569446E-019
  -54.8400000000000        -7.914702991717836E-019
  -54.6500000000000        -7.968590031885095E-019
  -54.4600000000000        -8.110576675941535E-019
  -54.2700000000000        -8.216447600735923E-019
  -54.0800000000000        -8.200720413408628E-019
  -53.8900000000000        -8.096164336642939E-019
  -53.7000000000000        -8.020594511176781E-019
  -53.5100000000000        -8.063241757696954E-019
  -53.3200000000000        -8.199439685198281E-019
  -53.1300000000000        -8.315026191781800E-019
  -52.9400000000000        -8.316985526038253E-019
  -52.7500000000000        -8.224386953753218E-019
  -52.5600000000000        -8.152297082374885E-019
  -52.3700000000000        -8.203516424856239E-019
  -52.1800000000000        -8.371190974487768E-019
  -51.9900000000000        -8.545113235073374E-019
  -51.8000000000000        -8.615597880324226E-019
  -51.6100000000000        -8.575844665563911E-019
  -51.4200000000000        -8.525406520280288E-019
  -51.2300000000000        -8.571917756913283E-019
  -51.0400000000000        -8.725361415110258E-019
  -50.8500000000000        -8.886238079136332E-019
  -50.6600000000000        -8.939166588366275E-019
  -50.4700000000000        -8.862439985198171E-019
  -50.2800000000000        -8.748622114026302E-019
  -50.0900000000000        -8.716322697026683E-019
  -49.9000000000000        -8.797375192305979E-019
  -49.7100000000000        -8.907172153841382E-019
  -49.5200000000000        -8.926544908604697E-019
  -49.3300000000000        -8.817127480933311E-019
  -49.1400000000000        -8.660052939470314E-019
  -48.9500000000000        -8.580757760677458E-019
  -48.7600000000000        -8.631297246379213E-019
  -48.5700000000000        -8.742271401180722E-019
  -48.3800000000000        -8.790170687301682E-019
  -48.1900000000000        -8.715913109949766E-019
  -48.0000000000000        -8.581669334991055E-019
  -47.8100000000000        -8.512059943280372E-019
  -47.6200000000000        -8.575989413781609E-019
  -47.4300000000000        -8.721796446235049E-019
  -47.2400000000000        -8.827448669989742E-019
  -47.0500000000000        -8.817703873975333E-019
  -46.8600000000000        -8.736163433907285E-019
  -46.6700000000000        -8.703204787265175E-019
  -46.4800000000000        -8.799885747914929E-019
  -46.2900000000000        -8.988692385734230E-019
  -46.1000000000000        -9.146801463006771E-019
  -45.9100000000000        -9.180187274601716E-019
  -45.7200000000000        -9.109969784728519E-019
  -45.5300000000000        -9.049084795266758E-019
  -45.3400000000000        -9.092076630366200E-019
  -45.1500000000000        -9.223685961505267E-019
  -44.9600000000000        -9.333744645627044E-019
  -44.7700000000000        -9.323944118900352E-019
  -44.5800000000000        -9.203919185378339E-019
  -44.3900000000000        -9.084262454519361E-019
  -44.2000000000000        -9.072736196999736E-019
  -44.0100000000000        -9.172598504474102E-019
  -43.8200000000000        -9.280150752711190E-019
  -43.6300000000000        -9.284124330923508E-019
  -43.4400000000000        -9.172363864129952E-019
  -43.2500000000000        -9.044095109171510E-019
  -43.0600000000000        -9.015998321656588E-019
  -42.8700000000000        -9.111666931376451E-019
  -42.6800000000000        -9.239900958460791E-019
  -42.4900000000000        -9.282440469525879E-019
  -42.3000000000000        -9.207322622853158E-019
  -42.1100000000000        -9.099686778264858E-019
  -41.9200000000000        -9.080601743634384E-019
  -41.7300000000000        -9.191258157714129E-019
  -41.5400000000000        -9.352996344625539E-019
  -41.3500000000000        -9.441430438031417E-019
  -41.1600000000000        -9.404063496515705E-019
  -40.9700000000000        -9.309246858604990E-019
  -40.7800000000000        -9.279944730242357E-019
  -40.5900000000000        -9.375754695285686E-019
  -40.4000000000000        -9.535847963224653E-019
  -40.2100000000000        -9.637142249652144E-019
  -40.0200000000000        -9.612012323181035E-019
  -39.8300000000000        -9.513073536409465E-019
  -39.6400000000000        -9.463124003253017E-019
  -39.4500000000000        -9.538050700310047E-019
  -39.2600000000000        -9.694608971333683E-019
  -39.0700000000000        -9.812039629214424E-019
  -38.8800000000000        -9.807547960453274E-019
  -38.6900000000000        -9.715075621243536E-019
  -38.5000000000000        -9.651997744621882E-019
  -38.3100000000000        -9.705530759054517E-019
  -38.1200000000000        -9.847423966856838E-019
  -37.9300000000000        -9.958752915721146E-019
  -37.7400000000000        -9.941721299553141E-019
  -37.5500000000000        -9.812222440184240E-019
  -37.3600000000000        -9.685013512078370E-019
  -37.1700000000000        -9.665669177152223E-019
  -36.9800000000000        -9.752286532799995E-019
  -36.7900000000000        -9.840368809640593E-019
  -36.6000000000000        -9.825717917539403E-019
  -36.4100000000000        -9.706707318304117E-019
  -36.2200000000000        -9.587969271685400E-019
  -36.0300000000000        -9.581609488272666E-019
  -35.8400000000000        -9.699988584572323E-019
  -35.6500000000000        -9.842452177940725E-019
  -35.4600000000000        -9.888945311475130E-019
  -35.2700000000000        -9.811556347149214E-019
  -35.0800000000000        -9.698130386962862E-019
  -34.8900000000000        -9.666193840945720E-019
  -34.7000000000000        -9.749961721822543E-019
  -34.5100000000000        -9.868436271628358E-019
  -34.3200000000000        -9.904775966961108E-019
  -34.1300000000000        -9.820612661485513E-019
  -33.9400000000000        -9.695473369831447E-019
  -33.7500000000000        -9.653066843376291E-019
  -33.5600000000000        -9.744572759330530E-019
  -33.3700000000000        -9.900412616942538E-019
  -33.1800000000000        -9.996612267473908E-019
  -32.9900000000000        -9.972420346414239E-019
  -32.8000000000000        -9.886988284559740E-019
  -32.6100000000000        -9.861147447228439E-019
  -32.4200000000000        -9.960005245951501E-019
  -32.2300000000000        -1.012868926426091E-018
  -32.0400000000000        -1.024299526417728E-018
  -31.8500000000000        -1.022692674378355E-018
  -31.6600000000000        -1.012495345208340E-018
  -31.4700000000000        -1.005981875972270E-018
  -31.2800000000000        -1.011592089312486E-018
  -31.0900000000000        -1.025932605756237E-018
  -30.9000000000000        -1.037059179827649E-018
  -30.7100000000000        -1.035912974798294E-018
  -30.5200000000000        -1.025012927657980E-018
  -30.3300000000000        -1.016109092711110E-018
  -30.1400000000000        -1.019017816226638E-018
  -29.9500000000000        -1.032274967232484E-018
  -29.7600000000000        -1.044513900046445E-018
  -29.5700000000000        -1.045242843081059E-018
  -29.3800000000000        -1.034745362641490E-018
  -29.1900000000000        -1.023697790911419E-018
  -29.0000000000000        -1.022922488377784E-018
  -28.8100000000000        -1.033085269708299E-018
  -28.6200000000000        -1.044164118149115E-018
  -28.4300000000000        -1.045164596110426E-018
  -28.2400000000000        -1.034760001385131E-018
  -28.0500000000000        -1.022654762711427E-018
  -27.8600000000000        -1.020357492348454E-018
  -27.6700000000000        -1.030194499524629E-018
  -27.4800000000000        -1.043080500185079E-018
  -27.2900000000000        -1.047193373279632E-018
  -27.1000000000000        -1.039288031555888E-018
  -26.9100000000000        -1.027861104979716E-018
  -26.7200000000000        -1.025140434708980E-018
  -26.5300000000000        -1.035529176995286E-018
  -26.3400000000000        -1.051520552910583E-018
  -26.1500000000000        -1.060960793516300E-018
  -25.9600000000000        -1.058682500027840E-018
  -25.7700000000000        -1.051350805848056E-018
  -25.5800000000000        -1.050866132399153E-018
  -25.3900000000000        -1.062626076079019E-018
  -25.2000000000000        -1.079893799333512E-018
  -25.0100000000000        -1.089732782395331E-018
  -24.8200000000000        -1.084950802234772E-018
  -24.6300000000000        -1.070739326821844E-018
  -24.4400000000000        -1.059708729107401E-018
  -24.2500000000000        -1.060052418315878E-018
  -24.0600000000000        -1.068095104677767E-018
  -23.8700000000000        -1.072259513077847E-018
  -23.6800000000000        -1.064573726554417E-018
  -23.4900000000000        -1.048670478565952E-018
  -23.3000000000000        -1.036617329790274E-018
  -23.1100000000000        -1.037599311664838E-018
  -22.9200000000000        -1.049263331493244E-018
  -22.7300000000000        -1.060002409090483E-018
  -22.5400000000000        -1.060012849475471E-018
  -22.3500000000000        -1.050572660568508E-018
  -22.1600000000000        -1.042691872276697E-018
  -21.9700000000000        -1.046446650808637E-018
  -21.7800000000000        -1.061202943691948E-018
  -21.5900000000000        -1.076073917322422E-018
  -21.4000000000000        -1.080184810012495E-018
  -21.2100000000000        -1.072961491226733E-018
  -21.0200000000000        -1.064628071946467E-018
  -20.8300000000000        -1.066434857956973E-018
  -20.6400000000000        -1.079946257144255E-018
  -20.4500000000000        -1.095617585588233E-018
  -20.2600000000000        -1.102000652403442E-018
  -20.0700000000000        -1.096745881322575E-018
  -19.8800000000000        -1.088850083111928E-018
  -19.6900000000000        -1.089968562606504E-018
  -19.5000000000000        -1.103070303673301E-018
  -19.3100000000000        -1.119289770072905E-018
  -19.1200000000000        -1.126049929355345E-018
  -18.9300000000000        -1.118789005019534E-018
  -18.7400000000000        -1.105164841364657E-018
  -18.5500000000000        -1.097761785552582E-018
  -18.3600000000000        -1.102265623353148E-018
  -18.1700000000000        -1.112349370996742E-018
  -17.9800000000000        -1.116065902853065E-018
  -17.7900000000000        -1.107561479296494E-018
  -17.6000000000000        -1.092881652196991E-018
  -17.4100000000000        -1.084316504800729E-018
  -17.2200000000000        -1.088700234551867E-018
  -17.0300000000000        -1.100875988691098E-018
  -16.8400000000000        -1.108612127506103E-018
  -16.6500000000000        -1.104303473746239E-018
  -16.4600000000000        -1.092290538250079E-018
  -16.2700000000000        -1.084802686643692E-018
  -16.0800000000000        -1.090377871184507E-018
  -15.8900000000000        -1.105773596642891E-018
  -15.7000000000000        -1.119048739590548E-018
  -15.5100000000000        -1.120852224406119E-018
  -15.3200000000000        -1.113139952074984E-018
  -15.1300000000000        -1.107014145534521E-018
  -14.9400000000000        -1.111796240854498E-018
  -14.7500000000000        -1.125845706622415E-018
  -14.5600000000000        -1.137966058464553E-018
  -14.3700000000000        -1.138092262091531E-018
  -14.1800000000000        -1.127047897270394E-018
  -13.9900000000000        -1.116008633326677E-018
  -13.8000000000000        -1.116103053994983E-018
  -13.6100000000000        -1.127994640637259E-018
  -13.4200000000000        -1.141343875196225E-018
  -13.2300000000000        -1.144663732313085E-018
  -13.0400000000000        -1.136188169190583E-018
  -12.8500000000000        -1.125423777031153E-018
  -12.6600000000000        -1.123957416227499E-018
  -12.4700000000000        -1.134328487585517E-018
  -12.2800000000000        -1.147579199488183E-018
  -12.0900000000000        -1.151787872110821E-018
  -11.9000000000000        -1.143414049765165E-018
  -11.7100000000000        -1.130615807488948E-018
  -11.5200000000000        -1.125376057327802E-018
  -11.3300000000000        -1.131978195934590E-018
  -11.1400000000000        -1.142873576508456E-018
  -10.9500000000000        -1.145920503217070E-018
  -10.7600000000000        -1.136100121754000E-018
  -10.5700000000000        -1.120529204650561E-018
  -10.3800000000000        -1.111972843529625E-018
  -10.1900000000000        -1.117006254477187E-018
  -10.0000000000000        -1.130057761915580E-018
  -9.81000000000000        -1.138951991326123E-018
  -9.62000000000000        -1.136607493722057E-018
  -9.42999999999999        -1.127686967919225E-018
  -9.23999999999999        -1.123860921557389E-018
  -9.05000000000000        -1.132279228627644E-018
  -8.86000000000000        -1.148366963475067E-018
  -8.67000000000000        -1.159921873578636E-018
  -8.48000000000000        -1.158662384129504E-018
  -8.28999999999999        -1.148211208450397E-018
  -8.09999999999999        -1.140842949229876E-018
  -7.91000000000000        -1.146007444192343E-018
  -7.72000000000000        -1.161493604228061E-018
  -7.53000000000000        -1.175611860868321E-018
  -7.34000000000000        -1.178291327687362E-018
  -7.15000000000001        -1.170515779090403E-018
  -6.95999999999999        -1.163150220360856E-018
  -6.77000000000000        -1.166355195912025E-018
  -6.58000000000000        -1.179747241605551E-018
  -6.39000000000000        -1.192715283868023E-018
  -6.20000000000000        -1.194585511710822E-018
  -6.01000000000001        -1.184906382702830E-018
  -5.81999999999999        -1.173988507288299E-018
  -5.63000000000000        -1.173134826629673E-018
  -5.44000000000000        -1.183862298803807E-018
  -5.25000000000000        -1.196404789052165E-018
  -5.06000000000000        -1.198945441816983E-018
  -4.87000000000000        -1.188806142033974E-018
  -4.67999999999999        -1.174966125168533E-018
  -4.48999999999999        -1.169539692501597E-018
  -4.30000000000000        -1.176344516341251E-018
  -4.11000000000000        -1.187441680691173E-018
  -3.92000000000000        -1.190900324997710E-018
  -3.73000000000000        -1.182308382883956E-018
  -3.53999999999999        -1.168984521629025E-018
  -3.34999999999999        -1.162863823835850E-018
  -3.16000000000000        -1.168897546190743E-018
  -2.97000000000000        -1.180114356776741E-018
  -2.78000000000000        -1.184130630507160E-018
  -2.59000000000000        -1.174953496338615E-018
  -2.40000000000001        -1.158830867075318E-018
  -2.20999999999999        -1.148534108820330E-018
  -2.02000000000000        -1.151468335474973E-018
  -1.83000000000000        -1.162892383211590E-018
  -1.64000000000000        -1.170658073394314E-018
  -1.45000000000000        -1.166899975499849E-018
  -1.26000000000001        -1.155515847311681E-018
  -1.06999999999999        -1.148343261727314E-018
 -0.879999999999995        -1.153742374249870E-018
 -0.689999999999998        -1.168529218383101E-018
 -0.500000000000000        -1.180986876797702E-018
 -0.310000000000002        -1.182080545133124E-018
 -0.120000000000005        -1.174130965230481E-018
  7.000000000000739E-002   -1.168601902670313E-018
  0.260000000000005        -1.175062804082662E-018
  0.450000000000003        -1.191845498429970E-018
  0.640000000000001        -1.207328231544198E-018
  0.829999999999998        -1.210670006554449E-018
   1.02000000000000        -1.201828709757960E-018
   1.21000000000001        -1.191381416846399E-018
   1.40000000000001        -1.190368590820983E-018
   1.59000000000000        -1.199870226145875E-018
   1.78000000000000        -1.210242122123342E-018
   1.97000000000000        -1.210673595628778E-018
   2.16000000000000        -1.199841251566031E-018
   2.34999999999999        -1.187398685895433E-018
   2.54000000000001        -1.184836728216051E-018
   2.73000000000000        -1.194442240346569E-018
   2.92000000000000        -1.206938230981632E-018
   3.11000000000000        -1.210137249609926E-018
   3.30000000000000        -1.200436826515331E-018
   3.48999999999999        -1.186240631552951E-018
   3.68000000000001        -1.180048123998638E-018
   3.87000000000000        -1.186733856274044E-018
   4.06000000000000        -1.199143012704801E-018
   4.25000000000000        -1.205125767983249E-018
   4.44000000000000        -1.199231366811622E-018
   4.63000000000000        -1.187885465966802E-018
   4.82000000000001        -1.183138343568938E-018
   5.01000000000001        -1.191000233614474E-018
   5.20000000000000        -1.205554962914290E-018
   5.39000000000000        -1.214520573115675E-018
   5.58000000000000        -1.210962533026366E-018
   5.77000000000000        -1.199947736350355E-018
   5.96000000000001        -1.193739638646794E-018
   6.15000000000001        -1.200079300797486E-018
   6.34000000000000        -1.214705990702934E-018
   6.53000000000000        -1.225243793458113E-018