  -105.000000000000         0.000000000000000E+000
  -104.810000000000         1.843502554503697E-020
  -104.620000000000         5.083333752839032E-020
  -104.430000000000         8.975457450310488E-020
  -104.240000000000         1.268746383941092E-019
  -104.050000000000         1.553030473063025E-019
  -103.860000000000         1.714653286443354E-019
  -103.670000000000         1.760095561173015E-019
  -103.480000000000         1.734799105957774E-019
  -103.290000000000         1.708586705413082E-019
  -103.100000000000         1.754066142746552E-019
  -102.910000000000         1.924344653914442E-019
  -102.720000000000         2.236560168428175E-019
  -102.530000000000         2.666026125769143E-019
  -102.340000000000         3.152693565090633E-019
  -102.150000000000         3.618057047508366E-019
  -101.960000000000         3.987600486881884E-019
  -101.770000000000         4.212265725805238E-019
  -101.580000000000         4.282697008379894E-019
  -101.390000000000         4.232096627787427E-019
  -101.200000000000         4.126826021019681E-019
  -101.010000000000         4.047448483228455E-019
  -100.820000000000         4.065694493734564E-019
  -100.630000000000         4.224019410664440E-019
  -100.440000000000         4.523666051413470E-019
  -100.250000000000         4.924667067636533E-019
  -100.060000000000         5.357754048612704E-019
  -99.8700000000000         5.744694134871242E-019
  -99.6800000000000         6.021146325075811E-019
  -99.4900000000000         6.155412911981363E-019
  -99.3000000000000         6.157656750509542E-019
  -99.1100000000000         6.076916786530407E-019
  -98.9200000000000         5.986790002608997E-019
  -98.7300000000000         5.963939424513050E-019
  -98.5400000000000         6.065678728046363E-019
  -98.3500000000000         6.313158847265044E-019
  -98.1600000000000         6.685053827813455E-019
  -97.9700000000000         7.123585514699467E-019
  -97.7800000000000         7.551134747888075E-019
  -97.5900000000000         7.892610588088397E-019
  -97.4000000000000         8.097082410687331E-019
  -97.2100000000000         8.152400103842933E-019
  -97.0200000000000         8.088564262107583E-019
  -96.8300000000000         7.968869612273074E-019
  -96.6400000000000         7.871390597505688E-019
  -96.4500000000000         7.866184730633907E-019
  -96.2600000000000         7.994841150705274E-019
  -96.0700000000000         8.258328131784056E-019
  -95.8800000000000         8.616682938348332E-019
  -95.6900000000000         9.000639886178540E-019
  -95.5000000000000         9.331815273928039E-019
  -95.3100000000000         9.545578325811384E-019
  -95.1200000000000         9.609959737313287E-019
  -94.9300000000000         9.535103175363163E-019
  -94.7400000000000         9.370507732418169E-019
  -94.5500000000000         9.190844549891335E-019
  -94.3600000000000         9.074440261872939E-019
  -94.1700000000000         9.080651309910501E-019
  -93.9800000000000         9.232688914776493E-019
  -93.7900000000000         9.510889419604100E-019
  -93.6000000000000         9.858402640478559E-019
  -93.4100000000000         1.019766452730556E-018
  -93.2200000000000         1.045288235127367E-018
  -93.0300000000000         1.057201202307313E-018
  -92.8400000000000         1.054185997186257E-018
  -92.6500000000000         1.039194570985575E-018
  -92.4600000000000         1.018602346845650E-018
  -92.2700000000000         1.000373025391258E-018
  -92.0800000000000         9.917672880356475E-019
  -91.8900000000000         9.972573865072254E-019
  -91.7000000000000         1.017249478862841E-018
  -91.5100000000000         1.047981921870886E-018
  -91.3200000000000         1.082627440031128E-018
  -91.1300000000000         1.113278095005831E-018
  -90.9400000000000         1.133235594716133E-018
  -90.7500000000000         1.138940848055342E-018
  -90.5600000000000         1.130982122171688E-018
  -90.3700000000000         1.113889977206618E-018
  -90.1800000000000         1.094780591541707E-018
  -89.9900000000000         1.081243865854267E-018
  -89.8000000000000         1.079091608138999E-018
  -89.6100000000000         1.090621326851937E-018
  -89.4200000000000         1.113901795830587E-018
  -89.2300000000000         1.143290977059198E-018
  -89.0400000000000         1.171040102001490E-018
  -88.8500000000000         1.189522469347402E-018
  -88.6600000000000         1.193443232174907E-018
  -88.4700000000000         1.181390645369355E-018
  -88.2800000000000         1.156279381604590E-018
  -88.0900000000000         1.124557525259137E-018
  -87.9000000000000         1.094407009760607E-018
  -87.7100000000000         1.073457997631092E-018
  -87.5200000000000         1.066676664648080E-018
  -87.3300000000000         1.075033526147684E-018
  -87.1400000000000         1.095331906454464E-018
  -86.9500000000000         1.121239590987091E-018
  -86.7600000000000         1.145218174812255E-018
  -86.5700000000000         1.160784578011479E-018
  -86.3800000000000         1.164443006453261E-018
  -86.1900000000000         1.156721831617613E-018
  -86.0000000000000         1.142011314487727E-018
  -85.8100000000000         1.127249049527578E-018
  -85.6200000000000         1.119837701852236E-018
  -85.4300000000000         1.125404743029378E-018
  -85.2400000000000         1.146060500300654E-018
  -85.0500000000000         1.179665917555156E-018
  -84.8600000000000         1.220328119998714E-018
  -84.6700000000000         1.259985936985217E-018
  -84.4800000000000         1.290631942978271E-018
  -84.2900000000000         1.306532954808216E-018
  -84.1000000000000         1.305810160932607E-018
  -83.9100000000000         1.290923676353308E-018
  -83.7200000000000         1.267922124426782E-018
  -83.5300000000000         1.244675084922696E-018
  -83.3400000000000         1.228601150606188E-018
  -83.1500000000000         1.224550473790734E-018
  -82.9600000000000         1.233454937431298E-018
  -82.7700000000000         1.252134783696131E-018
  -82.5800000000000         1.274313495404384E-018
  -82.3900000000000         1.292541491660175E-018
  -82.2000000000000         1.300465744004868E-018
  -82.0100000000000         1.294782497931763E-018
  -81.8200000000000         1.276302165517566E-018
  -81.6300000000000         1.249812500283658E-018
  -81.4400000000000         1.222774535413936E-018
  -81.2500000000000         1.203225082575157E-018
  -81.0600000000000         1.197491409705541E-018
  -80.8700000000000         1.208380122200754E-018
  -80.6800000000000         1.234366120273427E-018
  -80.4900000000000         1.270018028114652E-018
  -80.3000000000000         1.307538114869772E-018
  -80.1100000000000         1.338972084456291E-018
  -79.9200000000000         1.358450898826168E-018
  -79.7300000000000         1.363818423967055E-018
  -79.5400000000000         1.357176885554218E-018
  -79.3500000000000         1.344195226099948E-018
  -79.1600000000000         1.332383404978787E-018
  -78.9700000000000         1.328835455788404E-018
  -78.7800000000000         1.338098884058391E-018
  -78.5900000000000         1.360792120545952E-018
  -78.4000000000000         1.393374630715078E-018
  -78.2100000000000         1.429138568921774E-018
  -78.0200000000000         1.460134695067259E-018
  -77.8300000000000         1.479473122643039E-018
  -77.6400000000000         1.483330758978099E-018
  -77.4500000000000         1.472082961608036E-018
  -77.2600000000000         1.450231038340764E-018
  -77.0700000000000         1.425145424995674E-018
  -76.8800000000000         1.404986018457822E-018
  -76.6900000000000         1.396398172292960E-018
  -76.5000000000000         1.402647406303937E-018
  -76.3100000000000         1.422729191367520E-018
  -76.1200000000000         1.451708228588529E-018
  -75.9300000000000         1.482185633712973E-018
  -75.7400000000000         1.506465822712229E-018
  -75.5500000000000         1.518793100223310E-018
  -75.3600000000000         1.517009911201894E-018
  -75.1700000000000         1.503159245800114E-018
  -74.9800000000000         1.482862218959260E-018
  -74.7900000000000         1.463657829538349E-018
  -74.6000000000000         1.452791916012750E-018
  -74.4100000000000         1.455100198975540E-018
  -74.2200000000000         1.471601296876192E-018
  -74.0300000000000         1.499208476340857E-018
  -73.8400000000000         1.531643313073383E-018
  -73.6500000000000         1.561284364420237E-018
  -73.4600000000000         1.581411035144185E-018
  -73.2700000000000         1.588186889998170E-018
  -73.0800000000000         1.581802051464625E-018
  -72.8900000000000         1.566439210937025E-018
  -72.7000000000000         1.549070417741019E-018
  -72.5100000000000         1.537431943949722E-018
  -72.3200000000000         1.537763328823200E-018
  -72.1300000000000         1.552965529789349E-018
  -71.9400000000000         1.581712636451317E-018
  -71.7500000000000         1.618776768161011E-018
  -71.5600000000000         1.656475591295529E-018
  -71.3700000000000         1.686827122871523E-018
  -71.1800000000000         1.703791114898559E-018
  -70.9900000000000         1.704950552384059E-018
  -70.8000000000000         1.692149093353472E-018
  -70.6100000000000         1.670903881267377E-018
  -70.4200000000000         1.648769277333636E-018
  -70.2300000000000         1.633131278055185E-018
  -70.0400000000000         1.629075968968794E-018
  -69.8500000000000         1.637951376683334E-018
  -69.6600000000000         1.657038504063294E-018
  -69.4700000000000         1.680423933776387E-018
  -69.2800000000000         1.700816830886884E-018
  -69.0900000000000         1.711778103137362E-018
  -68.9000000000000         1.709708223825712E-018
  -68.7100000000000         1.695008493801939E-018
  -68.5200000000000         1.672069660968144E-018
  -68.3300000000000         1.648083155533777E-018
  -68.1400000000000         1.631014342607406E-018
  -67.9500000000000         1.627323190276325E-018
  -67.7600000000000         1.640093237981377E-018
  -67.5700000000000         1.668112629903802E-018
  -67.3800000000000         1.706175850491317E-018
  -67.1900000000000         1.746522190244395E-018
  -67.0000000000000         1.780999115768651E-018
  -66.8100000000000         1.803329857963941E-018
  -66.6200000000000         1.810834419264251E-018
  -66.4300000000000         1.805110564614507E-018
  -66.2400000000000         1.791481336717648E-018
  -66.0500000000000         1.777372108249625E-018
  -65.8600000000000         1.770090113223047E-018
  -65.6700000000000         1.774652527423722E-018
  -65.4800000000000         1.792294622057106E-018
  -65.2900000000000         1.820091291630322E-018
  -65.1000000000000         1.851801323613295E-018
  -64.9100000000000         1.879688686268077E-018
  -64.7200000000000         1.896791837085480E-018
  -64.5300000000000         1.898982113079275E-018
  -64.3400000000000         1.886212744089660E-018
  -64.1500000000000         1.862593444546915E-018
  -63.9600000000000         1.835264918402580E-018
  -63.7700000000000         1.812395361929246E-018
  -63.5800000000000         1.800876491639108E-018
  -63.3900000000000         1.804384920240131E-018
  -63.2000000000000         1.822369205300564E-018
  -63.0100000000000         1.850253899178636E-018
  -62.8200000000000         1.880798188145646E-018
  -62.6300000000000         1.906211877835249E-018
  -62.4400000000000         1.920413114935150E-018
  -62.2500000000000         1.920773161831781E-018
  -62.0600000000000         1.908844083575548E-018
  -61.8700000000000         1.889861027208562E-018
  -61.6800000000000         1.871166318925879E-018
  -61.4900000000000         1.860015621989323E-018
  -61.3000000000000         1.861406592473528E-018
  -61.1100000000000         1.876565062903719E-018
  -60.9200000000000         1.902533295871657E-018
  -60.7300000000000         1.932983988860612E-018
  -60.5400000000000         1.960026056342363E-018
  -60.3500000000000         1.976478716196135E-018
  -60.1600000000000         1.977954026960163E-018
  -59.9700000000000         1.964144282306496E-018
  -59.7800000000000         1.938942170749824E-018
  -59.5900000000000         1.909359992938327E-018
  -59.4000000000000         1.883561036916036E-018
  -59.2100000000000         1.868571580768155E-018
  -59.0200000000000         1.868332845389231E-018
  -58.8300000000000         1.882652661331756E-018
  -58.6400000000000         1.907355280172078E-018
  -58.4500000000000         1.935579961150189E-018
  -58.2600000000000         1.959845449061335E-018
  -58.0700000000000         1.974275444111625E-018
  -57.8800000000000         1.976334674462881E-018
  -57.6900000000000         1.967569441586031E-018
  -57.5000000000000         1.953137940668326E-018
  -57.3100000000000         1.940268895007561E-018
  -57.1200000000000         1.936099391038955E-018
  -56.9300000000000         1.945524032044673E-018
  -56.7400000000000         1.969685479148462E-018
  -56.5500000000000         2.005551595065869E-018
  -56.3600000000000         2.046709661854463E-018
  -56.1700000000000         2.085154058070873E-018
  -55.9800000000000         2.113553067589705E-018
  -55.7900000000000         2.127338462202906E-018
  -55.6000000000000         2.126010583380796E-018
  -55.4100000000000         2.113278095866584E-018
  -55.2200000000000         2.095989216195175E-018
  -55.0300000000000         2.082161270578161E-018
  -54.8400000000000         2.078676049831061E-018
  -54.6500000000000         2.089304513882074E-018
  -54.4600000000000         2.113628982120984E-018
  -54.2700000000000         2.147172110222600E-018
  -54.0800000000000         2.182694139117256E-018
  -53.8900000000000         2.212282757019487E-018
  -53.7000000000000         2.229630485214257E-018
  -53.5100000000000         2.231839697886798E-018
  -53.3200000000000         2.220232163716618E-018
  -53.1300000000000         2.199929436811535E-018
  -52.9400000000000         2.178328384332822E-018
  -52.7500000000000         2.162917816718317E-018
  -52.5600000000000         2.159073381470728E-018
  -52.3700000000000         2.168473171333556E-018
  -52.1800000000000         2.188595315723898E-018
  -51.9900000000000         2.213444678925041E-018
  -51.8000000000000         2.235299818233392E-018
  -51.6100000000000         2.246975922568437E-018
  -51.4200000000000         2.243949296966611E-018
  -51.2300000000000         2.225727416384678E-018
  -51.0400000000000         2.196065137215082E-018
  -50.8500000000000         2.161960475529437E-018
  -50.6600000000000         2.131716408246690E-018
  -50.4700000000000         2.112625771063498E-018
  -50.2800000000000         2.108945490129605E-018
  -50.0900000000000         2.120742341108461E-018
  -49.9000000000000         2.143940024322042E-018
  -49.7100000000000         2.171550230873443E-018
  -49.5200000000000         2.195729068443882E-018
  -49.3300000000000         2.210062944800541E-018
  -49.1400000000000         2.211422768785328E-018
  -48.9500000000000         2.200850812639552E-018
  -48.7600000000000         2.183224942979536E-018
  -48.5700000000000         2.165799656004224E-018
  -48.3800000000000         2.156049779964402E-018
  -48.1900000000000         2.159445549142216E-018
  -48.0000000000000         2.177807392577830E-018
  -47.8100000000000         2.208719424024756E-018
  -47.6200000000000         2.246172175884421E-018
  -47.4300000000000         2.282248107547346E-018
  -47.2400000000000         2.309361825222892E-018
  -47.0500000000000         2.322407646910431E-018
  -46.8600000000000         2.320195146369695E-018
  -46.6700000000000         2.305759731637655E-018
  -46.4800000000000         2.285460572884868E-018
  -46.2900000000000         2.267128862787383E-018
  -46.1000000000000         2.257804297775974E-018
  -45.9100000000000         2.261716719963772E-018
  -45.7200000000000         2.279097700905211E-018
  -45.5300000000000         2.306164010279369E-018
  -45.3400000000000         2.336272420913309E-018
  -45.1500000000000         2.361903793296995E-018
  -44.9600000000000         2.376893944206933E-018
  -44.7700000000000         2.378259097414892E-018
  -44.5800000000000         2.367083863034286E-018
  -44.3900000000000         2.348213674376497E-018
  -44.2000000000000         2.328841580446214E-018
  -44.0100000000000         2.316400787241531E-018
  -43.8200000000000         2.316376748788367E-018
  -43.6300000000000         2.330677288677915E-018
  -43.4400000000000         2.357038365103058E-018
  -43.2500000000000         2.389642537853561E-018
  -43.0600000000000         2.420774028572544E-018
  -42.8700000000000         2.443031745205033E-018
  -42.6800000000000         2.451458587579059E-018
  -42.4900000000000         2.444969479618652E-018
  -42.3000000000000         2.426664423092346E-018
  -42.1100000000000         2.402936527269148E-018
  -41.9200000000000         2.381634183172975E-018
  -41.7300000000000         2.369810285058311E-018
  -41.5400000000000         2.371710729069390E-018
  -41.3500000000000         2.387584798043637E-018
  -41.1600000000000         2.413661177746782E-018
  -40.9700000000000         2.443294021846957E-018
  -40.7800000000000         2.468942289590421E-018
  -40.5900000000000         2.484402413872620E-018
  -40.4000000000000         2.486640742257682E-018
  -40.2100000000000         2.476689735341703E-018
  -40.0200000000000         2.459345824977593E-018
  -39.8300000000000         2.441756610722176E-018
  -39.6400000000000         2.431308658047547E-018
  -39.4500000000000         2.433430983796468E-018
  -39.2600000000000         2.449954969188714E-018
  -39.0700000000000         2.478511730032140E-018
  -38.8800000000000         2.513148551890573E-018
  -38.6900000000000         2.545992640040641E-018
  -38.5000000000000         2.569485142399062E-018
  -38.3100000000000         2.578540348396694E-018
  -38.1200000000000         2.572004202960816E-018
  -37.9300000000000         2.552988205516342E-018
  -37.7400000000000         2.527980727938501E-018
  -37.5500000000000         2.504992276756784E-018
  -37.3600000000000         2.491270591176876E-018
  -37.1700000000000         2.491244820970070E-018
  -36.9800000000000         2.505290574433503E-018
  -36.7900000000000         2.529669801179827E-018
  -36.6000000000000         2.557660163090420E-018
  -36.4100000000000         2.581545148385866E-018
  -36.2200000000000         2.594887223501231E-018
  -36.0300000000000         2.594423770306747E-018
  -35.8400000000000         2.581034122257903E-018
  -35.6500000000000         2.559495242049488E-018
  -35.4600000000000         2.537095800401209E-018
  -35.2700000000000         2.521510972078066E-018
  -35.0800000000000         2.518555851238852E-018
  -34.8900000000000         2.530471038005539E-018
  -34.7000000000000         2.555239598008732E-018
  -34.5100000000000         2.587135604290131E-018
  -34.3200000000000         2.618347801696996E-018
  -34.1300000000000         2.641210669945947E-018
  -33.9400000000000         2.650398988861845E-018
  -33.7500000000000         2.644451844701916E-018
  -33.5600000000000         2.626185452116681E-018
  -33.3700000000000         2.601875708494435E-018
  -33.1800000000000         2.579447908313807E-018
  -32.9900000000000         2.566198612134337E-018
  -32.8000000000000         2.566709293555458E-018
  -32.6100000000000         2.581554084082836E-018
  -32.4200000000000         2.607172164052848E-018
  -32.2300000000000         2.636937314796026E-018
  -32.0400000000000         2.663111132636266E-018
  -31.8500000000000         2.679111970749564E-018
  -31.6600000000000         2.681441418468912E-018
  -31.4700000000000         2.670709627510109E-018
  -31.2800000000000         2.651461651433399E-018
  -31.0900000000000         2.630854541169833E-018
  -30.9000000000000         2.616569012421413E-018
  -30.7100000000000         2.614562760293914E-018
  -30.5200000000000         2.627319163312297E-018
  -30.3300000000000         2.653101011582745E-018
  -30.1400000000000         2.686426191023355E-018
  -29.9500000000000         2.719626959989459E-018
  -29.7600000000000         2.745040471581022E-018
  -29.5700000000000         2.757196429418960E-018
  -29.3800000000000         2.754369888380363E-018
  -29.1900000000000         2.739051598056342E-018
  -29.0000000000000         2.717201368375925E-018
  -28.8100000000000         2.696501779909898E-018
  -28.6200000000000         2.684119105119840E-018
  -28.4300000000000         2.684621750693829E-018
  -28.2400000000000         2.698661493745043E-018
  -28.0500000000000         2.722801330764173E-018
  -27.8600000000000         2.750539817004815E-018
  -27.6700000000000         2.774232874106528E-018
  -27.4800000000000         2.787352436936402E-018
  -27.2900000000000         2.786423420208739E-018
  -27.1000000000000         2.772074379395740E-018
  -26.9100000000000         2.748894961897037E-018
  -26.7200000000000         2.724139678479160E-018
  -26.5300000000000         2.705652441645800E-018
  -26.3400000000000         2.699613005929748E-018
  -26.1500000000000         2.708759159044964E-018
  -25.9600000000000         2.731601401516302E-018
  -25.7700000000000         2.762859034013035E-018
  -25.5800000000000         2.794991445937689E-018
  -25.3900000000000         2.820379648515288E-018
  -25.2000000000000         2.833524075493292E-018
  -25.0100000000000         2.832620538304111E-018
  -24.8200000000000         2.820057660339579E-018
  -24.6300000000000         2.801692683675353E-018
  -24.4400000000000         2.785116953377189E-018
  -24.2500000000000         2.777415274874450E-018
  -24.0600000000000         2.783070491171804E-018
  -23.8700000000000         2.802623588177500E-018
  -23.6800000000000         2.832481643577214E-018
  -23.4900000000000         2.865933131774266E-018
  -23.3000000000000         2.895078509980850E-018
  -23.1100000000000         2.913116243663592E-018
  -22.9200000000000         2.916319428220618E-018
  -22.7300000000000         2.905127256088980E-018
  -22.5400000000000         2.884032736111358E-018
  -22.3500000000000         2.860297749940804E-018
  -22.1600000000000         2.841866509389615E-018
  -21.9700000000000         2.835080273316626E-018
  -21.7800000000000         2.842853500668020E-018
  -21.5900000000000         2.863838657868816E-018
  -21.4000000000000         2.892822061146427E-018
  -21.2100000000000         2.922237939121240E-018
  -21.0200000000000         2.944364289113664E-018
  -20.8300000000000         2.953565748569497E-018
  -20.6400000000000         2.947933904983870E-018
  -20.4500000000000         2.929849497965261E-018
  -20.2600000000000         2.905303699888180E-018
  -20.0700000000000         2.882175856249005E-018
  -19.8800000000000         2.867967417123040E-018
  -19.6900000000000         2.867648360122760E-018
  -19.5000000000000         2.882238425945087E-018
  -19.3100000000000         2.908531743966488E-018
  -19.1200000000000         2.940042276623552E-018
  -18.9300000000000         2.968894540956686E-018
  -18.7400000000000         2.988110831824803E-018
  -18.5500000000000         2.993631469273061E-018
  -18.3600000000000         2.985481945524560E-018
  -18.1700000000000         2.967748443570994E-018
  -17.9800000000000         2.947369493269747E-018
  -17.7900000000000         2.932095648674341E-018
  -17.6000000000000         2.928210534188965E-018
  -17.4100000000000         2.938675241800187E-018
  -17.2200000000000         2.962234550492588E-018
  -17.0300000000000         2.993744385768356E-018
  -16.8400000000000         3.025626540194173E-018
  -16.6500000000000         3.050030919713793E-018
  -16.4600000000000         3.061081059028038E-018
  -16.2700000000000         3.056554201180148E-018
  -16.0800000000000         3.038510345791460E-018
  -15.8900000000000         3.012688891338678E-018
  -15.7000000000000         2.986848982672167E-018
  -15.5100000000000         2.968536195636966E-018
  -15.3200000000000         2.962923897549985E-018
  -15.1300000000000         2.971354075390047E-018
  -14.9400000000000         2.990997124854799E-018
  -14.7500000000000         3.015723908571611E-018
  -14.5600000000000         3.037931902074336E-018
  -14.3700000000000         3.050792219740777E-018
  -14.1800000000000         3.050264331175885E-018
  -13.9900000000000         3.036293988751744E-018
  -13.8000000000000         3.012847177431837E-018
  -13.6100000000000         2.986770655657921E-018
  -13.4200000000000         2.965810644952645E-018
  -13.2300000000000         2.956366529952626E-018
  -13.0400000000000         2.961634118615140E-018
  -12.8500000000000         2.980679677386276E-018
  -12.6600000000000         3.008714360913353E-018
  -12.4700000000000         3.038488497132085E-018
  -12.2800000000000         3.062399272334875E-018
  -12.0900000000000         3.074698719719603E-018
  -11.9000000000000         3.073160909805192E-018
  -11.7100000000000         3.059725005408950E-018
  -11.5200000000000         3.039928097136262E-018
  -11.3300000000000         3.021292515695310E-018
  -11.1400000000000         3.011135527253577E-018
  -10.9500000000000         3.014437345194677E-018
  -10.7600000000000         3.032387107633942E-018
  -10.5700000000000         3.062029826493036E-018
  -10.3800000000000         3.097117033112580E-018
  -10.1900000000000         3.129913362437162E-018
  -10.0000000000000         3.153433168376258E-018
  -9.81000000000000         3.163456552131922E-018
  -9.62000000000000         3.159738826389715E-018
  -9.42999999999999         3.146062127056055E-018
  -9.23999999999999         3.129114246235967E-018
  -9.05000000000000         3.116520445362037E-018
  -8.86000000000000         3.114600643573288E-018
  -8.67000000000000         3.126505427120182E-018
  -8.48000000000000         3.151275504560321E-018
  -8.28999999999999         3.184101116342782E-018
  -8.09999999999999         3.217708034445954E-018
  -7.91000000000000         3.244467488513114E-018
  -7.72000000000000         3.258615445860651E-018
  -7.53000000000000         3.257934429777522E-018
  -7.34000000000000         3.244407615103380E-018
  -7.15000000000001         3.223653863146941E-018
  -6.95999999999999         3.203306049223115E-018
  -6.77000000000000         3.190801004826168E-018
  -6.58000000000000         3.191219874776773E-018
  -6.39000000000000         3.205804026019624E-018
  -6.20000000000000         3.231577556630977E-018
  -6.01000000000001         3.262188161833755E-018
  -5.81999999999999         3.289725265595082E-018
  -5.63000000000000         3.306990190095658E-018
  -5.44000000000000         3.309560989982209E-018
  -5.25000000000000         3.297053824645967E-018
  -5.06000000000000         3.273216479681492E-018
  -4.87000000000000         3.244829290645227E-018
  -4.67999999999999         3.219734705485376E-018
  -4.48999999999999         3.204568445506931E-018
  -4.30000000000000         3.202850400204248E-018
  -4.11000000000000         3.213988276325707E-018
  -3.92000000000000         3.233482501150116E-018
  -3.73000000000000         3.254273229836355E-018
  -3.53999999999999         3.268839427391275E-018
  -3.34999999999999         3.271441229440567E-018
  -3.16000000000000         3.259853848298018E-018
  -2.97000000000000         3.236087498270760E-018
  -2.78000000000000         3.205881327953837E-018
  -2.59000000000000         3.177114861243328E-018
  -2.40000000000001         3.157594344243457E-018
  -2.20999999999999         3.152852420614693E-018
  -2.02000000000000         3.164595483451648E-018
  -1.83000000000000         3.190245541495006E-018
  -1.64000000000000         3.223707067881201E-018
  -1.45000000000000         3.257135384395608E-018
  -1.26000000000001         3.283193533712799E-018
  -1.06999999999999         3.297143008355483E-018
 -0.879999999999995         3.298161830291109E-018
 -0.689999999999998         3.289508289554504E-018
 -0.500000000000000         3.277485224014658E-018
 -0.310000000000002         3.269509752155515E-018
 -0.120000000000005         3.271854236464112E-018
  7.000000000000739E-002    3.287719619083095E-018
  0.260000000000005         3.316204767676446E-018
  0.450000000000003         3.352474435986836E-018
  0.640000000000001         3.389080444982813E-018
  0.829999999999998         3.418056470961477E-018
   1.02000000000000         3.433182354957081E-018
   1.21000000000001         3.431763552112152E-018
   1.40000000000001         3.415410079891380E-018
   1.59000000000000         3.389587778445364E-018
   1.78000000000000         3.362069982370706E-018
   1.97000000000000         3.340736766246377E-018
   2.16000000000000         3.331358342791689E-018
   2.34999999999999         3.336002994481190E-018
   2.54000000000001         3.352526895123595E-018
   2.73000000000000         3.375287475140259E-018
   2.92000000000000         3.396866451462330E-018
   3.11000000000000         3.410296784089161E-018
   3.30000000000000         3.411143602481407E-018
   3.48999999999999         3.398833329174303E-018
   3.68000000000001         3.376844381692717E-018
   3.87000000000000         3.351703650558920E-018
   4.06000000000000         3.331080301479540E-018
   4.25000000000000         3.321532047058945E-018
   4.44000000000000         3.326561906933318E-018
   4.63000000000000         3.345554768262851E-018
   4.82000000000001         3.373907969788551E-018
   5.01000000000001         3.404322948979652E-018
   5.20000000000000         3.428887062557392E-018
   5.39000000000000         3.441344452250900E-018
   5.58000000000000         3.438899017386854E-018
   5.77000000000000         3.423027005851884E-018
   5.96000000000001         3.399062292103254E-018
   6.15000000000001         3.374671738166625E-018
   6.34000000000000         3.357659178657865E-018
   6.53000000000000         3.353731655024532E-018