  -105.000000000000         4.614643351668852E-019
  -104.810000000000         3.495280602554032E-019
  -104.620000000000         1.632814283501188E-019
  -104.430000000000        -4.508684141718460E-020
  -104.240000000000        -2.175689285167650E-019
  -104.050000000000        -3.070448933145639E-019
  -103.860000000000        -2.908223605024723E-019
  -103.670000000000        -1.770727311791766E-019
  -103.480000000000        -2.292801960801807E-021
  -103.290000000000         1.794585218130486E-019
  -103.100000000000         3.123962093267553E-019
  -102.910000000000         3.552957697849777E-019
  -102.720000000000         2.935005456239553E-019
  -102.530000000000         1.431863931523385E-019
  -102.340000000000        -5.332791104960889E-020
  -102.150000000000        -2.398561237390177E-019
  -101.960000000000        -3.626582102877704E-019
  -101.770000000000        -3.860774235257928E-019
  -101.580000000000        -3.029655189716949E-019
  -101.390000000000        -1.368499143734976E-019
  -101.200000000000         6.481546832791687E-020
  -101.010000000000         2.443703788467566E-019
  -100.820000000000         3.506439520510937E-019
  -100.630000000000         3.537547704465315E-019
  -100.440000000000         2.537090605398500E-019
  -100.250000000000         8.031783943675457E-020
  -100.060000000000        -1.155125571538510E-019
  -99.8700000000000        -2.765691216396201E-019
  -99.6800000000000        -3.559144550305481E-019
  -99.4900000000000        -3.304768250923143E-019
  -99.3000000000000        -2.077273927301969E-019
  -99.1100000000000        -2.350676670606492E-020
  -98.9200000000000         1.683883403110170E-019
  -98.7300000000000         3.118521831783170E-019
  -98.5400000000000         3.648031855647923E-019
  -98.3500000000000         3.114395730470500E-019
  -98.1600000000000         1.668409779023512E-019
  -97.9700000000000        -2.741980220508891E-020
  -97.7800000000000        -2.153632682080402E-019
  -97.5900000000000        -3.428587297206242E-019
  -97.4000000000000        -3.733241355212174E-019
  -97.2100000000000        -2.983254949965203E-019
  -97.0200000000000        -1.400149579829095E-019
  -96.8300000000000         5.529990703698863E-020
  -96.6400000000000         2.306045616377200E-019
  -96.4500000000000         3.347531029868330E-019
  -96.2600000000000         3.373543733454325E-019
  -96.0700000000000         2.376261230116013E-019
  -95.8800000000000         6.462638489291092E-020
  -95.6900000000000        -1.312079576560299E-019
  -95.5000000000000        -2.927414689631932E-019
  -95.3100000000000        -3.727555736007882E-019
  -95.1200000000000        -3.476699454034439E-019
  -94.9300000000000        -2.244008416141513E-019
  -94.7400000000000        -3.838153516573054E-020
  -94.5500000000000         1.566823677499179E-019
  -94.3600000000000         3.043697913377468E-019
  -94.1700000000000         3.619202527711335E-019
  -93.9800000000000         3.126806604757278E-019
  -93.7900000000000         1.709912557513966E-019
  -93.6000000000000        -2.193568594666298E-020
  -93.4100000000000        -2.099618762037165E-019
  -93.2200000000000        -3.383152821859727E-019
  -93.0300000000000        -3.694791718794149E-019
  -92.8400000000000        -2.940612317872872E-019
  -92.6500000000000        -1.335077098104061E-019
  -92.4600000000000         6.609636691436778E-020
  -92.2700000000000         2.473290408607085E-019
  -92.0800000000000         3.579932643489814E-019
  -91.8900000000000         3.661722093289603E-019
  -91.7000000000000         2.694418974508561E-019
  -91.5100000000000         9.557032728653287E-020
  -91.3200000000000        -1.055230730358323E-019
  -91.1300000000000        -2.762371989935196E-019
  -90.9400000000000        -3.679908930847445E-019
  -90.7500000000000        -3.552927065248586E-019
  -90.5600000000000        -2.430785478028419E-019
  -90.3700000000000        -6.518727953897035E-020
  -90.1800000000000         1.255647698011401E-019
  -89.9900000000000         2.728067027867098E-019
  -89.8000000000000         3.330484112411044E-019
  -89.6100000000000         2.883670469715123E-019
  -89.4200000000000         1.516725062350228E-019
  -89.2300000000000        -3.698164489481420E-020
  -89.0400000000000        -2.219902365361905E-019
  -88.8500000000000        -3.483440678723591E-019
  -88.6600000000000        -3.776471574074113E-019
  -88.4700000000000        -2.993392415744539E-019
  -88.2800000000000        -1.338488384274090E-019
  -88.0900000000000         7.323967754454944E-020
  -87.9000000000000         2.642953777833386E-019
  -87.7100000000000         3.862070693978825E-019
  -87.5200000000000         4.056082596282597E-019
  -87.3300000000000         3.183763101325876E-019
  -87.1400000000000         1.506866495639459E-019
  -86.9500000000000        -4.866349820005956E-020
  -86.7600000000000        -2.224364316241069E-019
  -86.5700000000000        -3.215387404075016E-019
  -86.3800000000000        -3.192034517747160E-019
  -86.1900000000000        -2.186446064520830E-019
  -86.0000000000000        -5.195089466077849E-020
  -85.8100000000000         1.294509801390251E-019
  -85.6200000000000         2.699576908295750E-019
  -85.4300000000000         3.261298870863797E-019
  -85.2400000000000         2.794439527181255E-019
  -85.0500000000000         1.417581717211542E-019
  -84.8600000000000        -4.807118900287351E-020
  -84.6700000000000        -2.354251638088551E-019
  -84.4800000000000        -3.657535148203306E-019
  -84.2900000000000        -4.004298470246041E-019
  -84.1000000000000        -3.280424143809959E-019
  -83.9100000000000        -1.678291646402912E-019
  -83.7200000000000         3.577474745522331E-020
  -83.5300000000000         2.259233613409953E-019
  -83.3400000000000         3.497734878047255E-019
  -83.1500000000000         3.737441790119272E-019
  -82.9600000000000         2.931728281117093E-019
  -82.7700000000000         1.335617534874024E-019
  -82.5800000000000        -5.692934260848810E-020
  -82.3900000000000        -2.215446373093838E-019
  -82.2000000000000        -3.114602245567654E-019
  -82.0100000000000        -2.999925862585889E-019
  -81.8200000000000        -1.903737509451888E-019
  -81.6300000000000        -1.483159467448563E-020
  -81.4400000000000         1.747751076505796E-019
  -81.2500000000000         3.220632305256332E-019
  -81.0600000000000         3.825853715582998E-019
  -80.8700000000000         3.368429428598396E-019
  -80.6800000000000         1.960493764879270E-019
  -80.4900000000000        -1.036952862393734E-021
  -80.3000000000000        -1.992776046327553E-019
  -80.1100000000000        -3.430612983799199E-019
  -79.9200000000000        -3.923394131867708E-019
  -79.7300000000000        -3.341566719349387E-019
  -79.5400000000000        -1.863533288722905E-019
  -79.3500000000000         7.629037788528438E-021
  -79.1600000000000         1.913463941995249E-019
  -78.9700000000000         3.117238273089596E-019
  -78.7800000000000         3.344577079545004E-019
  -78.5900000000000         2.539622322732867E-019
  -78.4000000000000         9.494833856730767E-020
  -78.2100000000000        -9.483261379908134E-020
  -78.0200000000000        -2.585604538885137E-019
  -77.8300000000000        -3.469551538255314E-019
  -77.6400000000000        -3.326903319379446E-019
  -77.4500000000000        -2.184339759401519E-019
  -77.2600000000000        -3.619521510386696E-020
  -77.0700000000000         1.618377236288649E-019
  -76.8800000000000         3.183430303392039E-019
  -76.6900000000000         3.874742931662746E-019
  -76.5000000000000         3.482389272959811E-019
  -76.3100000000000         2.107499879971928E-019
  -76.1200000000000         1.349311971746835E-020
  -75.9300000000000        -1.876459131388142E-019
  -75.7400000000000        -3.354363272694580E-019
  -75.5500000000000        -3.877825194973089E-019
  -75.3600000000000        -3.298398141892905E-019
  -75.1700000000000        -1.782574345797435E-019
  -74.9800000000000         2.365712225971423E-020
  -74.7900000000000         2.184273782006489E-019
  -74.6000000000000         3.509306674446923E-019
  -74.4100000000000         3.841900176331031E-019
  -74.2200000000000         3.098920942333833E-019
  -74.0300000000000         1.506103935079893E-019
  -73.8400000000000        -4.689545721968365E-020
  -73.6500000000000        -2.253531614974741E-019
  -73.4600000000000        -3.336463798330529E-019
  -73.2700000000000        -3.416259332168203E-019
  -73.0800000000000        -2.487581016989885E-019
  -72.8900000000000        -8.411585266868459E-020
  -72.7000000000000         1.022500611508682E-019
  -72.5100000000000         2.540228395936874E-019
  -72.3200000000000         3.251296195179027E-019
  -72.1300000000000         2.932619394352029E-019
  -71.9400000000000         1.664909934142109E-019
  -71.7500000000000        -1.894768714862416E-020
  -71.5600000000000        -2.090815973888686E-019
  -71.3700000000000        -3.478414501989858E-019
  -71.1800000000000        -3.933817315411635E-019
  -70.9900000000000        -3.303267745178745E-019
  -70.8000000000000        -1.743636358030148E-019
  -70.6100000000000         3.216066949463870E-020
  -70.4200000000000         2.323499697520010E-019
  -70.2300000000000         3.710502015731967E-019
  -70.0400000000000         4.106014488144520E-019
  -69.8500000000000         3.415189375575267E-019
  -69.6600000000000         1.850566368516759E-019
  -69.4700000000000        -1.305625503660743E-020
  -69.2800000000000        -1.958903821275908E-019
  -69.0900000000000        -3.117758968485864E-019
  -68.9000000000000        -3.291918446566480E-019
  -68.7100000000000        -2.457662558512248E-019
  -68.5200000000000        -8.876329109962967E-020
  -68.3300000000000         9.308642897949901E-020
  -68.1400000000000         2.440133712829981E-019
  -67.9500000000000         3.176521930280302E-019
  -67.7600000000000         2.906764689370143E-019
  -67.5700000000000         1.696504169353683E-019
  -67.3800000000000        -1.087108854721443E-020
  -67.1900000000000        -1.984083587651844E-019
  -67.0000000000000        -3.378430984275832E-019
  -66.8100000000000        -3.874842278131852E-019
  -66.6200000000000        -3.312577301487604E-019
  -66.4300000000000        -1.834840074529684E-019
  -66.2400000000000         1.515725779761367E-020
  -66.0500000000000         2.093217435215977E-019
  -65.8600000000000         3.449658011093527E-019
  -65.6700000000000         3.849382268685230E-019
  -65.4800000000000         3.196608200001632E-019
  -65.2900000000000         1.697975952479933E-019
  -65.1000000000000        -1.984885091777920E-020
  -64.9100000000000        -1.934253642962440E-019
  -64.7200000000000        -3.002937044227271E-019
  -64.5300000000000        -3.097572288740910E-019
  -64.3400000000000        -2.199812587594107E-019
  -64.1500000000000        -5.851119659743005E-020
  -63.9600000000000         1.257818551147009E-019
  -63.7700000000000         2.770028837173326E-019
  -63.5800000000000         3.486186172821654E-019
  -63.3900000000000         3.171367017950489E-019
  -63.2000000000000         1.890720554110228E-019
  -63.0100000000000        -8.378710773600128E-022
  -62.8200000000000        -1.996401709994509E-019
  -62.6300000000000        -3.514677656586355E-019
  -62.4400000000000        -4.136834777858114E-019
  -62.2500000000000        -3.691962317539052E-019
  -62.0600000000000        -2.313982180099080E-019
  -61.8700000000000        -4.029434417093649E-020
  -61.6800000000000         1.490763475866840E-019
  -61.4900000000000         2.826005176376279E-019
  -61.3000000000000         3.228150122635941E-019
  -61.1100000000000         2.598128869098301E-019
  -60.9200000000000         1.141214847399153E-019
  -60.7300000000000        -6.931910119114384E-020
  -60.5400000000000        -2.343295290437254E-019
  -60.3500000000000        -3.299594369133930E-019
  -60.1600000000000        -3.254322205122904E-019
  -59.9700000000000        -2.192117030005976E-019
  -59.7800000000000        -3.956594635337990E-020
  -59.5900000000000         1.635223627085474E-019
  -59.4000000000000         3.327528695005064E-019
  -59.2100000000000         4.200569877396909E-019
  -59.0200000000000         4.005258464104090E-019
  -58.8300000000000         2.796834547216242E-019
  -58.6400000000000         9.197442012103673E-020
  -58.4500000000000        -1.091271397289957E-019
  -58.2600000000000        -2.665399829660218E-019
  -58.0700000000000        -3.360598844323422E-019
  -57.8800000000000        -2.991176386627048E-019
  -57.6900000000000        -1.681056212496738E-019
  -57.5000000000000         1.726760298118226E-020
  -57.3100000000000         2.015290409681990E-019
  -57.1200000000000         3.295511123242820E-019
  -56.9300000000000         3.625632054603750E-019
  -56.7400000000000         2.894345848344556E-019
  -56.5500000000000         1.299499892033352E-019
  -56.3600000000000        -7.089454350574688E-020
  -56.1700000000000        -2.559403510440021E-019
  -55.9800000000000        -3.724749642427510E-019
  -55.7900000000000        -3.875639816261854E-019
  -55.6000000000000        -2.976323274365515E-019
  -55.4100000000000        -1.295026562940172E-019
  -55.2200000000000         6.740019699045361E-020
  -55.0300000000000         2.353988323636569E-019
  -54.8400000000000         3.253023151015142E-019
  -54.6500000000000         3.106992999596856E-019
  -54.4600000000000         1.956820505547590E-019
  -54.2700000000000         1.376140208952770E-020
  -54.0800000000000        -1.817430961194267E-019
  -53.8900000000000        -3.330980393800763E-019
  -53.7000000000000        -3.949058752075035E-019
  -53.5100000000000        -3.473504540427859E-019
  -53.3200000000000        -2.020657180865301E-019
  -53.1300000000000         1.105072679455779E-021
  -52.9400000000000         2.055272506015459E-019
  -52.7500000000000         3.540498727280332E-019
  -52.5600000000000         4.054163203616932E-019
  -52.3700000000000         3.460710756366105E-019
  -52.1800000000000         1.939764654031492E-019
  -51.9900000000000        -6.632951263955296E-021
  -51.8000000000000        -1.980312698776539E-019
  -51.6100000000000        -3.256396512093717E-019
  -51.4200000000000        -3.537370478530964E-019
  -51.2300000000000        -2.757090505285185E-019
  -51.0400000000000        -1.158606520018405E-019
  -50.8500000000000         7.774209055642040E-020
  -50.6600000000000         2.473245246358658E-019
  -50.4700000000000         3.422584759916627E-019
  -50.2800000000000         3.338100442959540E-019
  -50.0900000000000         2.234946072512289E-019
  -49.9000000000000         4.263195122956094E-020
  -49.7100000000000        -1.567411471901749E-019
  -49.5200000000000        -3.169493488594035E-019
  -49.3300000000000        -3.913806706468954E-019
  -49.1400000000000        -3.579826103257793E-019
  -48.9500000000000        -2.256474434481972E-019
  -48.7600000000000        -3.163576985423593E-020
  -48.5700000000000         1.692155506969430E-019
  -48.3800000000000         3.203659258728476E-019
  -48.1900000000000         3.799064024224534E-019
  -48.0000000000000         3.326088447719624E-019
  -47.8100000000000         1.942048089704808E-019
  -47.6200000000000         6.687061935967093E-021
  -47.4300000000000        -1.739696022763641E-019
  -47.2400000000000        -2.940975402499496E-019
  -47.0500000000000        -3.179285840644293E-019
  -46.8600000000000        -2.379942044314474E-019
  -46.6700000000000        -7.733134693298785E-020
  -46.4800000000000         1.171573190484499E-019
  -46.2900000000000         2.882909258805725E-019
  -46.1000000000000         3.852202462185088E-019
  -45.9100000000000         3.782261286022955E-019
  -45.7200000000000         2.673820473942662E-019
  -45.5300000000000         8.255356826035610E-020
  -45.3400000000000        -1.252463576735910E-019
  -45.1500000000000        -2.985999406117143E-019
  -44.9600000000000        -3.902169912053795E-019
  -44.7700000000000        -3.764612078680211E-019
  -44.5800000000000        -2.639824309648494E-019
  -44.3900000000000        -8.758007624656479E-020
  -44.2000000000000         1.000531052336702E-019
  -44.0100000000000         2.437310401890665E-019
  -43.8200000000000         3.018573538073360E-019
  -43.6300000000000         2.585181427172629E-019
  -43.4400000000000         1.280555401135952E-019
  -43.2500000000000        -4.922142042043434E-020
  -43.0600000000000        -2.189385248990528E-019
  -42.8700000000000        -3.286818055287348E-019
  -42.6800000000000        -3.434444633764167E-019
  -42.4900000000000        -2.559736601272023E-019
  -42.3000000000000        -8.900680318650094E-020
  -42.1100000000000         1.112381467986201E-019
  -41.9200000000000         2.884155708962448E-019
  -41.7300000000000         3.923674055447724E-019
  -41.5400000000000         3.936634792837326E-019
  -41.3500000000000         2.921432373967628E-019
  -41.1600000000000         1.169721391177718E-019
  -40.9700000000000        -8.181188107002944E-020
  -40.7800000000000        -2.478059813769492E-019
  -40.5900000000000        -3.345749574911501E-019
  -40.4000000000000        -3.190493270619725E-019
  -40.2100000000000        -2.081019186815768E-019
  -40.0200000000000        -3.641603361300655E-020
  -39.8300000000000         1.437149302927159E-019
  -39.6400000000000         2.776909437804875E-019
  -39.4500000000000         3.245791951371483E-019
  -39.2600000000000         2.691303657953478E-019
  -39.0700000000000         1.263387253875684E-019
  -38.8800000000000        -6.281590254631894E-020
  -38.6900000000000        -2.432543483125800E-019
  -38.5000000000000        -3.618782222174008E-019
  -38.3100000000000        -3.831453637010111E-019
  -38.1200000000000        -2.995635804184194E-019
  -37.9300000000000        -1.340118126168694E-019
  -37.7400000000000         6.679913845486781E-020
  -37.5500000000000         2.458150920527307E-019
  -37.3600000000000         3.521418381070676E-019
  -37.1700000000000         3.557733882007411E-019
  -36.9800000000000         2.562943216481364E-019
  -36.7900000000000         8.305130044621979E-020
  -36.6000000000000        -1.132677067318940E-019
  -36.4100000000000        -2.752436281372587E-019
  -36.2200000000000        -3.553265134263162E-019
  -36.0300000000000        -3.296238230448470E-019
  -35.8400000000000        -2.048616476218462E-019
  -35.6500000000000        -1.647002189486147E-020
  -35.4600000000000         1.816703866031846E-019
  -35.2700000000000         3.328360555249949E-019
  -35.0800000000000         3.938701808941850E-019
  -34.8900000000000         3.476235743815370E-019
  -34.7000000000000         2.078344691923631E-019
  -34.5100000000000         1.505964094988774E-020
  -34.3200000000000        -1.751424446346412E-019
  -34.1300000000000        -3.083427990845151E-019
  -33.9400000000000        -3.470154795569983E-019
  -33.7500000000000        -2.813899182155858E-019
  -33.5600000000000        -1.322369215814451E-019
  -33.3700000000000         5.522756127256210E-020
  -33.1800000000000         2.245551279226310E-019
  -32.9900000000000         3.245493372263056E-019
  -32.8000000000000         3.242263764854037E-019
  -32.6100000000000         2.219115907770672E-019
  -32.4200000000000         4.583998637945831E-020
  -32.2300000000000        -1.539152380874349E-019
  -32.0400000000000        -3.198626538320276E-019
  -31.8500000000000        -4.037083207523106E-019
  -31.6600000000000        -3.803752235116995E-019
  -31.4700000000000        -2.553621260579957E-019
  -31.2800000000000        -6.327424057591464E-020
  -31.0900000000000         1.420935182835371E-019
  -30.9000000000000         3.032657104513587E-019
  -30.7100000000000         3.756762151050806E-019
  -30.5200000000000         3.404999311257553E-019
  -30.3300000000000         2.099913562584151E-019
  -30.1400000000000         2.379680115080022E-020
  -29.9500000000000        -1.626516470874834E-019
  -29.7600000000000        -2.942593377309900E-019
  -29.5700000000000        -3.322323891678456E-019
  -29.3800000000000        -2.652847712009531E-019
  -29.1900000000000        -1.128733816588570E-019
  -29.0000000000000         8.046940344249695E-020
  -28.8100000000000         2.580772275257371E-019
  -28.6200000000000         3.676280662000673E-019
  -28.4300000000000         3.763794198650301E-019
  -28.2400000000000         2.807194052203418E-019
  -28.0500000000000         1.072344968188643E-019
  -27.8600000000000        -9.502251335971709E-020
  -27.6700000000000        -2.687925181910249E-019
  -27.4800000000000        -3.652194551534657E-019
  -27.2900000000000        -3.579695074069294E-019
  -27.1000000000000        -2.507722812253357E-019
  -26.9100000000000        -7.621883128508756E-020
  -26.7200000000000         1.138131244546785E-019
  -26.5300000000000         2.633170479939986E-019
  -26.3400000000000         3.284996542667994E-019
  -26.1500000000000         2.905630628385727E-019
  -25.9600000000000         1.611995055522786E-019
  -25.7700000000000        -2.082272345406329E-020
  -25.5800000000000        -2.010013643433856E-019
  -25.3900000000000        -3.250630215996725E-019
  -25.2000000000000        -3.548883111019114E-019
  -25.0100000000000        -2.797571543554086E-019
  -24.8200000000000        -1.196367505269783E-019
  -24.6300000000000         8.045371919272443E-020
  -24.4400000000000         2.633815748555023E-019
  -24.2500000000000         3.764116957205085E-019
  -24.0600000000000         3.865223083371066E-019
  -23.8700000000000         2.900796113396463E-019
  -23.6800000000000         1.140282614512985E-019
  -23.4900000000000        -9.179353147387137E-020
  -23.3000000000000        -2.690097891366730E-019
  -23.1100000000000        -3.675659399579368E-019
  -22.9200000000000        -3.601833219778889E-019
  -22.7300000000000        -2.502022512955902E-019
  -22.5400000000000        -7.054386310755139E-020
  -22.3500000000000         1.258843391464503E-019
  -22.1600000000000         2.815392090712649E-019
  -21.9700000000000         3.509104403787369E-019
  -21.7800000000000         3.137064742344648E-019
  -21.5900000000000         1.807535302571403E-019
  -21.4000000000000        -9.114382836498117E-021
  -21.2100000000000        -2.003032750406512E-019
  -21.0200000000000        -3.366108459609027E-019
  -20.8300000000000        -3.776034898982914E-019
  -20.6400000000000        -3.104438595674656E-019
  -20.4500000000000        -1.536999018262822E-019
  -20.2600000000000         4.798834681056826E-020
  -20.0700000000000         2.368252525033482E-019
  -19.8800000000000         3.585943779600050E-019
  -19.6900000000000         3.783588692367858E-019
  -19.5000000000000         2.905935795660859E-019
  -19.3100000000000         1.208305610979615E-019
  -19.1200000000000        -8.165649592717917E-020
  -18.9300000000000        -2.580325566717551E-019
  -18.7400000000000        -3.568795406521905E-019
  -18.5500000000000        -3.490850987980491E-019
  -18.3600000000000        -2.363270778950987E-019
  -18.1700000000000        -5.067233265603964E-020
  -17.9800000000000         1.546132068781440E-019
  -17.7900000000000         3.203885638521610E-019
  -17.6000000000000         3.986622413084469E-019
  -17.4100000000000         3.663964421864154E-019
  -17.2200000000000         2.321106622663335E-019
  -17.0300000000000         3.339563820663093E-020
  -16.8400000000000        -1.739273692897453E-019
  -16.6500000000000        -3.318722441446713E-019
  -16.4600000000000        -3.969529297782472E-019
  -16.2700000000000        -3.526393895876831E-019
  -16.0800000000000        -2.139975774686890E-019
  -15.8900000000000        -2.316897469815962E-020
  -15.7000000000000         1.629879576407878E-019
  -15.5100000000000         2.894898982021521E-019
  -15.3200000000000         3.192215817506318E-019
  -15.1300000000000         2.436841166006892E-019
  -14.9400000000000         8.540299623517510E-020
  -14.7500000000000        -1.086599960679449E-019
  -14.5600000000000        -2.807521279214970E-019
  -14.3700000000000        -3.790855186733743E-019
  -14.1800000000000        -3.728773312412008E-019
  -13.9900000000000        -2.613364266913480E-019
  -13.8000000000000        -7.399120199873668E-020
  -13.6100000000000         1.377531076566817E-019
  -13.4200000000000         3.154002114463859E-019
  -13.2300000000000         4.102103600304196E-019
  -13.0400000000000         3.972082658902174E-019
  -12.8500000000000         2.822732914832817E-019
  -12.6600000000000         1.002717265409010E-019
  -12.4700000000000        -9.518036061182643E-020
  -12.2800000000000        -2.473105289665087E-019
  -12.0900000000000        -3.126029395561434E-019
  -11.9000000000000        -2.732896661282240E-019
  -11.7100000000000        -1.423378761492175E-019
  -11.5200000000000         4.047332046916199E-020
  -11.3300000000000         2.202300789654014E-019
  -11.1400000000000         3.429293638809985E-019
  -10.9500000000000         3.712338502519770E-019
  -10.7600000000000         2.953442010399263E-019
  -10.5700000000000         1.358172100362070E-019
  -10.3800000000000        -6.247810733349676E-020
  -10.1900000000000        -2.434781168689251E-019
  -10.0000000000000        -3.562657704889912E-019
  -9.81000000000000        -3.698575338383623E-019
  -9.62000000000000        -2.821346319255407E-019
  -9.42999999999999        -1.203470435979647E-019
  -9.23999999999999         6.692625669472091E-020
  -9.05000000000000         2.240117451987156E-019
  -8.86000000000000         3.044319010620389E-019
  -8.67000000000000         2.845051850942613E-019
  -8.48000000000000         1.702790124575600E-019
  -8.28999999999999        -4.238194987419196E-021
  -8.09999999999999        -1.870349466853713E-019
  -7.91000000000000        -3.233342634640287E-019
  -7.72000000000000        -3.716499545168375E-019
  -7.53000000000000        -3.159650428122816E-019
  -7.34000000000000        -1.704882894663665E-019
  -7.15000000000001         2.437726863657975E-020
  -6.95999999999999         2.136751521536025E-019
  -6.77000000000000         3.437792294023052E-019
  -6.58000000000000         3.779272304299361E-019
  -6.39000000000000         3.068974946439547E-019
  -6.20000000000000         1.517131405326291E-019
  -6.01000000000001        -4.244038715623692E-020
  -5.81999999999999        -2.193424614900408E-019
  -5.63000000000000        -3.280917207620442E-019
  -5.44000000000000        -3.379003098380668E-019
  -5.25000000000000        -2.469940422646289E-019
  -5.06000000000000        -8.303055781107353E-020
  -4.87000000000000         1.050580557246110E-019
  -4.67999999999999         2.613959357828613E-019
  -4.48999999999999         3.394849626407754E-019
  -4.30000000000000         3.157748972299751E-019
  -4.11000000000000         1.965522343279115E-019
  -3.92000000000000         1.615085483578805E-020
  -3.73000000000000        -1.730158072184792E-019
  -3.53999999999999        -3.157321720587199E-019
  -3.34999999999999        -3.701274726272610E-019
  -3.16000000000000        -3.199644082243712E-019
  -2.97000000000000        -1.794537786091965E-019
  -2.78000000000000         1.083391012210085E-020
  -2.59000000000000         1.957791428607178E-019
  -2.40000000000001         3.217987228257192E-019
  -2.20999999999999         3.525045896412233E-019
  -2.02000000000000         2.793698293028809E-019
  -1.83000000000000         1.243011804654989E-019
  -1.64000000000000        -6.663977259213245E-020
  -1.45000000000000        -2.365746483244233E-019
  -1.26000000000001        -3.343631266577345E-019
  -1.06999999999999        -3.295726655260089E-019
 -0.879999999999995        -2.214955100919077E-019
 -0.689999999999998        -3.956016845513266E-020
 -0.500000000000000         1.650187566948364E-019
 -0.310000000000002         3.339510143366399E-019
 -0.120000000000005         4.186723382971968E-019
  7.000000000000739E-002    3.943575525810615E-019
  0.260000000000005         2.670920489370374E-019
  0.450000000000003         7.214079112227900E-020
  0.640000000000001        -1.361832953597732E-019
  0.829999999999998        -3.001375274612307E-019
   1.02000000000000        -3.751551834645633E-019
   1.21000000000001        -3.426427394628250E-019
   1.40000000000001        -2.152562999573741E-019
   1.59000000000000        -3.310311739869479E-020
   1.78000000000000         1.480555647390199E-019
   1.97000000000000         2.731725263855356E-019
   2.16000000000000         3.040656435220378E-019
   2.34999999999999         2.306275817808082E-019
   2.54000000000001         7.382993863624995E-020
   2.73000000000000        -1.203417929028188E-019
   2.92000000000000        -2.942522388872654E-019
   3.11000000000000        -3.953990606371428E-019
   3.30000000000000        -3.917567052387515E-019
   3.48999999999999        -2.812464206940819E-019
   3.68000000000001        -9.258002271078201E-020
   3.87000000000000         1.228098175393677E-019
   4.06000000000000         3.054661419220045E-019
   4.25000000000000         4.049978314279209E-019
   4.44000000000000         3.946056892152079E-019
   4.63000000000000         2.788172903516560E-019
   4.82000000000001         9.217233052339307E-020
   5.01000000000001        -1.107679399797735E-019
   5.20000000000000        -2.711864142696358E-019
   5.39000000000000        -3.429788163327246E-019
   5.58000000000000        -3.060273696346218E-019
   5.77000000000000        -1.719650915317018E-019
   5.96000000000001         1.922755406674133E-020
   6.15000000000001         2.108252091470131E-019
   6.34000000000000         3.458228521206999E-019
   6.53000000000000         3.835059400936727E-019