  -105.000000000000        -5.791961994091067E-019
  -104.810000000000        -4.387019910128241E-019
  -104.620000000000        -2.049388702273055E-019
  -104.430000000000         5.658970608613641E-020
  -104.240000000000         2.730765733146840E-019
  -104.050000000000         3.853802391088346E-019
  -103.860000000000         3.650189003827592E-019
  -103.670000000000         2.222487024954466E-019
  -103.480000000000         2.877748022847470E-021
  -103.290000000000        -2.252431886278837E-019
  -103.100000000000        -3.920968234425828E-019
  -102.910000000000        -4.459411996619117E-019
  -102.720000000000        -3.683803675469475E-019
  -102.530000000000        -1.797170742451898E-019
  -102.340000000000         6.693329189666281E-020
  -102.150000000000         3.010498971584538E-019
  -101.960000000000         4.551821063411473E-019
  -101.770000000000         4.845760463068737E-019
  -101.580000000000         3.802597858136838E-019
  -101.390000000000         1.717635274345306E-019
  -101.200000000000        -8.135166579652071E-020
  -101.010000000000        -3.067149346531118E-019
  -100.820000000000        -4.401011308155528E-019
  -100.630000000000        -4.440062714711828E-019
  -100.440000000000        -3.184382844352432E-019
  -100.250000000000        -1.008124632761569E-019
  -100.060000000000         1.449791805310151E-019
  -99.8700000000000         3.471280089029255E-019
  -99.6800000000000         4.467209394449765E-019
  -99.4900000000000         4.147981468405430E-019
  -99.3000000000000         2.607343981249736E-019
  -99.1100000000000         2.951162030221873E-020
  -98.9200000000000        -2.113497314946913E-019
  -98.7300000000000        -3.914277480092322E-019
  -98.5400000000000        -4.578990236637298E-019
  -98.3500000000000        -3.909235157983079E-019
  -98.1600000000000        -2.094236198160353E-019
  -97.9700000000000         3.442127529847278E-020
  -97.7800000000000         2.703439777908174E-019
  -97.5900000000000         4.303929059488648E-019
  -97.4000000000000         4.686403543900727E-019
  -97.2100000000000         3.744910925466288E-019
  -97.0200000000000         1.757471096738270E-019
  -96.8300000000000        -6.946170947091224E-020
  -96.6400000000000        -2.895581857424484E-019
  -96.4500000000000        -4.203260865643968E-019
  -96.2600000000000        -4.235995908841616E-019
  -96.0700000000000        -2.983821560642169E-019
  -95.8800000000000        -8.114188342749967E-020
  -95.6900000000000         1.648043222121160E-019
  -95.5000000000000         3.677133515618356E-019
  -95.3100000000000         4.682722012931480E-019
  -95.1200000000000         4.368307857873578E-019
  -94.9300000000000         2.820289382057303E-019
  -94.7400000000000         4.833223904547980E-020
  -94.5500000000000        -1.968139160320136E-019
  -94.3600000000000        -3.825136956911689E-019
  -94.1700000000000        -4.549969442739271E-019
  -93.9800000000000        -3.932764263281401E-019
  -93.7900000000000        -2.153149217746785E-019
  -93.6000000000000         2.712882126550052E-020
  -93.4100000000000         2.635020353695569E-019
  -93.2200000000000         4.249418762219343E-019
  -93.0300000000000         4.642665354366080E-019
  -92.8400000000000         3.696565299171639E-019
  -92.6500000000000         1.680719743972697E-019
  -92.4600000000000        -8.255221760319423E-020
  -92.2700000000000        -3.100489102214494E-019
  -92.0800000000000        -4.488565436509270E-019
  -91.8900000000000        -4.589469949406244E-019
  -91.7000000000000        -3.373847611191703E-019
  -91.5100000000000        -1.191633072520511E-019
  -91.3200000000000         1.329500562393236E-019
  -91.1300000000000         3.466342291082859E-019
  -90.9400000000000         4.610047773101652E-019
  -90.7500000000000         4.442561569804567E-019
  -90.5600000000000         3.028145843119177E-019
  -90.3700000000000         7.934975743301208E-020
  -90.1800000000000        -1.597492950854462E-019
  -89.9900000000000        -3.437682946015949E-019
  -89.8000000000000        -4.182904345250801E-019
  -89.6100000000000        -3.610710480155669E-019
  -89.4200000000000        -1.885694483819187E-019
  -89.2300000000000         4.875974803442946E-020
  -89.0400000000000         2.810670990412754E-019
  -88.8500000000000         4.393819459446316E-019
  -88.6600000000000         4.756784580191959E-019
  -88.4700000000000         3.768954266035818E-019
  -88.2800000000000         1.688233410888610E-019
  -88.0900000000000        -9.126825187627182E-020
  -87.9000000000000        -3.311005182403500E-019
  -87.7100000000000        -4.841523358629641E-019
  -87.5200000000000        -5.087104837329105E-019
  -87.3300000000000        -3.997231230794164E-019
  -87.1400000000000        -1.900715337587821E-019
  -86.9500000000000         5.908156532776284E-020
  -86.7600000000000         2.760738782593887E-019
  -86.5700000000000         3.995160481162918E-019
  -86.3800000000000         3.960327741987272E-019
  -86.1900000000000         2.698100364788658E-019
  -86.0000000000000         6.116587789337173E-020
  -85.8100000000000        -1.654240707993004E-019
  -85.6200000000000        -3.403250452134235E-019
  -85.4300000000000        -4.092020691970189E-019
  -85.2400000000000        -3.489770605153840E-019
  -85.0500000000000        -1.746614355781462E-019
  -84.8600000000000         6.489331792170190E-020
  -84.6700000000000         3.010781488933884E-019
  -84.4800000000000         4.653673313239183E-019
  -84.2900000000000         5.091937467652481E-019
  -84.1000000000000         4.181175715804967E-019
  -83.9100000000000         2.161691588155117E-019
  -83.7200000000000        -4.093490938039097E-020
  -83.5300000000000        -2.817782317679459E-019
  -83.3400000000000        -4.398114000211170E-019
  -83.1500000000000        -4.725169352648645E-019
  -82.9600000000000        -3.735911895601139E-019
  -82.7700000000000        -1.746115744976146E-019
  -82.5800000000000         6.426596811933800E-020
  -82.3900000000000         2.718533668220535E-019
  -82.2000000000000         3.866318514968386E-019
  -82.0100000000000         3.746285051390886E-019
  -81.8200000000000         2.393010239859151E-019
  -81.6300000000000         2.055354424311106E-020
  -81.4400000000000        -2.168604670019163E-019
  -81.2500000000000        -4.022058805867634E-019
  -81.0600000000000        -4.794256059902280E-019
  -80.8700000000000        -4.235697243842638E-019
  -80.6800000000000        -2.481937134628762E-019
  -80.4900000000000        -1.559418092055804E-021
  -80.3000000000000         2.472601215195212E-019
  -80.1100000000000         4.283330232902223E-019
  -79.9200000000000         4.910863224044067E-019
  -79.7300000000000         4.189286307498155E-019
  -79.5400000000000         2.340406697698105E-019
  -79.3500000000000        -9.062819171702115E-021
  -79.1600000000000        -2.393543616300128E-019
  -78.9700000000000        -3.899320984013809E-019
  -78.7800000000000        -4.174877157311957E-019
  -78.5900000000000        -3.149210549857109E-019
  -78.4000000000000        -1.133936051508677E-019
  -78.2100000000000         1.267970807153331E-019
  -78.0200000000000         3.338531562576062E-019
  -77.8300000000000         4.454625271211285E-019
  -77.6400000000000         4.270188188693961E-019
  -77.4500000000000         2.817926773674113E-019
  -77.2600000000000         5.011883285379083E-020
  -77.0700000000000        -2.021697086911745E-019
  -76.8800000000000        -4.027387001761841E-019
  -76.6900000000000        -4.937080582173149E-019
  -76.5000000000000        -4.484944782016893E-019
  -76.3100000000000        -2.796231804207695E-019
  -76.1200000000000        -3.519497551066251E-020
  -75.9300000000000         2.149944061490493E-019
  -75.7400000000000         3.996472392794607E-019
  -75.5500000000000         4.665767265055035E-019
  -75.3600000000000         3.977296228277101E-019
  -75.1700000000000         2.142620588588470E-019
  -74.9800000000000        -2.976372769351175E-020
  -74.7900000000000        -2.631770526893757E-019
  -74.6000000000000        -4.183712329473178E-019
  -74.4100000000000        -4.508548710665114E-019
  -74.2200000000000        -3.520371667626858E-019
  -74.0300000000000        -1.515645435778075E-019
  -73.8400000000000         9.145735156079213E-020
  -73.6500000000000         3.058011092183415E-019
  -73.4600000000000         4.289586701527996E-019
  -73.2700000000000         4.253935768460054E-019
  -73.0800000000000         2.968680813664354E-019
  -72.8900000000000         8.184459809011240E-020
  -72.7000000000000        -1.558277869240553E-019
  -72.5100000000000        -3.456077766962933E-019
  -72.3200000000000        -4.308787993175359E-019
  -72.1300000000000        -3.854983050602812E-019
  -71.9400000000000        -2.214829112782703E-019
  -71.7500000000000         1.439711085100648E-020
  -71.5600000000000         2.541274944973352E-019
  -71.3700000000000         4.281424705009201E-019
  -71.1800000000000         4.854755467431331E-019
  -70.9900000000000         4.085090761302325E-019
  -70.8000000000000         2.180465540275718E-019
  -70.6100000000000        -3.273282422212925E-020
  -70.4200000000000        -2.736356137459361E-019
  -70.2300000000000        -4.376413754660794E-019
  -70.0400000000000        -4.800693941548791E-019
  -69.8500000000000        -3.912237974782385E-019
  -69.6600000000000        -1.989297270360205E-019
  -69.4700000000000         3.971716970377100E-020
  -69.2800000000000         2.549881811745155E-019
  -69.0900000000000         3.847534344840653E-019
  -68.9000000000000         3.924734249019592E-019
  -68.7100000000000         2.777358003380659E-019
  -68.5200000000000         7.626230283599148E-020
  -68.3300000000000        -1.506271649213444E-019
  -68.1400000000000        -3.340181926790393E-019
  -67.9500000000000        -4.176094742483049E-019
  -67.7600000000000        -3.742290322884808E-019
  -67.5700000000000        -2.138668628334483E-019
  -67.3800000000000         1.907978872768380E-020
  -67.1900000000000         2.585268787271724E-019
  -67.0000000000000         4.357101498290193E-019
  -66.8100000000000         4.990085903395891E-019
  -66.6200000000000         4.288854481380185E-019
  -66.4300000000000         2.436385474115694E-019
  -66.2400000000000        -5.721800258841611E-021
  -66.0500000000000        -2.500235247092039E-019
  -65.8600000000000        -4.217366816519140E-019
  -65.6700000000000        -4.743169661438180E-019
  -65.4800000000000        -3.954965767028409E-019
  -65.2900000000000        -2.106842513516278E-019
  -65.1000000000000         2.449697610551519E-020
  -64.9100000000000         2.403721762165025E-019
  -64.7200000000000         3.734186119536017E-019
  -64.5300000000000         3.846956868828734E-019
  -64.3400000000000         2.711847920751837E-019
  -64.1500000000000         6.674093901423861E-020
  -63.9600000000000        -1.676644667517138E-019
  -63.7700000000000        -3.616295530013739E-019
  -63.5800000000000        -4.558279610154112E-019
  -63.3900000000000        -4.193701529408049E-019
  -63.2000000000000        -2.589504182719300E-019
  -63.0100000000000        -1.710444680608321E-020
  -62.8200000000000         2.399173022664178E-019
  -62.6300000000000         4.411364515151089E-019
  -62.4400000000000         5.311970520737331E-019
  -62.2500000000000         4.862140990966547E-019
  -62.0600000000000         3.205706450736396E-019
  -61.8700000000000         8.271541250540585E-020
  -61.6800000000000        -1.588424495419806E-019
  -61.4900000000000        -3.353333388570082E-019
  -61.3000000000000        -3.976236506436428E-019
  -61.1100000000000        -3.304392326460972E-019
  -60.9200000000000        -1.567500982872947E-019
  -60.7300000000000         6.900360823340218E-020
  -60.5400000000000         2.768984444699361E-019
  -60.3500000000000         4.020676039493527E-019
  -60.1600000000000         4.037905165646799E-019
  -59.9700000000000         2.775543325021851E-019
  -59.7800000000000         5.656530274259237E-020
  -59.5900000000000        -1.977411996543955E-019
  -59.4000000000000        -4.134489586623253E-019
  -59.2100000000000        -5.290208285100510E-019
  -59.0200000000000        -5.112036152062892E-019
  -58.8300000000000        -3.647528514172778E-019
  -58.6400000000000        -1.311261094253774E-019
  -58.4500000000000         1.234856315632658E-019
  -58.2600000000000         3.272978410011336E-019
  -58.0700000000000         4.236583357263413E-019
  -57.8800000000000         3.873278653491000E-019
  -57.6900000000000         2.316070532508404E-019
  -57.5000000000000         4.283657401572682E-021
  -57.3100000000000        -2.263830905366698E-019
  -57.1200000000000        -3.915588430058574E-019
  -56.9300000000000        -4.418492508687820E-019
  -56.7400000000000        -3.616420097801404E-019
  -56.5500000000000        -1.736095039951850E-019
  -56.3600000000000         6.796157863919355E-020
  -56.1700000000000         2.930975709098417E-019
  -55.9800000000000         4.366754644060115E-019
  -55.7900000000000         4.575370008027178E-019
  -55.6000000000000         3.505477877134253E-019
  -55.4100000000000         1.480598696344579E-019
  -55.2200000000000        -8.962124365244919E-020
  -55.0300000000000        -2.919273412416334E-019
  -54.8400000000000        -3.986744848696366E-019
  -54.6500000000000        -3.776486307412721E-019
  -54.4600000000000        -2.340423428412917E-019
  -54.2700000000000        -9.029041752476788E-021
  -54.0800000000000         2.321083131837408E-019
  -53.8900000000000         4.188706116408837E-019
  -53.7000000000000         4.959999924724010E-019
  -53.5100000000000         4.395706303688413E-019
  -53.3200000000000         2.640263048355684E-019
  -53.1300000000000         1.809539407224364E-020
  -52.9400000000000        -2.292502089640863E-019
  -52.7500000000000        -4.087204447692412E-019
  -52.5600000000000        -4.707283397344726E-019
  -52.3700000000000        -3.996938182068014E-019
  -52.1800000000000        -2.184810940322797E-019
  -51.9900000000000         1.831843859475938E-020
  -51.8000000000000         2.403159347150619E-019
  -51.6100000000000         3.818527092444134E-019
  -51.4200000000000         4.011647572464229E-019
  -51.2300000000000         2.926003467650145E-019
  -51.0400000000000         8.831293191699815E-020
  -50.8500000000000        -1.510830537727730E-019
  -50.6600000000000        -3.541754239636398E-019
  -50.4700000000000        -4.595830977724010E-019
  -50.2800000000000        -4.338846757876570E-019
  -50.0900000000000        -2.814504779492083E-019
  -49.9000000000000        -4.335204126842652E-020
  -49.7100000000000         2.143186710812682E-019
  -49.5200000000000         4.193543930124504E-019
  -49.3300000000000         5.141365789863184E-019
  -49.1400000000000         4.721929028802142E-019
  -48.9500000000000         3.058277382201736E-019
  -48.7600000000000         6.258619404517036E-020
  -48.5700000000000        -1.884690050882126E-019
  -48.3800000000000        -3.767142433283992E-019
  -48.1900000000000        -4.503591624979977E-019
  -48.0000000000000        -3.913388051015710E-019
  -47.8100000000000        -2.203733581810728E-019
  -47.6200000000000         9.255562468774432E-021
  -47.4300000000000         2.273732163084725E-019
  -47.2400000000000         3.674529082245022E-019
  -47.0500000000000         3.860675115751954E-019
  -46.8600000000000         2.756220222283880E-019
  -46.6700000000000         6.668365513221699E-020
  -46.4800000000000        -1.807739708127776E-019
  -46.2900000000000        -3.946932068909612E-019
  -46.1000000000000        -5.118129213357534E-019
  -45.9100000000000        -4.960495640121614E-019
  -45.7200000000000        -3.490322553399404E-019
  -45.5300000000000        -1.097258733641835E-019
  -45.3400000000000         1.567374706794113E-019
  -45.1500000000000         3.777527109625670E-019
  -44.9600000000000         4.940267337589228E-019
  -44.7700000000000         4.764504926247084E-019
  -44.5800000000000         3.342209150493483E-019
  -44.3900000000000         1.119104493183645E-019
  -44.2000000000000        -1.236438417240420E-019
  -44.0100000000000        -3.028374044509437E-019
  -43.8200000000000        -3.735388818830940E-019
  -43.6300000000000        -3.161962435434861E-019
  -43.4400000000000        -1.494043538861301E-019
  -43.2500000000000         7.568832195885423E-020
  -43.0600000000000         2.904789068890374E-019
  -42.8700000000000         4.290709590933576E-019
  -42.6800000000000         4.475888255527950E-019
  -42.4900000000000         3.370214226414221E-019
  -42.3000000000000         1.258946779684580E-019
  -42.1100000000000        -1.279511581623269E-019
  -41.9200000000000        -3.540487275128114E-019
  -41.7300000000000        -4.896008394072907E-019
  -41.5400000000000        -4.975211825333186E-019
  -41.3500000000000        -3.770238036766213E-019
  -41.1600000000000        -1.637237369809114E-019
  -40.9700000000000         8.075985715580390E-020
  -40.7800000000000         2.866714425728516E-019
  -40.5900000000000         3.962689405896683E-019
  -40.4000000000000         3.804129840924882E-019
  -40.2100000000000         2.468029162069136E-019
  -40.0200000000000         3.750938668319156E-020
  -39.8300000000000        -1.834376280468438E-019
  -39.6400000000000        -3.487830673735350E-019
  -39.4500000000000        -4.076787499814874E-019
  -39.2600000000000        -3.405410958991659E-019
  -39.0700000000000        -1.648307328720282E-019
  -38.8800000000000         6.994201489900669E-020
  -38.6900000000000         2.965609078093618E-019
  -38.5000000000000         4.496372260048106E-019
  -38.3100000000000         4.846399584517168E-019
  -38.1200000000000         3.908705214511274E-019
  -37.9300000000000         1.946103987787856E-019
  -37.7400000000000        -4.844805431247551E-020
  -37.5500000000000        -2.692624625987880E-019
  -37.3600000000000        -4.053339630968482E-019
  -37.1700000000000        -4.187046681742933E-019
  -36.9800000000000        -3.068988331723091E-019
  -36.7900000000000        -1.036711239726716E-019
  -36.6000000000000         1.306713174610171E-019
  -36.4100000000000         3.266326618405984E-019
  -36.2200000000000         4.256215702424119E-019
  -36.0300000000000         3.969892934152722E-019
  -35.8400000000000         2.470528155347103E-019
  -35.6500000000000         1.742544470647763E-020
  -35.4600000000000        -2.269186450558209E-019
  -35.2700000000000        -4.164065170254029E-019
  -35.0800000000000        -4.970024981430319E-019
  -34.8900000000000        -4.458590497308550E-019
  -34.7000000000000        -2.779370723363539E-019
  -34.5100000000000        -4.167946492599287E-020
  -34.3200000000000         1.950119450073062E-019
  -34.1300000000000         3.644510564504850E-019
  -33.9400000000000         4.188114710167368E-019
  -33.7500000000000         3.440444749120757E-019
  -33.5600000000000         1.640087265764981E-019
  -33.3700000000000        -6.642301005153627E-020
  -33.1800000000000        -2.773095771107363E-019
  -32.9900000000000        -4.040282660709480E-019
  -32.8000000000000        -4.061909392796284E-019
  -32.6100000000000        -2.795947774789991E-019
  -32.4200000000000        -5.772159744522494E-020
  -32.2300000000000         1.976864122237948E-019
  -32.0400000000000         4.142955733597547E-019
  -31.8500000000000         5.300249218876857E-019
  -31.6600000000000         5.110482817671665E-019
  -31.4700000000000         3.617135261871071E-019
  -31.2800000000000         1.234405044558893E-019
  -31.0900000000000        -1.371541161792298E-019
  -30.9000000000000        -3.474993873825651E-019
  -30.7100000000000        -4.500792588854104E-019
  -30.5200000000000        -4.190524008101443E-019
  -30.3300000000000        -2.676070512054024E-019
  -30.1400000000000        -4.391418839358150E-020
  -29.9500000000000         1.830993533258713E-019
  -29.7600000000000         3.439731326843423E-019
  -29.5700000000000         3.890370396361252E-019
  -29.3800000000000         3.029496193254862E-019
  -29.1900000000000         1.092513230294280E-019
  -29.0000000000000        -1.363896091639299E-019
  -28.8100000000000        -3.623034561735897E-019
  -28.6200000000000        -5.016615194937094E-019
  -28.4300000000000        -5.119817887171697E-019
  -28.2400000000000        -3.876021216941252E-019
  -28.0500000000000        -1.614589470402332E-019
  -27.8600000000000         1.043678977171875E-019
  -27.6700000000000         3.365932199583070E-019
  -27.4800000000000         4.719102057054293E-019
  -27.2900000000000         4.752345550498432E-019
  -27.1000000000000         3.496932755279396E-019
  -26.9100000000000         1.354671526335855E-019
  -26.7200000000000        -1.021459671562192E-019
  -26.5300000000000        -2.919423484825156E-019
  -26.3400000000000        -3.776806545397653E-019
  -26.1500000000000        -3.345104563331055E-019
  -25.9600000000000        -1.761630246759548E-019
  -25.7700000000000         4.918500519216468E-020
  -25.5800000000000         2.731373814380374E-019
  -25.3900000000000         4.271967395979200E-019
  -25.2000000000000         4.628722585695877E-019
  -25.0100000000000         3.659181471483926E-019
  -24.8200000000000         1.605989924701799E-019
  -24.6300000000000        -9.721073582203714E-020
  -24.4400000000000        -3.360739270366647E-019
  -24.2500000000000        -4.895521844458474E-019
  -24.0600000000000        -5.153511249481270E-019
  -23.8700000000000        -4.075071207214170E-019
  -23.6800000000000        -1.980594984520414E-019
  -23.4900000000000         5.230770067251801E-020
  -23.3000000000000         2.719469275097423E-019
  -23.1100000000000         3.990881754093771E-019
  -22.9200000000000         3.997344629125387E-019
  -22.7300000000000         2.773748216050463E-019
  -22.5400000000000         7.169888741608164E-020
  -22.3500000000000        -1.532617407818010E-019
  -22.1600000000000        -3.280495402306157E-019
  -21.9700000000000        -3.982075589125260E-019
  -21.7800000000000        -3.402748337289705E-019
  -21.5900000000000        -1.687326227187390E-019
  -21.4000000000000         6.808791826271609E-020
  -21.2100000000000         3.019493145081012E-019
  -21.0200000000000         4.644786513275234E-019
  -20.8300000000000         5.070463534535359E-019
  -20.6400000000000         4.149830443729903E-019
  -20.4500000000000         2.119969444298000E-019
  -20.2600000000000        -4.649948928111311E-020
  -20.0700000000000        -2.892237897516404E-019
  -19.8800000000000        -4.494393310391963E-019
  -19.6900000000000        -4.840618111224220E-019
  -19.5000000000000        -3.859540524531009E-019
  -19.3100000000000        -1.858676040442225E-019
  -19.1200000000000         5.653821269713233E-020
  -18.9300000000000         2.700201112500827E-019
  -18.7400000000000         3.924096960910055E-019
  -18.5500000000000         3.886108493268766E-019
  -18.3600000000000         2.607006984905135E-019
  -18.1700000000000         4.719953899032793E-020
  -17.9800000000000        -1.882595290885881E-019
  -17.7900000000000        -3.755332884227511E-019
  -17.6000000000000        -4.584050791959974E-019
  -17.4100000000000        -4.109163940601821E-019
  -17.2200000000000        -2.448900908998792E-019
  -17.0300000000000        -6.517885281726005E-021
  -16.8400000000000         2.369666009357052E-019
  -16.6500000000000         4.166824053905138E-019
  -16.4600000000000         4.819941282214791E-019
  -16.2700000000000         4.151836564947910E-019
  -16.0800000000000         2.366490417524824E-019
  -15.8900000000000        -9.234749642045044E-022
  -15.7000000000000        -2.277814853163207E-019
  -15.5100000000000        -3.773341358317847E-019
  -15.3200000000000        -4.055078882843865E-019
  -15.1300000000000        -3.035930313603712E-019
  -14.9400000000000        -1.008414076021709E-019
  -14.7500000000000         1.439393472413545E-019
  -14.5600000000000         3.593549844933819E-019
  -14.3700000000000         4.820399825371418E-019
  -14.1800000000000         4.749559947824726E-019
  -13.9900000000000         3.380889834531423E-019
  -13.8000000000000         1.084595828355972E-019
  -13.6100000000000        -1.505506174144009E-019
  -13.4200000000000        -3.674613112913600E-019
  -13.2300000000000        -4.832490799425473E-019
  -13.0400000000000        -4.682420118225297E-019
  -12.8500000000000        -3.304741977145724E-019
  -12.6600000000000        -1.131132755647403E-019
  -12.4700000000000         1.182492455292998E-019
  -12.2800000000000         2.947287650397089E-019
  -12.0900000000000         3.641576807066914E-019
  -11.9000000000000         3.062112443944058E-019
  -11.7100000000000         1.382975625325030E-019
  -11.5200000000000        -8.950215638594624E-020
  -11.3300000000000        -3.090160848610650E-019
  -11.1400000000000        -4.538906271066739E-019
  -10.9500000000000        -4.790403716833423E-019
  -10.7600000000000        -3.739417998238683E-019
  -10.5700000000000        -1.658473353255413E-019
  -10.3800000000000         8.804684670163482E-020
  -10.1900000000000         3.171863009597154E-019
  -10.0000000000000         4.581299306002623E-019
  -9.81000000000000         4.729223951791311E-019
  -9.62000000000000         3.600285905382123E-019
  -9.42999999999999         1.546827378683453E-019
  -9.23999999999999        -8.141517659274732E-020
  -9.05000000000000        -2.780498192248610E-019
  -8.86000000000000        -3.768946201992665E-019
  -8.67000000000000        -3.484812855709333E-019
  -8.48000000000000        -2.008247165538035E-019
  -8.28999999999999         2.282233987660933E-020
  -8.09999999999999         2.564733223265288E-019
  -7.91000000000000         4.305652834575065E-019
  -7.72000000000000         4.922058254058241E-019
  -7.53000000000000         4.206156163122216E-019
  -7.34000000000000         2.332701311992559E-019
  -7.15000000000001        -1.904661032507459E-020
  -6.95999999999999        -2.668401005488253E-019
  -6.77000000000000        -4.419204426222967E-019
  -6.58000000000000        -4.970288831307183E-019
  -6.39000000000000        -4.193724732122449E-019
  -6.20000000000000        -2.341212145673327E-019
  -6.01000000000001         3.149764966698941E-021
  -5.81999999999999         2.228422104782964E-019
  -5.63000000000000         3.617179996201042E-019
  -5.44000000000000         3.813037791240050E-019
  -5.25000000000000         2.789467257271008E-019
  -5.06000000000000         8.833118985262757E-020
  -4.87000000000000        -1.306365616402751E-019
  -4.67999999999999        -3.095737953736373E-019
  -4.48999999999999        -3.918084928541113E-019
  -4.30000000000000        -3.491490993447699E-019
  -4.11000000000000        -1.903802573888016E-019
  -3.92000000000000         4.099495945743165E-020
  -3.73000000000000         2.791578964336825E-019
  -3.53999999999999         4.549789274702102E-019
  -3.34999999999999         5.161343127958290E-019
  -3.16000000000000         4.424667210624983E-019
  -2.97000000000000         2.520623434328916E-019
  -2.78000000000000        -3.773232418378119E-021
  -2.59000000000000        -2.551845686715843E-019
  -2.40000000000001        -4.337933957500832E-019
  -2.20999999999999        -4.922550755688975E-019
  -2.02000000000000        -4.176917193298722E-019
  -1.83000000000000        -2.351529716275842E-019
  -1.64000000000000        -1.501026911058335E-022
  -1.45000000000000         2.175428752599903E-019
  -1.26000000000001         3.541265376324617E-019
  -1.06999999999999         3.702079716968374E-019
 -0.879999999999995         2.621080560138850E-019
 -0.689999999999998         6.278369375368426E-020
 -0.500000000000000        -1.678852440802789E-019
 -0.310000000000002        -3.606102313739955E-019
 -0.120000000000005        -4.569191662896312E-019
  7.000000000000739E-002   -4.262237840015290E-019
  0.260000000000005        -2.747844415921925E-019
  0.450000000000003        -4.398527100301323E-020
  0.640000000000001         2.015693920334752E-019
  0.829999999999998         3.926971836016734E-019
   1.02000000000000         4.756475891693182E-019
   1.21000000000001         4.277033385056566E-019
   1.40000000000001         2.638377229245389E-019
   1.59000000000000         3.245673193306296E-020
   1.78000000000000        -1.985767673337981E-019
   1.97000000000000        -3.615969510974354E-019
   2.16000000000000        -4.087574633125918E-019
   2.34999999999999        -3.259176179700781E-019
   2.54000000000001        -1.367697401680646E-019
   2.73000000000000         1.039650537829301E-019
   2.92000000000000         3.262866367456469E-019
   3.11000000000000         4.650733784789749E-019
   3.30000000000000         4.788644916953754E-019
   3.48999999999999         3.618765574720582E-019
   3.68000000000001         1.457878045135127E-019
   3.87000000000000        -1.092544725803724E-019
   4.06000000000000        -3.318567581212374E-019
   4.25000000000000        -4.599021638793589E-019
   4.44000000000000        -4.584526592053724E-019
   4.63000000000000        -3.298291739706972E-019
   4.82000000000001        -1.129232326678899E-019
   5.01000000000001         1.280726384132926E-019
   5.20000000000000         3.222542387201783E-019
   5.39000000000000         4.125386711284602E-019
   5.58000000000000         3.722089063931578E-019
   5.77000000000000         2.126906106314950E-019
   5.96000000000001        -1.969420447425856E-020
   6.15000000000001        -2.570849956338648E-019
   6.34000000000000        -4.297253561073965E-019
   6.53000000000000        -4.862213567535467E-019