  -105.000000000000        -5.914440769414925E-020
  -104.810000000000        -1.320043403463949E-019
  -104.620000000000        -1.115436810826915E-019
  -104.430000000000        -3.648363397245154E-020
  -104.240000000000         6.976804890043089E-021
  -104.050000000000        -3.199621338911778E-020
  -103.860000000000        -1.206050753189479E-019
  -103.670000000000        -1.745938381599463E-019
  -103.480000000000        -1.398933916938544E-019
  -103.290000000000        -4.555800385268204E-020
  -103.100000000000         2.278662358599954E-020
  -102.910000000000         3.800175230194847E-021
  -102.720000000000        -8.157998090917714E-020
  -102.530000000000        -1.503906506474789E-019
  -102.340000000000        -1.367844925195471E-019
  -102.150000000000        -5.454912535331534E-020
  -101.960000000000         1.652815007707389E-020
  -101.770000000000         7.291372123185797E-021
  -101.580000000000        -7.437919191990898E-020
  -101.390000000000        -1.508463918628739E-019
  -101.200000000000        -1.487812228426279E-019
  -101.010000000000        -6.923459308522085E-020
  -100.820000000000         1.332211649016689E-020
  -100.630000000000         2.210822792369159E-020
  -100.440000000000        -4.866972510510422E-020
  -100.250000000000        -1.283679497604784E-019
  -100.060000000000        -1.375169773660895E-019
  -99.8700000000000        -6.396148597586675E-020
  -99.6800000000000         2.520530250600455E-020
  -99.4900000000000         4.745029305540323E-020
  -99.3000000000000        -1.645399025156652E-020
  -99.1100000000000        -1.039548338302527E-019
  -98.9200000000000        -1.302403366754577E-019
  -98.7300000000000        -6.899887634361054E-020
  -98.5400000000000         2.258045980410304E-020
  -98.3500000000000         5.831898955100901E-020
  -98.1600000000000         5.058652301579872E-021
  -97.9700000000000        -8.593657556842470E-020
  -97.7800000000000        -1.280000799368112E-019
  -97.5900000000000        -8.164096546572501E-020
  -97.4000000000000         8.176580289426860E-021
  -97.2100000000000         5.559988619100411E-020
  -97.0200000000000         1.652420994141526E-020
  -96.8300000000000        -6.882936589416218E-020
  -96.6400000000000        -1.141792018497455E-019
  -96.4500000000000        -6.981105843097378E-020
  -96.2600000000000         2.927811058161769E-020
  -96.0700000000000         9.572839877753792E-020
  -95.8800000000000         7.196615002474827E-020
  -95.6900000000000        -1.602996573857982E-020
  -95.5000000000000        -8.444967662276881E-020
  -95.3100000000000        -7.203472969990121E-020
  -95.1200000000000         1.875659970883169E-021
  -94.9300000000000         5.708122376703035E-020
  -94.7400000000000         3.091256663271141E-020
  -94.5500000000000        -5.999123023790268E-020
  -94.3600000000000        -1.339261529370432E-019
  -94.1700000000000        -1.211748279813715E-019
  -93.9800000000000        -3.052881593985806E-020
  -93.7900000000000         5.830362427717183E-020
  -93.6000000000000         6.945353271563944E-020
  -93.4100000000000         1.757521553064709E-021
  -93.2200000000000        -7.164738802670613E-020
  -93.0300000000000        -7.436449646161324E-020
  -92.8400000000000        -4.491438875263477E-022
  -92.6500000000000         7.957416378763716E-020
  -92.4600000000000         8.610482194419502E-020
  -92.2700000000000         6.950382480508657E-021
  -92.0800000000000        -9.016650931677089E-020
  -91.8900000000000        -1.211981373956607E-019
  -91.7000000000000        -6.492751432530143E-020
  -91.5100000000000         1.777632771807613E-020
  -91.3200000000000         4.287497886853325E-020
  -91.1300000000000        -1.611998703660335E-020
  -90.9400000000000        -1.027071350599629E-019
  -90.7500000000000        -1.314599185926541E-019
  -90.5600000000000        -6.997207155704754E-020
  -90.3700000000000         2.951399881244294E-020
  -90.1800000000000         7.903471611228007E-020
  -89.9900000000000         3.780540090625849E-020
  -89.8000000000000        -4.989439463520550E-020
  -89.6100000000000        -9.779455588635196E-020
  -89.4200000000000        -6.027379421520800E-020
  -89.2300000000000         2.444332666790559E-020
  -89.0400000000000         7.160131481428511E-020
  -88.8500000000000         3.180992079771377E-020
  -88.6600000000000        -6.093178115877408E-020
  -88.4700000000000        -1.211464847788924E-019
  -88.2800000000000        -9.338748527568658E-020
  -88.0900000000000        -5.450515616349290E-021
  -87.9000000000000         5.776374288411772E-020
  -87.7100000000000         3.500155611746887E-020
  -87.5200000000000        -5.297013724178489E-020
  -87.3300000000000        -1.230402285824389E-019
  -87.1400000000000        -1.086921726967244E-019
  -86.9500000000000        -2.297483174749186E-020
  -86.7600000000000         5.440046912586852E-020
  -86.5700000000000         5.334211250120146E-020
  -86.3800000000000        -1.993272638337537E-020
  -86.1900000000000        -8.957997267399357E-020
  -86.0000000000000        -8.372186350728276E-020
  -85.8100000000000        -4.354308293923661E-021
  -85.6200000000000         7.357214069348191E-020
  -85.4300000000000         7.328492966870138E-020
  -85.2400000000000        -1.024261976835475E-020
  -85.0500000000000        -1.045160118037734E-019
  -84.8600000000000        -1.272575990295452E-019
  -84.6700000000000        -6.337355977854915E-020
  -84.4800000000000         2.197037876400567E-020
  -84.2900000000000         4.640967818640800E-020
  -84.1000000000000        -1.079440666325015E-020
  -83.9100000000000        -8.948835641346849E-020
  -83.7200000000000        -1.071839689907807E-019
  -83.5300000000000        -3.926680164954427E-020
  -83.3400000000000         5.599716419426038E-020
  -83.1500000000000         9.181074819651995E-020
  -82.9600000000000         3.494400184232236E-020
  -82.7700000000000        -6.266728397608900E-020
  -82.5800000000000        -1.130924653390863E-019
  -82.3900000000000        -7.557640269272047E-020
  -82.2000000000000         5.600501040479914E-021
  -82.0100000000000         4.464290514580251E-020
  -81.8200000000000        -2.531328293212217E-021
  -81.6300000000000        -9.492281983566344E-020
  -81.4400000000000        -1.444502027843073E-019
  -81.2500000000000        -9.926482730360926E-020
  -81.0600000000000         6.838680525344230E-021
  -80.8700000000000         8.588216328561925E-020
  -80.6800000000000         7.802440952119479E-020
  -80.4900000000000         6.373523743081917E-021
  -80.3000000000000        -4.762734448859990E-020
  -80.1100000000000        -2.418700397038260E-020
  -79.9200000000000         5.631476592018273E-020
  -79.7300000000000         1.123505489883694E-019
  -79.5400000000000         7.965095251993699E-020
  -79.3500000000000        -2.593983935541121E-020
  -79.1600000000000        -1.213799983283500E-019
  -78.9700000000000        -1.331877040137108E-019
  -78.7800000000000        -6.521964611660120E-020
  -78.5900000000000         6.838575337993440E-021
  -78.4000000000000         8.662813649181506E-021
  -78.2100000000000        -6.192753232093257E-020
  -78.0200000000000        -1.340449508622076E-019
  -77.8300000000000        -1.330632609819288E-019
  -77.6400000000000        -5.342106664120196E-020
  -77.4500000000000         3.505811160943884E-020
  -77.2600000000000         5.356213379018969E-020
  -77.0700000000000        -1.012507417607750E-020
  -76.8800000000000        -8.945396222541776E-020
  -76.6900000000000        -1.024274679179192E-019
  -76.5000000000000        -3.013087733663358E-020
  -76.3100000000000         6.458849320648819E-020
  -76.1200000000000         9.631211854333048E-020
  -75.9300000000000         3.784206029086110E-020
  -75.7400000000000        -5.427822194879775E-020
  -75.5500000000000        -9.374957404249671E-020
  -75.3600000000000        -4.652280704384114E-020
  -75.1700000000000         3.738414548644004E-020
  -74.9800000000000         7.260131027650117E-020
  -74.7900000000000         2.103854994775425E-020
  -74.6000000000000        -7.070048804822996E-020
  -74.4100000000000        -1.151110481296854E-019
  -74.2200000000000        -6.718238555122000E-020
  -74.0300000000000         3.210151452918073E-020
  -73.8400000000000         9.375146468831252E-020
  -73.6500000000000         6.431085772692564E-020
  -73.4600000000000        -2.439464224731237E-020
  -73.2700000000000        -8.652778919470524E-020
  -73.0800000000000        -6.458975466936415E-020
  -72.8900000000000         1.576762213346266E-020
  -72.7000000000000         7.069000413536328E-020
  -72.5100000000000         3.882584701585297E-020
  -72.3200000000000        -5.933830798631512E-020
  -72.1300000000000        -1.400537106663389E-019
  -71.9400000000000        -1.349729233488823E-019
  -71.7500000000000        -5.491946299887917E-020
  -71.5600000000000         2.182931955594881E-020
  -71.3700000000000         2.519751368630297E-020
  -71.1800000000000        -3.970441198535783E-020
  -70.9900000000000        -9.845160778397423E-020
  -70.8000000000000        -8.032249133097587E-020
  -70.6100000000000         1.165762249284809E-020
  -70.4200000000000         1.010242307919763E-019
  -70.2300000000000         1.087465359858139E-019
  -70.0400000000000         2.748129487450869E-020
  -69.8500000000000        -7.139214460584329E-020
  -69.6600000000000        -1.047029139120446E-019
  -69.4700000000000        -5.474351693213751E-020
  -69.2800000000000         1.655026047975382E-020
  -69.0900000000000         2.953134408996418E-020
  -68.9000000000000        -3.487849925748144E-020
  -68.7100000000000        -1.158285501544853E-019
  -68.5200000000000        -1.307956939717892E-019
  -68.3300000000000        -5.574018495861243E-020
  -68.1400000000000         4.971959210310810E-020
  -67.9500000000000         9.673479839530949E-020
  -67.7600000000000         4.994339232723612E-020
  -67.5700000000000        -4.005632178455149E-020
  -67.3800000000000        -8.534820451486712E-020
  -67.1900000000000        -4.411364156349542E-020
  -67.0000000000000         4.052093397030249E-020
  -66.8100000000000         8.283282534569307E-020
  -66.6200000000000         3.722463010394145E-020
  -66.4300000000000        -5.776436431471548E-020
  -66.2400000000000        -1.160665575694938E-019
  -66.0500000000000        -8.621780167472581E-020
  -65.8600000000000        -4.439034499741155E-022
  -65.6700000000000         5.631787032102544E-020
  -65.4800000000000         2.790337939980848E-020
  -65.2900000000000        -5.905078112889496E-020
  -65.1000000000000        -1.202984788137507E-019
  -64.9100000000000        -9.441019091807554E-020
  -64.7200000000000        -1.661018810552781E-021
  -64.5300000000000         7.485362925455280E-020
  -64.3400000000000         6.793803598107519E-020
  -64.1500000000000        -1.018086311693179E-020
  -63.9600000000000        -8.013059035972234E-020
  -63.7700000000000        -7.172832930015495E-020
  -63.5800000000000         8.613802036487933E-021
  -63.3900000000000         8.387450784449631E-020
  -63.2000000000000         8.004742793991004E-020
  -63.0100000000000        -2.997485581004638E-021
  -62.8200000000000        -9.110958654932322E-020
  -62.6300000000000        -1.063020046376854E-019
  -62.4400000000000        -4.081720332584272E-020
  -62.2500000000000         3.593990123079433E-020
  -62.0600000000000         4.435587190725145E-020
  -61.8700000000000        -2.842281872587778E-020
  -61.6800000000000        -1.151528927915092E-019
  -61.4900000000000        -1.318143911065274E-019
  -61.3000000000000        -5.746035280921187E-020
  -61.1100000000000         4.532596969331732E-020
  -60.9200000000000         8.876589627347498E-020
  -60.7300000000000         4.156396452197582E-020
  -60.5400000000000        -4.349761619326224E-020
  -60.3500000000000        -8.179643212275823E-020
  -60.1600000000000        -3.857336387209058E-020
  -59.9700000000000         3.822189989713561E-020
  -59.7800000000000         6.528018521755813E-020
  -59.5900000000000         5.829039161869831E-021
  -59.4000000000000        -9.275226410353495E-020
  -59.2100000000000        -1.420642693511945E-019
  -59.0200000000000        -9.579298978264609E-020
  -58.8300000000000         6.286168348519697E-021
  -58.6400000000000         7.538944023997960E-020
  -58.4500000000000         5.673044057268032E-020
  -58.2600000000000        -2.041638501483592E-020
  -58.0700000000000        -7.295257534321116E-020
  -57.8800000000000        -4.511873345576852E-020
  -57.6900000000000         3.734595447832595E-020
  -57.5000000000000         9.190263209069388E-020
  -57.3100000000000         5.902100528312231E-020
  -57.1200000000000        -3.942006391190137E-020
  -56.9300000000000        -1.192928779750040E-019
  -56.7400000000000        -1.130756339866684E-019
  -56.5500000000000        -3.337800247901454E-020
  -56.3600000000000         3.956403186616218E-020
  -56.1700000000000         3.469741741487851E-020
  -55.9800000000000        -4.193386237998934E-020
  -55.7900000000000        -1.129874994035292E-019
  -55.6000000000000        -1.038333201263171E-019
  -55.4100000000000        -1.423456375514891E-020
  -55.2200000000000         8.058724469502122E-020
  -55.0300000000000         1.005344220888871E-019
  -54.8400000000000         3.571047189871783E-020
  -54.6500000000000        -4.538774282845347E-020
  -54.4600000000000        -6.213372601072661E-020
  -54.2700000000000         9.728192465086949E-022
  -54.0800000000000         7.987199241341863E-020
  -53.8900000000000         9.291628060314345E-020
  -53.7000000000000         1.976776632616052E-020
  -53.5100000000000        -7.830822998266205E-020
  -53.3200000000000        -1.162091546490211E-019
  -53.1300000000000        -6.574083589019587E-020
  -52.9400000000000         1.772608815957222E-020
  -52.7500000000000         4.824049036458455E-020
  -52.5600000000000        -8.559133400938681E-021
  -52.3700000000000        -1.024740070316465E-019
  -52.1800000000000        -1.463885513279742E-019
  -51.9900000000000        -9.896749273257822E-020
  -51.8000000000000        -3.522199347193714E-021
  -51.6100000000000         5.379380954144017E-020
  -51.4200000000000         2.624211036863262E-020
  -51.2300000000000        -4.953696961347273E-020
  -51.0400000000000        -8.991087568671550E-020
  -50.8500000000000        -4.608783128299048E-020
  -50.6600000000000         4.724390586263750E-020
  -50.4700000000000         1.035703254496578E-019
  -50.2800000000000         6.673796926291158E-020
  -50.0900000000000        -3.467053119516582E-020
  -49.9000000000000        -1.128428397314767E-019
  -49.7100000000000        -1.022030561599584E-019
  -49.5200000000000        -1.970522512862198E-020
  -49.3300000000000         5.301046322496938E-020
  -49.1400000000000         4.824575727866455E-020
  -48.9500000000000        -2.346525244678812E-020
  -48.7600000000000        -8.465676271082414E-020
  -48.5700000000000        -6.671137863954758E-020
  -48.3800000000000         2.268214476827845E-020
  -48.1900000000000         1.051790566347821E-019
  -48.0000000000000         1.053785359767404E-019
  -47.8100000000000         2.228011828087027E-020
  -47.6200000000000        -6.953959499099925E-020
  -47.4300000000000        -9.028158756858047E-020
  -47.2400000000000        -2.992051831720082E-020
  -47.0500000000000         4.351824943680490E-020
  -46.8600000000000         5.013061761870060E-020
  -46.6700000000000        -2.459030636648412E-020
  -46.4800000000000        -1.152375363130957E-019
  -46.2900000000000        -1.385116678170591E-019
  -46.1000000000000        -7.245721172437408E-020
  -45.9100000000000         2.271035434509948E-020
  -45.7200000000000         6.196304060008337E-020
  -45.5300000000000         1.615720184997849E-020
  -45.3400000000000        -6.104133260374562E-020
  -45.1500000000000        -8.570649921957865E-020
  -44.9600000000000        -2.528913611591536E-020
  -44.7700000000000         6.898917884587065E-020
  -44.5800000000000         1.102345014047678E-019
  -44.3900000000000         5.868604736588800E-020
  -44.2000000000000        -3.981560595342395E-020
  -44.0100000000000        -9.655139624049354E-020
  -43.8200000000000        -6.337816414177127E-020
  -43.6300000000000         2.237227113616351E-020
  -43.4400000000000         7.419671734551077E-020
  -43.2500000000000         3.923603752887857E-020
  -43.0600000000000        -5.140862154247899E-020
  -42.8700000000000        -1.127394178053089E-019
  -42.6800000000000        -8.733632455808050E-020
  -42.4900000000000        -2.546149648329160E-022
  -42.3000000000000         6.507030019646122E-020
  -42.1100000000000         4.679610748685082E-020
  -41.9200000000000        -3.596273750120133E-020
  -41.7300000000000        -1.012518190444867E-019
  -41.5400000000000        -8.277706984197871E-020
  -41.3500000000000         6.128564123392989E-021
  -41.1600000000000         8.429606025488943E-020
  -40.9700000000000         7.919039098883069E-020
  -40.7800000000000        -4.767185792064154E-021
  -40.5900000000000        -9.097753898179294E-020
  -40.4000000000000        -1.036955854029502E-019
  -40.2100000000000        -3.950112888323843E-020
  -40.0200000000000         3.089110602241834E-020
  -39.8300000000000         3.194235135338760E-020
  -39.6400000000000        -4.285075058221952E-020
  -39.4500000000000        -1.235520544720746E-019
  -39.2600000000000        -1.302441819231885E-019
  -39.0700000000000        -4.990215487286844E-020
  -38.8800000000000         4.995685411736920E-020
  -38.6900000000000         8.422363768015079E-020
  -38.5000000000000         3.004160551855224E-020
  -38.3100000000000        -5.235748183325723E-020
  -38.1200000000000        -7.765873107384246E-020
  -37.9300000000000        -1.711124661675233E-020
  -37.7400000000000         7.396330363081693E-020
  -37.5500000000000         1.090175312761835E-019
  -37.3600000000000         5.302039633176079E-020
  -37.1700000000000        -4.388013408687477E-020
  -36.9800000000000        -9.381936952783914E-020
  -36.7900000000000        -5.443790465886560E-020
  -36.6000000000000         3.146566974631637E-020
  -36.4100000000000         7.750697538192892E-020
  -36.2200000000000         3.671872729540925E-020
  -36.0300000000000        -5.328647811487728E-020
  -35.8400000000000        -1.061379669649162E-019
  -35.6500000000000        -6.929935154047039E-020
  -35.4600000000000         2.547376760880344E-020
  -35.2700000000000         9.195468148774286E-020
  -35.0800000000000         7.099327767727636E-020
  -34.8900000000000        -1.397594163012327E-020
  -34.7000000000000        -8.014895491081805E-020
  -34.5100000000000        -6.481344379304341E-020
  -34.3200000000000         1.495151797793490E-020
  -34.1300000000000         7.930383720586865E-020
  -33.9400000000000         6.290286551960813E-020
  -33.7500000000000        -2.179306496964823E-020
  -33.5600000000000        -9.602326217558966E-020
  -33.3700000000000        -9.010537804948616E-020
  -33.1800000000000        -1.049042319044136E-020
  -32.9900000000000         6.584889344780567E-020
  -32.8000000000000         6.460731418812505E-020
  -32.6100000000000        -1.482519494041636E-020
  -32.4200000000000        -9.841956741210645E-020
  -32.2300000000000        -1.078510330814316E-019
  -32.0400000000000        -3.518475276310512E-020
  -31.8500000000000         4.942037022016383E-020
  -31.6600000000000         6.444916170124274E-020
  -31.4700000000000        -5.443666292052995E-021
  -31.2800000000000        -9.506043620398329E-020
  -31.0900000000000        -1.210787769084976E-019
  -30.9000000000000        -6.166318223926260E-020
  -30.7100000000000         2.272933126209909E-020
  -30.5200000000000         4.733513100204651E-020
  -30.3300000000000        -1.533035029792936E-020
  -30.1400000000000        -1.081861151932944E-019
  -29.9500000000000        -1.428685292609944E-019
  -29.7600000000000        -8.303378550393800E-020
  -29.5700000000000         2.148006853090827E-020
  -29.3800000000000         8.192507002940187E-020
  -29.1900000000000         5.418449606798990E-020
  -29.0000000000000        -2.083527133483981E-020
  -28.8100000000000        -5.805321559872392E-020
  -28.6200000000000        -1.094694894447672E-020
  -28.4300000000000         8.303503742426584E-020
  -28.2400000000000         1.378162386580874E-019
  -28.0500000000000         1.009187831669410E-019
  -27.8600000000000         3.839543819968233E-021
  -27.6700000000000        -6.761047767547114E-020
  -27.4800000000000        -5.461179272375392E-020
  -27.2900000000000         1.937990179781068E-020
  -27.1000000000000         7.208570118699163E-020
  -26.9100000000000         4.209519152877194E-020
  -26.7200000000000        -5.143471437882761E-020
  -26.5300000000000        -1.262732654993613E-019
  -26.3400000000000        -1.152147585004483E-019
  -26.1500000000000        -3.015308316643981E-020
  -25.9600000000000         4.913607443820948E-020
  -25.7700000000000         5.077898406017362E-020
  -25.5800000000000        -2.122545517079489E-020
  -25.3900000000000        -9.167768324832372E-020
  -25.2000000000000        -8.695331514256310E-020
  -25.0100000000000        -6.325384670842813E-021
  -24.8200000000000         7.645752350557919E-020
  -24.6300000000000         8.313005543020609E-020
  -24.4400000000000         5.762238127972307E-021
  -24.2500000000000        -8.503097049481700E-020
  -24.0600000000000        -1.065314912684017E-019
  -23.8700000000000        -4.179608104786589E-020
  -23.6800000000000         4.509546222566944E-020
  -23.4900000000000         7.075207676231013E-020
  -23.3000000000000         1.220453583674620E-020
  -23.1100000000000        -7.135641418464267E-020
  -22.9200000000000        -9.550209899663280E-020
  -22.7300000000000        -3.170782634933612E-020
  -22.5400000000000         6.487950146915902E-020
  -22.3500000000000         1.075810357544524E-019
  -22.1600000000000         6.034163516001516E-020
  -21.9700000000000        -2.857391827349941E-020
  -21.7800000000000        -7.336571348616701E-020
  -21.5900000000000        -3.310810238686210E-020
  -21.4000000000000         4.900995601278886E-020
  -21.2100000000000         8.717035230040668E-020
  -21.0200000000000         3.557838856503220E-020
  -20.8300000000000        -6.674031065664973E-020
  -20.6400000000000        -1.319863135918882E-019
  -20.4500000000000        -1.062172406556321E-019
  -20.2600000000000        -1.977266209938558E-020
  -20.0700000000000         4.249451891389656E-020
  -19.8800000000000         2.259997226761209E-020
  -19.6900000000000        -5.534114997084943E-020
  -19.5000000000000        -1.087990038550045E-019
  -19.3100000000000        -7.684583007192231E-020
  -19.1200000000000         2.003369076752941E-020
  -18.9300000000000         9.782721105087507E-020
  -18.7400000000000         8.790518529427145E-020
  -18.5500000000000         1.844181040576893E-021
  -18.3600000000000        -7.964588735097081E-020
  -18.1700000000000        -8.315646063773268E-020
  -17.9800000000000        -1.163417829944899E-020
  -17.7900000000000         5.952790895050568E-020
  -17.6000000000000         5.541209266039205E-020
  -17.4100000000000        -2.613144260039791E-020
  -17.2200000000000        -1.118008735369428E-019
  -17.0300000000000        -1.222848015211743E-019
  -16.8400000000000        -4.747558725765628E-020
  -16.6500000000000         4.430642139086314E-020
  -16.4600000000000         7.166741135787477E-020
  -16.2700000000000         1.748597113695169E-020
  -16.0800000000000        -5.557173326843503E-020
  -15.8900000000000        -6.603884196538935E-020
  -15.7000000000000         7.209186529820772E-021
  -15.5100000000000         1.033686602879484E-019
  -15.3200000000000         1.365038751340289E-019
  -15.1300000000000         7.664541766225078E-020
  -14.9400000000000        -2.218789367992998E-020
  -14.7500000000000        -7.367968644883518E-020
  -14.5600000000000        -4.106451018147271E-020
  -14.3700000000000         2.909052536699201E-020
  -14.1800000000000         5.327382034601399E-020
  -13.9900000000000        -7.003220936538809E-021
  -13.8000000000000        -1.063295559093774E-019
  -13.6100000000000        -1.572047555514996E-019
  -13.4200000000000        -1.129369354517720E-019
  -13.2300000000000        -1.245171538816134E-020
  -13.0400000000000         5.601608836355012E-020
  -12.8500000000000         3.792005922521433E-020
  -12.6600000000000        -3.693686211170321E-020
  -12.4700000000000        -8.422414900841096E-020
  -12.2800000000000        -4.681241789815951E-020
  -12.0900000000000         4.957789216847155E-020
  -11.9000000000000         1.199555484858515E-019
  -11.7100000000000         1.005342346095389E-019
  -11.5200000000000         9.445635353017080E-021
  -11.3300000000000        -7.023732918340516E-020
  -11.1400000000000        -6.899984867802145E-020
  -10.9500000000000         3.925277881319052E-021
  -10.7600000000000         7.066831058495216E-020
  -10.5700000000000         6.020634768344388E-020
  -10.3800000000000        -2.296781457144861E-020
  -10.1900000000000        -1.025699902579765E-019
  -10.0000000000000        -1.031479147529920E-019
  -9.81000000000000        -2.232172828837668E-020
  -9.62000000000000         6.638209871491844E-020
  -9.42999999999999         8.288200604419645E-020
  -9.23999999999999         1.590017604760366E-020
  -9.05000000000000        -6.746172225700830E-020
  -8.86000000000000        -8.672381459363605E-020
  -8.67000000000000        -2.524261639156715E-020
  -8.48000000000000         5.413775669120377E-020
  -8.28999999999999         6.981805400998841E-020
  -8.09999999999999         3.703782853969835E-022
  -7.91000000000000        -9.398891618903933E-020
  -7.72000000000000        -1.281511380886035E-019
  -7.53000000000000        -7.296542833302585E-020
  -7.34000000000000         1.712212064573872E-020
  -7.15000000000001         5.612166471041761E-020
  -6.95999999999999         8.585023116292706E-021
  -6.77000000000000        -7.659321358231015E-020
  -6.58000000000000        -1.129406723740175E-019
  -6.39000000000000        -5.923444432607925E-020
  -6.20000000000000         4.058226976359215E-020
  -6.01000000000001         9.858952133823280E-020
  -5.81999999999999         6.600411050948392E-020
  -5.63000000000000        -2.107284673437221E-020
  -5.44000000000000        -7.686636761972141E-020
  -5.25000000000000        -4.829288399772799E-020
  -5.06000000000000         3.430510804589621E-020
  -4.87000000000000         8.652029898146805E-020
  -4.67999999999999         5.130744847070306E-020
  -4.48999999999999        -4.528813598733442E-020
  -4.30000000000000        -1.174861251258554E-019
  -4.11000000000000        -1.002185645325818E-019
  -3.92000000000000        -1.013039703916633E-020
  -3.73000000000000         7.088977083981315E-020
  -3.53999999999999         7.371041629230942E-020
  -3.34999999999999         6.957817510194824E-021
  -3.16000000000000        -5.280396013344221E-020
  -2.97000000000000        -3.595965394889031E-020
  -2.78000000000000         5.199680257277053E-020
  -2.59000000000000         1.343392376722463E-019
  -2.40000000000001         1.355502008347295E-019
  -2.20999999999999         5.324112993145938E-020
  -2.02000000000000        -3.925306005767821E-020
  -1.83000000000000        -6.225232993382135E-020
  -1.64000000000000        -4.919868699442953E-021
  -1.45000000000000         6.544748460654278E-020
  -1.26000000000001         6.877994250671404E-020
  -1.06999999999999        -1.021528694783482E-020
 -0.879999999999995        -1.063944644393996E-019
 -0.689999999999998        -1.355107473780797E-019
 -0.500000000000000        -7.417129030361578E-020
 -0.310000000000002         1.787018406648635E-020
 -0.120000000000005         5.441033918245880E-020
  7.000000000000739E-002    4.365629170925666E-021
  0.260000000000005        -7.957705344636197E-020
  0.450000000000003        -1.123218957458400E-019
  0.640000000000001        -5.844152718391958E-020
  0.829999999999998         3.347419516689550E-020
   1.02000000000000         7.700264235132640E-020
   1.21000000000001         3.056842075549136E-020
   1.40000000000001        -6.232483997312584E-020
   1.59000000000000        -1.138625124368994E-019
   1.78000000000000        -7.492569847600599E-020
   1.97000000000000         1.876357445994575E-020
   2.16000000000000         8.118596106266335E-020
   2.34999999999999         5.805462059014902E-020
   2.54000000000001        -2.197929863733428E-020
   2.73000000000000        -7.560560547249580E-020
   2.92000000000000        -4.535983532996310E-020
   3.11000000000000         4.475335646349708E-020
   3.30000000000000         1.118596613426468E-019
   3.48999999999999         9.349801016951782E-020
   3.68000000000001         7.612498866100473E-021
   3.87000000000000        -6.437258078437674E-020
   4.06000000000000        -5.535823833298535E-020
   4.25000000000000         2.310413006727853E-020
   4.44000000000000         9.152386067209087E-020
   4.63000000000000         7.820944613908972E-020
   4.82000000000001        -1.203724699245905E-020
   5.01000000000001        -1.018024887027491E-019
   5.20000000000000        -1.139779033736283E-019
   5.39000000000000        -4.428183220413273E-020
   5.58000000000000         3.572009810284216E-020
   5.77000000000000         4.779269250734305E-020
   5.96000000000001        -1.783932189730691E-020
   6.15000000000001        -9.321724953299865E-020
   6.34000000000000        -9.810360564498109E-020
   6.53000000000000        -1.773751811293482E-020