  -105.000000000000         4.383911184085411E-020
  -104.810000000000         1.208833894059715E-019
  -104.620000000000         1.696002908234961E-019
  -104.430000000000         1.808287765821248E-019
  -104.240000000000         1.558764784383997E-019
  -104.050000000000         1.060381653644234E-019
  -103.860000000000         4.924077625180498E-020
  -103.670000000000         4.790742542048329E-021
  -103.480000000000        -1.224898310624962E-020
  -103.290000000000         4.581760279713814E-021
  -103.100000000000         5.130795973799517E-020
  -102.910000000000         1.147386977536098E-019
  -102.720000000000         1.763743477174584E-019
  -102.530000000000         2.178596069012064E-019
  -102.340000000000         2.263961627009657E-019
  -102.150000000000         1.985436793960462E-019
  -101.960000000000         1.413048176635013E-019
  -101.770000000000         7.017493245121279E-020
  -101.580000000000         4.715852913951437E-021
  -101.390000000000        -3.706661325384185E-020
  -101.200000000000        -4.390988562817201E-020
  -101.010000000000        -1.453723014657804E-020
  -100.820000000000         4.198913128871773E-020
  -100.630000000000         1.089070099259921E-019
  -100.440000000000         1.666160738696984E-019
  -100.250000000000         1.983486293674758E-019
  -100.060000000000         1.950051311843517E-019
  -99.8700000000000         1.577573716989719E-019
  -99.6800000000000         9.767143191530592E-020
  -99.4900000000000         3.246426030363399E-020
  -99.3000000000000        -1.866514038950456E-020
  -99.1100000000000        -4.063238553594943E-020
  -98.9200000000000        -2.686863604347897E-020
  -98.7300000000000         1.875421368800776E-020
  -98.5400000000000         8.303647371860315E-020
  -98.3500000000000         1.472795357867282E-019
  -98.1600000000000         1.927161881269213E-019
  -97.9700000000000         2.059611998181613E-019
  -97.7800000000000         1.828968081289140E-019
  -97.5900000000000         1.298657183256908E-019
  -97.4000000000000         6.182834612771588E-020
  -97.2100000000000        -1.978368771469201E-021
  -97.0200000000000        -4.362071180451503E-020
  -96.8300000000000        -5.166864164437751E-020
  -96.6400000000000        -2.450771712028020E-020
  -96.4500000000000         2.920126101905234E-020
  -96.2600000000000         9.305147127061757E-020
  -96.0700000000000         1.476746184245358E-019
  -95.8800000000000         1.763886066754644E-019
  -95.6900000000000         1.700633572629681E-019
  -95.5000000000000         1.297881617341419E-019
  -95.3100000000000         6.656594269056371E-020
  -95.1200000000000        -1.874481614838353E-021
  -94.9300000000000        -5.622120638150989E-020
  -94.7400000000000        -8.118553217559865E-020
  -94.5500000000000        -6.994695308010086E-020
  -94.3600000000000        -2.614699796677271E-020
  -94.1700000000000         3.715055622357091E-020
  -93.9800000000000         1.012376429820227E-019
  -93.7900000000000         1.471864750235996E-019
  -93.6000000000000         1.613467541550492E-019
  -93.4100000000000         1.393164857507632E-019
  -93.2200000000000         8.723015570374267E-020
  -93.0300000000000         1.998968256753084E-020
  -92.8400000000000        -4.304665578080585E-020
  -92.6500000000000        -8.366570523258670E-020
  -92.4600000000000        -9.006978280771034E-020
  -92.2700000000000        -6.029436906907811E-020
  -92.0800000000000        -2.788750074157563E-021
  -91.8900000000000         6.600696992524691E-020
  -91.7000000000000         1.263903100693295E-019
  -91.5100000000000         1.610664714193814E-019
  -91.3200000000000         1.601209605731980E-019
  -91.1300000000000         1.238537347304095E-019
  -90.9400000000000         6.265206598297442E-020
  -90.7500000000000        -6.059875979937892E-021
  -90.5600000000000        -6.290514514106942E-020
  -90.3700000000000        -9.219039873854158E-020
  -90.1800000000000        -8.645453716363544E-020
  -89.9900000000000        -4.860924726778973E-020
  -89.8000000000000         8.946988564852615E-021
  -89.6100000000000         6.798145709505119E-020
  -89.4200000000000         1.097852146496721E-019
  -89.2300000000000         1.206808464769919E-019
  -89.0400000000000         9.607851774104644E-020
  -88.8500000000000         4.189675882223421E-020
  -88.6600000000000        -2.707240757934397E-020
  -88.4700000000000        -9.138611548262118E-020
  -88.2800000000000        -1.325389830827982E-019
  -88.0900000000000        -1.382968533666698E-019
  -87.9000000000000        -1.062310231105204E-019
  -87.7100000000000        -4.443329062830445E-020
  -87.5200000000000         3.078916562917906E-020
  -87.3300000000000         9.956769975645956E-020
  -87.1400000000000         1.441286809276303E-019
  -86.9500000000000         1.538208803071995E-019
  -86.7600000000000         1.280663869739037E-019
  -86.5700000000000         7.638874563090081E-020
  -86.3800000000000         1.551823737359014E-020
  -86.1900000000000        -3.557732815795578E-020
  -86.0000000000000        -6.128390076367763E-020
  -85.8100000000000        -5.392139264324423E-020
  -85.6200000000000        -1.597756890122720E-020
  -85.4300000000000         4.065075100078850E-020
  -85.2400000000000         9.818026578221649E-020
  -85.0500000000000         1.381944676039480E-019
  -84.8600000000000         1.470947309621847E-019
  -84.6700000000000         1.201625774450705E-019
  -84.4800000000000         6.305060297529779E-020
  -84.2900000000000        -9.736816399971004E-021
  -84.1000000000000        -7.894168123350300E-020
  -83.9100000000000        -1.260494812405253E-019
  -83.7200000000000        -1.385946508731067E-019
  -83.5300000000000        -1.137333305374660E-019
  -83.3400000000000        -5.904212986862249E-020
  -83.1500000000000         9.692048478959525E-021
  -82.9600000000000         7.304916415570500E-020
  -82.7700000000000         1.135889494076206E-019
  -82.5800000000000         1.208690284411175E-019
  -82.3900000000000         9.441400034891965E-020
  -82.2000000000000         4.377853847163545E-020
  -82.0100000000000        -1.430947855582321E-020
  -81.8200000000000        -6.089428059018209E-020
  -81.6300000000000        -8.038878842405115E-020
  -81.4400000000000        -6.519415469132220E-020
  -81.2500000000000        -1.799451256458200E-020
  -81.0600000000000         4.894710463339163E-020
  -80.8700000000000         1.172927945031149E-019
  -80.6800000000000         1.679175648411527E-019
  -80.4900000000000         1.864437450855784E-019
  -80.3000000000000         1.674138621235392E-019
  -80.1100000000000         1.158916663373351E-019
  -79.9200000000000         4.602859873849945E-020
  -79.7300000000000        -2.298852934806295E-020
  -79.5400000000000        -7.243697942474972E-020
  -79.3500000000000        -8.941578707770711E-020
  -79.1600000000000        -7.051312103884206E-020
  -78.9700000000000        -2.272144999553605E-020
  -78.7800000000000         3.866579585449265E-020
  -78.5900000000000         9.456569017613242E-020
  -78.4000000000000         1.277121944059889E-019
  -78.2100000000000         1.277231882589704E-019
  -78.0200000000000         9.415084682864887E-020
  -77.8300000000000         3.662686409581459E-020
  -77.6400000000000        -2.793945705171562E-020
  -77.4500000000000        -8.029626630013477E-020
  -77.2600000000000        -1.044860394493166E-019
  -77.0700000000000        -9.255000113944178E-020
  -76.8800000000000        -4.693282951247522E-020
  -76.6900000000000         2.011981622054525E-020
  -76.5000000000000         9.001257216445958E-020
  -76.3100000000000         1.431165191173111E-019
  -76.1200000000000         1.644196143502038E-019
  -75.9300000000000         1.478750989751760E-019
  -75.7400000000000         9.818228613639014E-020
  -75.5500000000000         2.947649569354727E-020
  -75.3600000000000        -3.869762600667968E-020
  -75.1700000000000        -8.696686463973793E-020
  -74.9800000000000        -1.016538943101407E-019
  -74.7900000000000        -7.865586676640620E-020
  -74.6000000000000        -2.456685243009880E-020
  -74.4100000000000         4.526961265229178E-020
  -74.2200000000000         1.112074132796080E-019
  -74.0300000000000         1.549551496150384E-019
  -73.8400000000000         1.648080685624274E-019
  -73.6500000000000         1.389444497842974E-019
  -73.4600000000000         8.583949335789735E-020
  -73.2700000000000         2.168862361815938E-020
  -73.0800000000000        -3.439785969884246E-020
  -72.8900000000000        -6.602088536377142E-020
  -72.7000000000000        -6.429813555796394E-020
  -72.5100000000000        -3.045220998723116E-020
  -72.3200000000000         2.456727362836988E-020
  -72.1300000000000         8.331447172891492E-020
  -71.9400000000000         1.269910003496092E-019
  -71.7500000000000         1.410076144448400E-019
  -71.5600000000000         1.193448324137781E-019
  -71.3700000000000         6.643714289293197E-020
  -71.1800000000000        -3.979059372382228E-021
  -70.9900000000000        -7.273136744799084E-020
  -70.8000000000000        -1.206769564284753E-019
  -70.6100000000000        -1.341862382277711E-019
  -70.4200000000000        -1.090577274993403E-019
  -70.2300000000000        -5.173471122344649E-020
  -70.0400000000000         2.252219556338013E-020
  -69.8500000000000         9.397363226871812E-020
  -69.6600000000000         1.439983118375924E-019
  -69.4700000000000         1.603383481100239E-019
  -69.2800000000000         1.404884175794251E-019
  -69.0900000000000         9.226012107668822E-020
  -68.9000000000000         3.136818563369095E-020
  -68.7100000000000        -2.325283391455698E-020
  -68.5200000000000        -5.503314087488818E-020
  -68.3300000000000        -5.462244277630058E-020
  -68.1400000000000        -2.259796175136336E-020
  -67.9500000000000         3.076026685818432E-020
  -67.7600000000000         8.855148974486355E-020
  -67.5700000000000         1.322825439027399E-019
  -67.3800000000000         1.473665800996145E-019
  -67.1900000000000         1.274850326049366E-019
  -67.0000000000000         7.654114417162370E-020
  -66.8100000000000         7.635048178750698E-021
  -66.6200000000000        -6.064543782763415E-020
  -66.4300000000000        -1.095459028997984E-019
  -66.2400000000000        -1.255369441170571E-019
  -66.0500000000000        -1.042114389917320E-019
  -65.8600000000000        -5.155412225179172E-020
  -65.6700000000000         1.778676040610646E-020
  -65.4800000000000         8.472366985863162E-020
  -65.2900000000000         1.312222193072065E-019
  -65.1000000000000         1.454673500185769E-019
  -64.9100000000000         1.252062995732447E-019
  -64.7200000000000         7.830298804494238E-020
  -64.5300000000000         2.034814938174465E-020
  -64.3400000000000        -2.997700694343801E-020
  -64.1500000000000        -5.643379020233789E-020
  -63.9600000000000        -5.004307764319716E-020
  -63.7700000000000        -1.177852745415398E-020
  -63.5800000000000         4.765551514079833E-020
  -63.3900000000000         1.109022704531337E-019
  -63.2000000000000         1.589921023877105E-019
  -63.0100000000000         1.768743498994085E-019
  -62.8200000000000         1.578289359021115E-019
  -62.6300000000000         1.054736819195932E-019
  -62.4400000000000         3.278431379237077E-020
  -62.2500000000000        -4.158925861390230E-020
  -62.0600000000000        -9.864573134146456E-020
  -61.8700000000000        -1.244565247486448E-019
  -61.6800000000000        -1.141222344241488E-019
  -61.4900000000000        -7.311293222783914E-020
  -61.3000000000000        -1.559845688722305E-020
  -61.1100000000000         3.975119353425226E-020
  -60.9200000000000         7.527495884097808E-020
  -60.7300000000000         7.953118527811135E-020
  -60.5400000000000         5.068456540579878E-020
  -60.3500000000000        -2.922886360127460E-021
  -60.1600000000000        -6.518509381556737E-020
  -59.9700000000000        -1.169262665492917E-019
  -59.7800000000000        -1.415101432379196E-019
  -59.5900000000000        -1.297342836841787E-019
  -59.4000000000000        -8.258813662431858E-020
  -59.2100000000000        -1.107120018649983E-020
  -59.0200000000000         6.688416905775967E-020
  -58.8300000000000         1.315040526653028E-019
  -58.6400000000000         1.668115507753556E-019
  -58.4500000000000         1.651820424125995E-019
  -58.2600000000000         1.294936657565729E-019
  -58.0700000000000         7.224667835372832E-020
  -57.8800000000000         1.190481365969885E-020
  -57.6900000000000        -3.248139603197712E-020
  -57.5000000000000        -4.681100776748382E-020
  -57.3100000000000        -2.602532659229260E-020
  -57.1200000000000         2.442728797049310E-020
  -56.9300000000000         9.017814816003553E-020
  -56.7400000000000         1.521179382380444E-019
  -56.5500000000000         1.919594727716346E-019
  -56.3600000000000         1.975697401129055E-019
  -56.1700000000000         1.665204251306792E-019
  -55.9800000000000         1.068209701784377E-019
  -55.7900000000000         3.461727032088875E-020
  -55.6000000000000        -3.047637904007126E-020
  -55.4100000000000        -7.105420249447529E-020
  -55.2200000000000        -7.695393612831382E-020
  -55.0300000000000        -4.818802833967333E-020
  -54.8400000000000         5.078580669517920E-021
  -54.6500000000000         6.549873410033191E-020
  -54.4600000000000         1.136049623992041E-019
  -54.2700000000000         1.335020904004114E-019
  -54.0800000000000         1.175438294675710E-019
  -53.8900000000000         6.863392159511824E-020
  -53.7000000000000        -5.264502907018461E-022
  -53.5100000000000        -7.104080156947935E-020
  -53.3200000000000        -1.232353379217643E-019
  -53.1300000000000        -1.423265992354364E-019
  -52.9400000000000        -1.226965285237412E-019
  -52.7500000000000        -6.953670180743125E-020
  -52.5600000000000         2.612586536092757E-021
  -52.3700000000000         7.400388915593160E-020
  -52.1800000000000         1.253084055547088E-019
  -51.9900000000000         1.431060393979322E-019
  -51.8000000000000         1.236629383894793E-019
  -51.6100000000000         7.391420088621192E-020
  -51.4200000000000         9.373414475277440E-021
  -51.2300000000000        -5.042396487097599E-020
  -51.0400000000000        -8.762308661136008E-020
  -50.8500000000000        -9.124434994867500E-020
  -50.6600000000000        -6.036302150540780E-020
  -50.4700000000000        -4.352636445792594E-021
  -50.2800000000000         5.987387298153097E-020
  -50.0900000000000         1.128178148785134E-019
  -49.9000000000000         1.380998379341884E-019
  -49.7100000000000         1.272594643179301E-019
  -49.5200000000000         8.225886719322009E-020
  -49.3300000000000         1.496751534012171E-020
  -49.1400000000000        -5.622199635228240E-020
  -48.9500000000000        -1.116668514608102E-019
  -48.7600000000000        -1.361087567245413E-019
  -48.5700000000000        -1.230386775444842E-019
  -48.3800000000000        -7.652843727035405E-020
  -48.1900000000000        -1.000256608230043E-020
  -48.0000000000000         5.768638240116908E-020
  -47.8100000000000         1.077336795067012E-019
  -47.6200000000000         1.268184072428137E-019
  -47.4300000000000         1.109265659104760E-019
  -47.2400000000000         6.646018737047618E-020
  -47.0500000000000         8.317705560610182E-021
  -46.8600000000000        -4.449495934649811E-020
  -46.6700000000000        -7.445088672611947E-020
  -46.4800000000000        -7.066741937515057E-020
  -46.2900000000000        -3.214983610689344E-020
  -46.1000000000000         3.183372524251929E-020
  -45.9100000000000         1.043611308504957E-019
  -45.7200000000000         1.656939075701691E-019
  -45.5300000000000         1.989377910573582E-019
  -45.3400000000000         1.948819760631009E-019
  -45.1500000000000         1.546165777259969E-019
  -44.9600000000000         8.917896920337300E-020
  -44.7700000000000         1.634454029139995E-020
  -44.5800000000000        -4.449760539772274E-020
  -44.3900000000000        -7.789604358280707E-020
  -44.2000000000000        -7.671110582903207E-020
  -44.0100000000000        -4.405161201387208E-020
  -43.8200000000000         7.779285415786141E-021
  -43.6300000000000         6.101495758562303E-020
  -43.4400000000000         9.773945745455452E-020
  -43.2500000000000         1.052286988254048E-019
  -43.0600000000000         7.975350402005355E-020
  -42.8700000000000         2.772957262941371E-020
  -42.6800000000000        -3.612242291657569E-020
  -42.4900000000000        -9.306714464941950E-020
  -42.3000000000000        -1.258402886642213E-019
  -42.1100000000000        -1.237283110210700E-019
  -41.9200000000000        -8.576120784005783E-020
  -41.7300000000000        -2.108682507816120E-020
  -41.5400000000000         5.358610898054676E-020
  -41.3500000000000         1.187377470651939E-019
  -41.1600000000000         1.576037078340746E-019
  -40.9700000000000         1.609439323486101E-019
  -40.7800000000000         1.296302354161472E-019
  -40.5900000000000         7.430404622367775E-020
  -40.4000000000000         1.220973919113109E-020
  -40.2100000000000        -3.786962915450609E-020
  -40.0200000000000        -6.109883462249151E-020
  -39.8300000000000        -5.090543943791911E-020
  -39.6400000000000        -1.087188140096479E-020
  -39.4500000000000         4.634378179621061E-020
  -39.2600000000000         1.027461900847978E-019
  -39.0700000000000         1.403157537471748E-019
  -38.8800000000000         1.463504219170935E-019
  -38.6900000000000         1.172737480854981E-019
  -38.5000000000000         5.978615388514995E-020
  -38.3100000000000        -1.099108677709919E-020
  -38.1200000000000        -7.584843646844510E-020
  -37.9300000000000        -1.170380988067975E-019
  -37.7400000000000        -1.234233028521877E-019
  -37.5500000000000        -9.372495095396583E-020
  -37.3600000000000        -3.691904258878496E-020
  -37.1700000000000         3.033290391045686E-020
  -36.9800000000000         8.847933634610021E-020
  -36.7900000000000         1.207171704450641E-019
  -36.6000000000000         1.178466118479250E-019
  -36.4100000000000         8.093803503535549E-020
  -36.2200000000000         2.103387158681589E-020
  -36.0300000000000        -4.403641037794461E-020
  -35.8400000000000        -9.481253009128048E-020
  -35.6500000000000        -1.158390386953677E-019
  -35.4600000000000        -1.001450040480770E-019
  -35.2700000000000        -5.126689204589994E-020
  -35.0800000000000         1.777020041392215E-020
  -34.8900000000000         8.821210716511575E-020
  -34.7000000000000         1.409806213046363E-019
  -34.5100000000000         1.621555617681501E-019
  -34.3200000000000         1.469476954180985E-019
  -34.1300000000000         1.010165972647787E-019
  -33.9400000000000         3.875756079383490E-020
  -33.7500000000000        -2.094095199456059E-020
  -33.5600000000000        -6.023550177527853E-020
  -33.3700000000000        -6.755139100462242E-020
  -33.1800000000000        -4.097203553107908E-020
  -32.9900000000000         1.119288865806989E-020
  -32.8000000000000         7.282658146068227E-020
  -32.6100000000000         1.247096883506170E-019
  -32.4200000000000         1.501460881804869E-019
  -32.2300000000000         1.398789392682292E-019
  -32.0400000000000         9.487003953588024E-020
  -31.8500000000000         2.613079695036810E-020
  -31.6600000000000        -4.835713975471286E-020
  -31.4700000000000        -1.087521879638339E-019
  -31.2800000000000        -1.390226427940554E-019
  -31.0900000000000        -1.315348114118313E-019
  -30.9000000000000        -8.922568468201617E-020
  -30.7100000000000        -2.472620175415442E-020
  -30.5200000000000         4.331053213777499E-020
  -30.3300000000000         9.560720443927118E-020
  -30.1400000000000         1.178170793931466E-019
  -29.9500000000000         1.046258690291617E-019
  -29.7600000000000         6.121932547140674E-020
  -29.5700000000000         1.702611416017364E-021
  -29.3800000000000        -5.506151881901851E-020
  -29.1900000000000        -9.098654334070048E-020
  -29.0000000000000        -9.406492127125468E-020
  -28.8100000000000        -6.190299132927245E-020
  -28.6200000000000        -2.460988425321037E-021
  -28.4300000000000         6.821972275086321E-020
  -28.2400000000000         1.306441111339735E-019
  -28.0500000000000         1.674997318276981E-019
  -27.8600000000000         1.686598702563171E-019
  -27.6700000000000         1.340974422589967E-019
  -27.4800000000000         7.386630479127003E-020
  -27.2900000000000         5.163353348032498E-021
  -27.1000000000000        -5.266711657203269E-020
  -26.9100000000000        -8.373127226052291E-020
  -26.7200000000000        -8.015981440941177E-020
  -26.5300000000000        -4.433244802678745E-020
  -26.3400000000000         1.189013868798837E-020
  -26.1500000000000         7.070109681299873E-020
  -25.9600000000000         1.136185408101296E-019
  -25.7700000000000         1.269543351094601E-019
  -25.5800000000000         1.058810467687024E-019
  -25.3900000000000         5.590493010411192E-020
  -25.2000000000000        -8.690446502538559E-021
  -25.0100000000000        -6.898176572098395E-020
  -24.8200000000000        -1.069241866848107E-019
  -24.6300000000000        -1.106465746615648E-019
  -24.4400000000000        -7.798222172698327E-020
  -24.2500000000000        -1.720186102226225E-020
  -24.0600000000000         5.527686936321119E-020
  -23.8700000000000         1.195540517325027E-019
  -23.6800000000000         1.579442996476425E-019
  -23.4900000000000         1.600565989954980E-019
  -23.3000000000000         1.257802835374963E-019
  -23.1100000000000         6.530558927350839E-020
  -22.9200000000000        -3.830590610395045E-021
  -22.7300000000000        -6.181722007137554E-020
  -22.5400000000000        -9.228810093967400E-020
  -22.3500000000000        -8.703075571597861E-020
  -22.1600000000000        -4.832551863529569E-020
  -21.9700000000000         1.175719806245449E-020
  -21.7800000000000         7.489580495070863E-020
  -21.5900000000000         1.218695053774112E-019
  -21.4000000000000         1.381752243823722E-019
  -21.2100000000000         1.182805468840430E-019
  -21.0200000000000         6.727370538889537E-020
  -20.8300000000000        -5.766565177280821E-022
  -20.6400000000000        -6.594115471697502E-020
  -20.4500000000000        -1.100348120493811E-019
  -20.2600000000000        -1.200774097758739E-019
  -20.0700000000000        -9.302011784105183E-020
  -19.8800000000000        -3.645525294703324E-020
  -19.6900000000000         3.355530553666188E-020
  -19.5000000000000         9.710578817293472E-020
  -19.3100000000000         1.361910815360192E-019
  -19.1200000000000         1.399126177272435E-019
  -18.9300000000000         1.076421577303447E-019
  -18.7400000000000         4.922550848456993E-020
  -18.5500000000000        -1.784113226320284E-020
  -18.3600000000000        -7.345528904905188E-020
  -18.1700000000000        -1.007202330514100E-019
  -17.9800000000000        -9.084585000031009E-020
  -17.7900000000000        -4.572068178093115E-020
  -17.6000000000000         2.258914470932661E-020
  -17.4100000000000         9.526971964133853E-020
  -17.2200000000000         1.521278945643496E-019
  -17.0300000000000         1.773509931092813E-019
  -16.8400000000000         1.640004786563855E-019
  -16.6500000000000         1.159495153801158E-019
  -16.4600000000000         4.671112385743856E-020
  -16.2700000000000        -2.450014648232482E-020
  -16.0800000000000        -7.833065835268017E-020
  -15.8900000000000        -1.008614808085308E-019
  -15.7000000000000        -8.757867742898112E-020
  -15.5100000000000        -4.459328112390182E-020
  -15.3200000000000         1.323430947161265E-020
  -15.1300000000000         6.671035081498813E-020
  -14.9400000000000         9.797362653439526E-020
  -14.7500000000000         9.576421155028214E-020
  -14.5600000000000         5.877005977128515E-020
  -14.3700000000000        -3.914516655227628E-021
  -14.1800000000000        -7.535098739711228E-020
  -13.9900000000000        -1.356012944007044E-019
  -13.8000000000000        -1.674574191262624E-019
  -13.6100000000000        -1.614000380887577E-019
  -13.4200000000000        -1.183504727739663E-019
  -13.2300000000000        -4.941746848366974E-020
  -13.0400000000000         2.728730097879078E-020
  -12.8500000000000         9.183804892927317E-020
  -12.6600000000000         1.281798256415706E-019
  -12.4700000000000         1.286635054048326E-019
  -12.2800000000000         9.612687089489080E-020
  -12.0900000000000         4.293509138523883E-020
  -11.9000000000000        -1.272470615477607E-020
  -11.7100000000000        -5.220932267113301E-020
  -11.5200000000000        -6.188645546073829E-020
  -11.3300000000000        -3.711963251445475E-020
  -11.1400000000000         1.638051455595323E-020
  -10.9500000000000         8.422601989858590E-020
  -10.7600000000000         1.475509347713167E-019
  -10.5700000000000         1.885112688235494E-019
  -10.3800000000000         1.954784835803068E-019
  -10.1900000000000         1.664126422810768E-019
  -10.0000000000000         1.094369729820747E-019
  -9.81000000000000         4.045525907097616E-020
  -9.62000000000000        -2.148399667659462E-020
  -9.42999999999999        -5.971975585132764E-020
  -9.23999999999999        -6.479473060713581E-020
  -9.05000000000000        -3.715562042725932E-020
  -8.86000000000000         1.304652596751235E-020
  -8.67000000000000         6.899554915236088E-020
  -8.48000000000000         1.122000479197839E-019
  -8.28999999999999         1.279739255794472E-019
  -8.09999999999999         1.098029771205322E-019
  -7.91000000000000         6.131790215633914E-020
  -7.72000000000000        -4.705598551843162E-021
  -7.53000000000000        -7.002902329810946E-020
  -7.34000000000000        -1.162420898645811E-019
  -7.15000000000001        -1.301226368434108E-019
  -6.95999999999999        -1.075076568683435E-019
  -6.77000000000000        -5.454949062053226E-020
  -6.58000000000000         1.401262306353067E-020
  -6.39000000000000         7.907097194555030E-020
  -6.20000000000000         1.226389822873258E-019
  -6.01000000000001         1.330198938580830E-019
  -5.81999999999999         1.081505232366867E-019
  -5.63000000000000         5.614427592273861E-020
  -5.44000000000000        -7.124966984271929E-021
  -5.25000000000000        -6.268993043402801E-020
  -5.06000000000000        -9.404226744121976E-020
  -4.87000000000000        -9.194965513943371E-020
  -4.67999999999999        -5.713652594622382E-020
  -4.48999999999999        -5.284059597833531E-023
  -4.30000000000000         6.219684609174297E-020
  -4.11000000000000         1.108679235897422E-019
  -3.92000000000000         1.310747170602937E-019
  -3.73000000000000         1.161725465839380E-019
  -3.53999999999999         6.974148855260406E-020
  -3.34999999999999         4.584822307435872E-021
  -3.16000000000000        -6.097390637346917E-020
  -2.97000000000000        -1.084186341226581E-019
  -2.78000000000000        -1.244375216289322E-019
  -2.59000000000000        -1.048092815955644E-019
  -2.40000000000001        -5.563938435535289E-020
  -2.20999999999999         8.419430329006641E-021
  -2.02000000000000         6.844750012869654E-020
  -1.83000000000000         1.067962460566926E-019
  -1.64000000000000         1.122740798046625E-019
  -1.45000000000000         8.346870981758965E-020
  -1.26000000000001         2.922962119428466E-020
  -1.06999999999999        -3.384427906317096E-020
 -0.879999999999995        -8.619575574687305E-020
 -0.689999999999998        -1.109960452088419E-019
 -0.500000000000000        -9.907747932607004E-020
 -0.310000000000002        -5.167535107807981E-020
 -0.120000000000005         1.982386742213469E-020
  7.000000000000739E-002    9.706170705556924E-020
  0.260000000000005         1.598994191997886E-019
  0.450000000000003         1.921265390054236E-019
  0.640000000000001         1.860425011028617E-019
  0.829999999999998         1.445920229348663E-019
   1.02000000000000         8.043921539691587E-020
   1.21000000000001         1.224841271881398E-020
   1.40000000000001        -4.075199602610492E-020
   1.59000000000000        -6.434614067493147E-020
   1.78000000000000        -5.342565817760058E-020
   1.97000000000000        -1.340898952076781E-020
   2.16000000000000         4.142863662045165E-020
   2.34999999999999         9.222449302422203E-020
   2.54000000000001         1.211479574638426E-019
   2.73000000000000         1.167293313085185E-019
   2.92000000000000         7.734289828846052E-020
   3.11000000000000         1.182602483364173E-020
   3.30000000000000        -6.295377292456822E-020
   3.48999999999999        -1.268890698881874E-019
   3.68000000000001        -1.624025820116494E-019
   3.87000000000000        -1.595307515029338E-019
   4.06000000000000        -1.188445353541035E-019
   4.25000000000000        -5.135045788586054E-020
   4.44000000000000         2.461187657523670E-020
   4.63000000000000         8.858705963408877E-020
   4.82000000000001         1.238310736172185E-019
   5.01000000000001         1.220644907188623E-019
   5.20000000000000         8.577882706516842E-020
   5.39000000000000         2.743313015794420E-020
   5.58000000000000        -3.422245750895372E-020
   5.77000000000000        -7.963174131975449E-020
   5.96000000000001        -9.414180737892572E-020
   6.15000000000001        -7.228679487361905E-020
   6.34000000000000        -1.940522905318632E-020
   6.53000000000000         4.988100620717909E-020