  -105.000000000000         0.000000000000000E+000
  -104.810000000000         2.641000958303962E-010
  -104.620000000000         5.844699440642661E-010
  -104.430000000000         8.869153288404069E-010
  -104.240000000000         1.283590651961924E-009
  -104.050000000000         1.716734928143587E-009
  -103.860000000000         1.970882149022112E-009
  -103.670000000000         1.931199800022349E-009
  -103.480000000000         1.773953971749990E-009
  -103.290000000000         2.396760705422770E-009
  -103.100000000000         3.560816714344744E-009
  -102.910000000000         5.347270165915211E-009
  -102.720000000000         7.310500717066968E-009
  -102.530000000000         9.033425327470745E-009
  -102.340000000000         1.031232651270966E-008
  -102.150000000000         1.101503195172719E-008
  -101.960000000000         1.138966049886796E-008
  -101.770000000000         1.138709645300384E-008
  -101.580000000000         1.167758888456815E-008
  -101.390000000000         1.223736721752349E-008
  -101.200000000000         1.265146288126292E-008
  -101.010000000000         1.259992024964126E-008
  -100.820000000000         1.172894711467126E-008
  -100.630000000000         1.045971042957979E-008
  -100.440000000000         9.103593362683166E-009
  -100.250000000000         7.990731513776260E-009
  -100.060000000000         7.405849518610241E-009
  -99.8700000000000         7.424137862620628E-009
  -99.6800000000000         7.598952386509904E-009
  -99.4900000000000         7.343745139304631E-009
  -99.3000000000000         6.282928683252534E-009
  -99.1100000000000         4.728361548489249E-009
  -98.9200000000000         2.841058045153524E-009
  -98.7300000000000         1.253239896377079E-009
  -98.5400000000000         5.978207707215266E-010
  -98.3500000000000         2.605830688436721E-010
  -98.1600000000000         5.898409876334316E-010
  -97.9700000000000         1.072697253508785E-009
  -97.7800000000000         1.548878928299349E-009
  -97.5900000000000         1.578923016741240E-009
  -97.4000000000000         1.320696944002413E-009
  -97.2100000000000         1.192333870808426E-009
  -97.0200000000000         1.391833555379748E-009
  -96.8300000000000         2.481896903861411E-009
  -96.6400000000000         3.872706927664619E-009
  -96.4500000000000         5.443614103476644E-009
  -96.2600000000000         7.023348184204919E-009
  -96.0700000000000         8.310566890890682E-009
  -95.8800000000000         9.022606657873286E-009
  -95.6900000000000         9.382716710365302E-009
  -95.5000000000000         9.583987442934412E-009
  -95.3100000000000         9.965455789004141E-009
  -95.1200000000000         1.025787826622657E-008
  -94.9300000000000         1.047746799575923E-008
  -94.7400000000000         1.044722698073090E-008
  -94.5500000000000         1.023439085846281E-008
  -94.3600000000000         1.002310443932609E-008
  -94.1700000000000         9.858927436911534E-009
  -93.9800000000000         9.434388600811305E-009
  -93.7900000000000         9.341366188977353E-009
  -93.6000000000000         1.021644680087016E-008
  -93.4100000000000         1.115111816448972E-008
  -93.2200000000000         1.215588238311667E-008
  -93.0300000000000         1.281564615070248E-008
  -92.8400000000000         1.280076432859316E-008
  -92.6500000000000         1.188355047692753E-008
  -92.4600000000000         1.011577387119628E-008
  -92.2700000000000         8.008902533997463E-009
  -92.0800000000000         6.284693022302483E-009
  -91.8900000000000         5.447192776299691E-009
  -91.7000000000000         5.533110567978784E-009
  -91.5100000000000         5.592900083325603E-009
  -91.3200000000000         4.932985082216351E-009
  -91.1300000000000         3.064442518573610E-009
  -90.9400000000000         5.110685192025217E-010
  -90.7500000000000        -1.883691485610284E-009
  -90.5600000000000        -3.207942849760720E-009
  -90.3700000000000        -3.135887076281718E-009
  -90.1800000000000        -1.865888166793483E-009
  -89.9900000000000        -1.785714417497029E-010
  -89.8000000000000         9.493202584473823E-010
  -89.6100000000000         5.384919336392670E-010
  -89.4200000000000        -1.688293870495638E-010
  -89.2300000000000        -5.882314967494045E-010
  -89.0400000000000         2.207323845975714E-010
  -88.8500000000000         9.282722454046682E-010
  -88.6600000000000         2.168902981194132E-009
  -88.4700000000000         2.847676756467392E-009
  -88.2800000000000         2.380938308337876E-009
  -88.0900000000000         1.162246541367992E-009
  -87.9000000000000        -2.914779748889544E-010
  -87.7100000000000        -1.377752283533507E-009
  -87.5200000000000        -1.377590445401123E-009
  -87.3300000000000        -1.687173251483735E-009
  -87.1400000000000        -1.370993362634421E-009
  -86.9500000000000        -5.063595950262341E-011
  -86.7600000000000         1.182397369983580E-009
  -86.5700000000000         2.501610448226206E-009
  -86.3800000000000         4.243301400104126E-009
  -86.1900000000000         6.370498697064943E-009
  -86.0000000000000         8.696504277803782E-009
  -85.8100000000000         1.113370839633002E-008
  -85.6200000000000         1.353778974577100E-008
  -85.4300000000000         1.588926805325438E-008
  -85.2400000000000         1.802922741697117E-008
  -85.0500000000000         2.014051632036395E-008
  -84.8600000000000         2.162213633381179E-008
  -84.6700000000000         2.234303555338847E-008
  -84.4800000000000         2.249043998998070E-008
  -84.2900000000000         2.247217966245630E-008
  -84.1000000000000         2.271434236777490E-008
  -83.9100000000000         2.384850916620465E-008
  -83.7200000000000         2.450059238606588E-008
  -83.5300000000000         2.772143804625248E-008
  -83.3400000000000         2.792085650416853E-008
  -83.1500000000000         2.744451803816611E-008
  -82.9600000000000         2.608828190497249E-008
  -82.7700000000000         2.416503620488031E-008
  -82.5800000000000         2.232812537616231E-008
  -82.3900000000000         2.122587063996996E-008
  -82.2000000000000         2.045884770218714E-008
  -82.0100000000000         1.952035584932007E-008
  -81.8200000000000         1.827204685313580E-008
  -81.6300000000000         1.655721657116372E-008
  -81.4400000000000         1.484557699563964E-008
  -81.2500000000000         1.391276604902794E-008
  -81.0600000000000         1.407064837388323E-008
  -80.8700000000000         1.611307824362598E-008
  -80.6800000000000         1.836519528507833E-008
  -80.4900000000000         1.996867379301219E-008
  -80.3000000000000         2.064710134095502E-008
  -80.1100000000000         2.135961045948501E-008
  -79.9200000000000         2.211328217211326E-008
  -79.7300000000000         2.312899339028532E-008
  -79.5400000000000         2.487579006607580E-008
  -79.3500000000000         2.745694959175259E-008
  -79.1600000000000         2.961313039485139E-008
  -78.9700000000000         3.085289760555800E-008
  -78.7800000000000         3.142858664682266E-008
  -78.5900000000000         3.168430516764383E-008
  -78.4000000000000         3.152356244732025E-008
  -78.2100000000000         3.115411675949019E-008
  -78.0200000000000         3.033373608499716E-008
  -77.8300000000000         2.934253160325048E-008
  -77.6400000000000         2.812803751315561E-008
  -77.4500000000000         2.710824824242300E-008
  -77.2600000000000         2.662212519752878E-008
  -77.0700000000000         2.659108347315035E-008
  -76.8800000000000         2.682732462517735E-008
  -76.6900000000000         2.726668416791892E-008
  -76.5000000000000         2.768926370705404E-008
  -76.3100000000000         2.730561072227616E-008
  -76.1200000000000         2.765270593249892E-008
  -75.9300000000000         2.609975535929835E-008
  -75.7400000000000         2.620942985726341E-008
  -75.5500000000000         2.584025259203599E-008
  -75.3600000000000         2.551837344012226E-008
  -75.1700000000000         2.466389026387440E-008
  -74.9800000000000         2.237857825812967E-008
  -74.7900000000000         1.954988767318299E-008
  -74.6000000000000         1.678998423579201E-008
  -74.4100000000000         1.471611545331310E-008
  -74.2200000000000         1.359812255815974E-008
  -74.0300000000000         1.309366352625685E-008
  -73.8400000000000         1.265677586386388E-008
  -73.6500000000000         1.283611692699981E-008
  -73.4600000000000         1.353378935394069E-008
  -73.2700000000000         1.477426524025878E-008
  -73.0800000000000         1.690826443576747E-008
  -72.8900000000000         2.129659438856257E-008
  -72.7000000000000         2.486759543849273E-008
  -72.5100000000000         2.889255157172357E-008
  -72.3200000000000         3.209641863239240E-008
  -72.1300000000000         3.370523263003023E-008
  -71.9400000000000         3.443578104898815E-008
  -71.7500000000000         3.969705218865827E-008
  -71.5600000000000         3.922867867233547E-008
  -71.3700000000000         3.941437209789221E-008
  -71.1800000000000         4.060304743300248E-008
  -70.9900000000000         4.123830521229263E-008
  -70.8000000000000         4.716630168400457E-008
  -70.6100000000000         4.644886710404657E-008
  -70.4200000000000         4.686812155627080E-008
  -70.2300000000000         5.448136197842319E-008
  -70.0400000000000         5.385725640830346E-008
  -69.8500000000000         5.419417594179417E-008
  -69.6600000000000         5.559010767285079E-008
  -69.4700000000000         5.605808790225106E-008
  -69.2800000000000         5.538174362042040E-008
  -69.0900000000000         5.570363422298099E-008
  -68.9000000000000         5.574200030739457E-008
  -68.7100000000000         5.515865144142721E-008
  -68.5200000000000         5.386042714596346E-008
  -68.3300000000000         5.228965750382027E-008
  -68.1400000000000         5.115974245864046E-008
  -67.9500000000000         5.101211020962418E-008
  -67.7600000000000         5.125927290693496E-008
  -67.5700000000000         5.274598190326662E-008
  -67.3800000000000         5.649302144352254E-008
  -67.1900000000000         6.032258876886102E-008
  -67.0000000000000         6.222753687598834E-008
  -66.8100000000000         6.721958286966188E-008
  -66.6200000000000         6.789954370210218E-008
  -66.4300000000000         6.945892355770972E-008
  -66.2400000000000         7.718121966456927E-008
  -66.0500000000000         7.716241665224175E-008
  -65.8600000000000         7.679311385020925E-008
  -65.6700000000000         7.561072720912679E-008
  -65.4800000000000         7.473965341448917E-008
  -65.2900000000000         7.344935874851391E-008
  -65.1000000000000         7.213946015831993E-008
  -64.9100000000000         7.121562971772155E-008
  -64.7200000000000         7.050544865785398E-008
  -64.5300000000000         6.964031893281395E-008
  -64.3400000000000         6.986128080106051E-008
  -64.1500000000000         7.017413646003318E-008
  -63.9600000000000         7.039309331824427E-008
  -63.7700000000000         7.048796824533017E-008
  -63.5800000000000         7.042469549614275E-008
  -63.3900000000000         7.055660513360561E-008
  -63.2000000000000         7.059837475940697E-008
  -63.0100000000000         7.100477615457417E-008
  -62.8200000000000         7.188626282140406E-008
  -62.6300000000000         7.283997314465057E-008
  -62.4400000000000         7.361557783432465E-008
  -62.2500000000000         7.411119059527283E-008
  -62.0600000000000         7.442272109664664E-008
  -61.8700000000000         7.465430126680557E-008
  -61.6800000000000         7.493133461553829E-008
  -61.4900000000000         7.556265831502167E-008
  -61.3000000000000         7.718230213139058E-008
  -61.1100000000000         8.030786276968037E-008
  -60.9200000000000         8.364266053159532E-008
  -60.7300000000000         8.645801365343499E-008
  -60.5400000000000         8.824132363780452E-008
  -60.3500000000000         8.916707714644282E-008
  -60.1600000000000         8.999169248802001E-008
  -59.9700000000000         9.141928198871032E-008
  -59.7800000000000         9.302530624907140E-008
  -59.5900000000000         9.437557760974210E-008
  -59.4000000000000         9.510629182558670E-008
  -59.2100000000000         9.511661980990578E-008
  -59.0200000000000         9.490535355618311E-008
  -58.8300000000000         9.501474103139338E-008
  -58.6400000000000         9.518713396734815E-008
  -58.4500000000000         9.525697238646408E-008
  -58.2600000000000         9.553599270478419E-008
  -58.0700000000000         9.577549228227833E-008
  -57.8800000000000         9.413884708983348E-008
  -57.6900000000000         9.455113960749846E-008
  -57.5000000000000         9.452104171830553E-008
  -57.3100000000000         9.473523891823815E-008
  -57.1200000000000         9.772672883536682E-008
  -56.9300000000000         9.986250109142436E-008
  -56.7400000000000         1.021008551500458E-007
  -56.5500000000000         1.064540907800882E-007
  -56.3600000000000         1.089198301187844E-007
  -56.1700000000000         1.118036411287213E-007
  -55.9800000000000         1.140105734638793E-007
  -55.7900000000000         1.148174100702650E-007
  -55.6000000000000         1.165491292978166E-007
  -55.4100000000000         1.152560930787065E-007
  -55.2200000000000         1.134595267164050E-007
  -55.0300000000000         1.109572501609562E-007
  -54.8400000000000         1.082992915907825E-007
  -54.6500000000000         1.065205720563418E-007
  -54.4600000000000         1.054381458883827E-007
  -54.2700000000000         1.054140773407045E-007
  -54.0800000000000         1.060154387252931E-007
  -53.8900000000000         1.072337281301118E-007
  -53.7000000000000         1.090272880006354E-007
  -53.5100000000000         1.117893755276857E-007
  -53.3200000000000         1.152066035510082E-007
  -53.1300000000000         1.193151988125544E-007
  -52.9400000000000         1.232026617257775E-007
  -52.7500000000000         1.262764466757122E-007
  -52.5600000000000         1.285009198938466E-007
  -52.3700000000000         1.301847148538836E-007
  -52.1800000000000         1.314306567621805E-007
  -51.9900000000000         1.373606520831322E-007
  -51.8000000000000         1.397428542475885E-007
  -51.6100000000000         1.400400610350845E-007
  -51.4200000000000         1.414497901390055E-007
  -51.2300000000000         1.450886287871238E-007
  -51.0400000000000         1.471122406195567E-007
  -50.8500000000000         1.487145593692855E-007
  -50.6600000000000         1.514642751713899E-007
  -50.4700000000000         1.609334654090497E-007
  -50.2800000000000         1.639712053088257E-007
  -50.0900000000000         1.647054358819024E-007
  -49.9000000000000         1.673968871150615E-007
  -49.7100000000000         1.692884943256256E-007
  -49.5200000000000         1.685528793707074E-007
  -49.3300000000000         1.706649544287287E-007
  -49.1400000000000         1.680326534279158E-007
  -48.9500000000000         1.706805709607011E-007
  -48.7600000000000         1.667911359010887E-007
  -48.5700000000000         1.683348747206782E-007
  -48.3800000000000         1.671677942108122E-007
  -48.1900000000000         1.671190009494197E-007
  -48.0000000000000         1.684470909225852E-007
  -47.8100000000000         1.718264229603012E-007
  -47.6200000000000         1.760797246768373E-007
  -47.4300000000000         1.804009257114704E-007
  -47.2400000000000         1.848676376754417E-007
  -47.0500000000000         1.887260645091554E-007
  -46.8600000000000         1.918149244742669E-007
  -46.6700000000000         1.954434814638655E-007
  -46.4800000000000         1.991623715470656E-007
  -46.2900000000000         2.029273342051352E-007
  -46.1000000000000         2.061394657397587E-007
  -45.9100000000000         2.076495921271750E-007
  -45.7200000000000         2.088172522081417E-007
  -45.5300000000000         2.080346408860695E-007
  -45.3400000000000         2.065252033250317E-007
  -45.1500000000000         2.058329097906707E-007
  -44.9600000000000         2.055886609219411E-007
  -44.7700000000000         2.063207631737256E-007
  -44.5800000000000         2.063792400480107E-007
  -44.3900000000000         2.075442001283109E-007
  -44.2000000000000         2.071920326247173E-007
  -44.0100000000000         2.081333115928331E-007
  -43.8200000000000         2.075873815760075E-007
  -43.6300000000000         2.090042799902286E-007
  -43.4400000000000         2.096417451350012E-007
  -43.2500000000000         2.121411057873298E-007
  -43.0600000000000         2.125481967325260E-007
  -42.8700000000000         2.149464801746147E-007
  -42.6800000000000         2.150047802510512E-007
  -42.4900000000000         2.163342355741298E-007
  -42.3000000000000         2.153228675919571E-007
  -42.1100000000000         2.167446020439791E-007
  -41.9200000000000         2.155758210400340E-007
  -41.7300000000000         2.176409976436612E-007
  -41.5400000000000         2.176519629774014E-007
  -41.3500000000000         2.195530300705283E-007
  -41.1600000000000         2.197708523121351E-007
  -40.9700000000000         2.219642687923611E-007
  -40.7800000000000         2.228296643078037E-007
  -40.5900000000000         2.261715793095575E-007
  -40.4000000000000         2.276580253502133E-007
  -40.2100000000000         2.317198865132624E-007
  -40.0200000000000         2.328896290684284E-007
  -39.8300000000000         2.363902017344538E-007
  -39.6400000000000         2.360085070098133E-007
  -39.4500000000000         2.397857299195971E-007
  -39.2600000000000         2.372886724928500E-007
  -39.0700000000000         2.400085055338443E-007
  -38.8800000000000         2.362251253210931E-007
  -38.6900000000000         2.400388940909324E-007
  -38.5000000000000         2.399570940384295E-007
  -38.3100000000000         2.446153221059606E-007
  -38.1200000000000         2.466419438033381E-007
  -37.9300000000000         2.515988862469962E-007
  -37.7400000000000         2.529403274606084E-007
  -37.5500000000000         2.576829125396185E-007
  -37.3600000000000         2.594085072078625E-007
  -37.1700000000000         2.643871106907581E-007
  -36.9800000000000         2.678675485266429E-007
  -36.7900000000000         2.733195485779659E-007
  -36.6000000000000         2.765206654395911E-007
  -36.4100000000000         2.813908101101900E-007
  -36.2200000000000         2.820600267035766E-007
  -36.0300000000000         2.850291841022419E-007
  -35.8400000000000         2.836483189844811E-007
  -35.6500000000000         2.863154599517660E-007
  -35.4600000000000         2.858708295385776E-007
  -35.2700000000000         2.895522556764640E-007
  -35.0800000000000         2.909298287343293E-007
  -34.8900000000000         2.948618266857956E-007
  -34.7000000000000         2.970120988306540E-007
  -34.5100000000000         3.011616116422102E-007
  -34.3200000000000         3.031861747575914E-007
  -34.1300000000000         3.074042799285834E-007
  -33.9400000000000         3.094092108299541E-007
  -33.7500000000000         3.150936039911001E-007
  -33.5600000000000         3.163609243075354E-007
  -33.3700000000000         3.203861201727740E-007
  -33.1800000000000         3.191363345230836E-007
  -32.9900000000000         3.229880593647607E-007
  -32.8000000000000         3.228549827483082E-007
  -32.6100000000000         3.254514554230193E-007
  -32.4200000000000         3.252263591349041E-007
  -32.2300000000000         3.292646378215491E-007
  -32.0400000000000         3.311630498354855E-007
  -31.8500000000000         3.357962477633752E-007
  -31.6600000000000         3.389630977304358E-007
  -31.4700000000000         3.442687103577662E-007
  -31.2800000000000         3.481444986382349E-007
  -31.0900000000000         3.538132923271391E-007
  -30.9000000000000         3.567281885930926E-007
  -30.7100000000000         3.620887324725679E-007
  -30.5200000000000         3.638834777588849E-007
  -30.3300000000000         3.686225532341191E-007
  -30.1400000000000         3.708658023927737E-007
  -29.9500000000000         3.757837470608893E-007
  -29.7600000000000         3.768119603022089E-007
  -29.5700000000000         3.812415279561949E-007
  -29.3800000000000         3.800930794157491E-007
  -29.1900000000000         3.830236927777212E-007
  -29.0000000000000         3.791326094602758E-007
  -28.8100000000000         3.833273471274123E-007
  -28.6200000000000         3.805857925732635E-007
  -28.4300000000000         3.845661513201165E-007
  -28.2400000000000         3.822945869398427E-007
  -28.0500000000000         3.857935506297815E-007
  -27.8600000000000         3.839013058287114E-007
  -27.6700000000000         3.872026685423952E-007
  -27.4800000000000         3.886017691058981E-007
  -27.2900000000000         3.904434844671605E-007
  -27.1000000000000         3.923769941105665E-007
  -26.9100000000000         3.940107021719235E-007
  -26.7200000000000         3.948138145207439E-007
  -26.5300000000000         3.946407379717640E-007
  -26.3400000000000         3.946583416674533E-007
  -26.1500000000000         3.940818278716571E-007
  -25.9600000000000         3.940000470173485E-007
  -25.7700000000000         3.940370774847185E-007
  -25.5800000000000         3.943323011931388E-007
  -25.3900000000000         3.950883758272049E-007
  -25.2000000000000         3.956717590931195E-007
  -25.0100000000000         3.968430904546370E-007
  -24.8200000000000         3.992239275197418E-007
  -24.6300000000000         4.011823935382116E-007
  -24.4400000000000         4.035118118824873E-007
  -24.2500000000000         4.057126992069069E-007
  -24.0600000000000         4.075899004447096E-007
  -23.8700000000000         4.099402644214366E-007
  -23.6800000000000         4.118167565819608E-007
  -23.4900000000000         4.134487384122471E-007
  -23.3000000000000         4.153461809522623E-007
  -23.1100000000000         4.168399478928731E-007
  -22.9200000000000         4.172561070923252E-007
  -22.7300000000000         4.172918148138186E-007
  -22.5400000000000         4.180017541964663E-007
  -22.3500000000000         4.192624810911361E-007
  -22.1600000000000         4.213166496534829E-007
  -21.9700000000000         4.237996209422162E-007
  -21.7800000000000         4.255405406591506E-007
  -21.5900000000000         4.262651671948784E-007
  -21.4000000000000         4.270413062993536E-007
  -21.2100000000000         4.276796873249464E-007
  -21.0200000000000         4.279207129311680E-007
  -20.8300000000000         4.298693147144258E-007
  -20.6400000000000         4.298934905843986E-007
  -20.4500000000000         4.325213635514442E-007
  -20.2600000000000         4.359176942540187E-007
  -20.0700000000000         4.398651490392599E-007
  -19.8800000000000         4.462669600367975E-007
  -19.6900000000000         4.450157135163527E-007
  -19.5000000000000         4.470580767706124E-007
  -19.3100000000000         4.465338149672333E-007
  -19.1200000000000         4.497431654040398E-007
  -18.9300000000000         4.542427821061025E-007
  -18.7400000000000         4.542174242675756E-007
  -18.5500000000000         4.500745109147652E-007
  -18.3600000000000         4.539132685593992E-007
  -18.1700000000000         4.590141774126247E-007
  -17.9800000000000         4.574888345762573E-007
  -17.7900000000000         4.589371246595613E-007
  -17.6000000000000         4.549797650824592E-007
  -17.4100000000000         4.555798571011622E-007
  -17.2200000000000         4.536160730987070E-007
  -17.0300000000000         4.545249542851802E-007
  -16.8400000000000         4.534048732189420E-007
  -16.6500000000000         4.537367664365322E-007
  -16.4600000000000         4.507488439339400E-007
  -16.2700000000000         4.522505789850147E-007
  -16.0800000000000         4.535418921652491E-007
  -15.8900000000000         4.561337750934064E-007
  -15.7000000000000         4.612149648534151E-007
  -15.5100000000000         4.642424682598810E-007
  -15.3200000000000         4.687457407562961E-007
  -15.1300000000000         4.721102747284858E-007
  -14.9400000000000         4.770584146784698E-007
  -14.7500000000000         4.780987941910230E-007
  -14.5600000000000         4.794069915637471E-007
  -14.3700000000000         4.830871021156560E-007
  -14.1800000000000         4.896755994255423E-007
  -13.9900000000000         4.907720957480521E-007
  -13.8000000000000         4.901298003177506E-007
  -13.6100000000000         4.919115242400160E-007
  -13.4200000000000         4.956085619400819E-007
  -13.2300000000000         4.953684012271641E-007
  -13.0400000000000         4.934559344650479E-007
  -12.8500000000000         4.953680469457099E-007
  -12.6600000000000         5.001511900616700E-007
  -12.4700000000000         5.005525478660042E-007
  -12.2800000000000         4.998272452717677E-007
  -12.0900000000000         5.010397393190864E-007
  -11.9000000000000         5.044751812994144E-007
  -11.7100000000000         5.048612383337509E-007
  -11.5200000000000         5.052985145131864E-007
  -11.3300000000000         5.070505693199141E-007
  -11.1400000000000         5.120136970762125E-007
  -10.9500000000000         5.134578915172958E-007
  -10.7600000000000         5.174515729004984E-007
  -10.5700000000000         5.204562540451075E-007
  -10.3800000000000         5.277408365916483E-007
  -10.1900000000000         5.283145428174865E-007
  -10.0000000000000         5.274318897752009E-007
  -9.81000000000000         5.293207431097413E-007
  -9.62000000000000         5.344202783494795E-007
  -9.42999999999999         5.342518640891436E-007
  -9.23999999999999         5.304866747822755E-007
  -9.05000000000000         5.324866820380925E-007
  -8.86000000000000         5.368260891256468E-007
  -8.67000000000000         5.367140448226193E-007
  -8.48000000000000         5.339844623984905E-007
  -8.28999999999999         5.349536280303329E-007
  -8.09999999999999         5.373135004744573E-007
  -7.91000000000000         5.374943790607356E-007
  -7.72000000000000         5.351744038301109E-007
  -7.53000000000000         5.366692163996634E-007
  -7.34000000000000         5.390400646584636E-007
  -7.15000000000001         5.385724692654586E-007
  -6.95999999999999         5.342674634676652E-007
  -6.77000000000000         5.342204418284542E-007
  -6.58000000000000         5.334682487507279E-007
  -6.39000000000000         5.333264085662667E-007
  -6.20000000000000         5.292322305350470E-007
  -6.01000000000001         5.305546653859587E-007
  -5.81999999999999         5.347587617902612E-007
  -5.63000000000000         5.263922828166923E-007
  -5.44000000000000         5.277332133568633E-007
  -5.25000000000000         5.269940458400074E-007
  -5.06000000000000         5.264457099067119E-007
  -4.87000000000000         5.204988674482738E-007
  -4.67999999999999         5.226599241001462E-007
  -4.48999999999999         5.268433562534940E-007
  -4.30000000000000         5.197839377318369E-007
  -4.11000000000000         5.207066574345950E-007
  -3.92000000000000         5.231599969906776E-007
  -3.73000000000000         5.116801239815820E-007
  -3.53999999999999         5.145302665418630E-007
  -3.34999999999999         5.192098948694942E-007
  -3.16000000000000         5.130827821294658E-007
  -2.97000000000000         5.117857053468631E-007
  -2.78000000000000         5.018517938810015E-007
  -2.59000000000000         5.034551477833337E-007
  -2.40000000000001         5.074422742197667E-007
  -2.20999999999999         4.989797045898713E-007
  -2.02000000000000         5.022965546040022E-007
  -1.83000000000000         5.072428219286819E-007
  -1.64000000000000         5.011485715159963E-007
  -1.45000000000000         5.031811620425771E-007
  -1.26000000000001         5.063670867474389E-007
  -1.06999999999999         5.027714245080210E-007
 -0.879999999999995         5.073368867755779E-007
 -0.689999999999998         5.128249215187178E-007
 -0.500000000000000         5.132610728122456E-007
 -0.310000000000002         5.047866786943079E-007
 -0.120000000000005         5.072102463121694E-007
  7.000000000000739E-002    5.104701834993159E-007
  0.260000000000005         5.061296422212774E-007
  0.450000000000003         5.059327956823958E-007
  0.640000000000001         4.979473417592503E-007
  0.829999999999998         5.044748419592239E-007
   1.02000000000000         5.114956192809926E-007
   1.21000000000001         5.123490378788948E-007
   1.40000000000001         5.092383912425020E-007
   1.59000000000000         5.060326748526368E-007
   1.78000000000000         5.029949663773005E-007
   1.97000000000000         5.001416127222977E-007
   2.16000000000000         4.977629400155516E-007
   2.34999999999999         4.891547858447798E-007
   2.54000000000001         4.998561473519372E-007
   2.73000000000000         5.086490898209882E-007
   2.92000000000000         5.119339676244150E-007
   3.11000000000000         5.111636469414877E-007
   3.30000000000000         5.087915271615013E-007
   3.48999999999999         5.056572715037590E-007
   3.68000000000001         5.023515740598430E-007
   3.87000000000000         4.988671547298613E-007
   4.06000000000000         4.976174112385411E-007
   4.25000000000000         4.960330968360397E-007
   4.44000000000000         4.956768298628792E-007
   4.63000000000000         4.944340158725995E-007
   4.82000000000001         4.939763984036000E-007
   5.01000000000001         4.922060467739438E-007
   5.20000000000000         4.922451277253758E-007
   5.39000000000000         4.916678582548283E-007
   5.58000000000000         4.917658214385822E-007
   5.77000000000000         4.918570467872663E-007
   5.96000000000001         4.915200060065563E-007
   6.15000000000001         4.908695350801850E-007
   6.34000000000000         4.895035941026484E-007
   6.53000000000000         4.877414013347308E-007