  -105.000000000000        -6.225727125699922E-019
  -104.810000000000        -1.443739469273309E-019
  -104.620000000000         3.597493075978936E-019
  -104.430000000000         4.303564514572634E-019
  -104.240000000000         2.712185235846939E-020
  -104.050000000000        -4.373641500338468E-019
  -103.860000000000        -4.953607123854172E-019
  -103.670000000000        -7.294205436193526E-020
  -103.480000000000         4.382099118997454E-019
  -103.290000000000         5.547941706389113E-019
  -103.100000000000         1.646229602945790E-019
  -102.910000000000        -3.644803114083127E-019
  -102.720000000000        -5.342581742692870E-019
  -102.530000000000        -1.900646650812581E-019
  -102.340000000000         3.332873822173820E-019
  -102.150000000000         5.323480616376887E-019
  -101.960000000000         2.158337849979878E-019
  -101.770000000000        -3.130630266178625E-019
  -101.580000000000        -5.466271212041878E-019
  -101.390000000000        -2.582907729322851E-019
  -101.200000000000         2.800293941980331E-019
  -101.010000000000         5.573035506167779E-019
  -100.820000000000         3.117144449136195E-019
  -100.630000000000        -2.192290614028332E-019
  -100.440000000000        -5.258020231108068E-019
  -100.250000000000        -3.131266574720787E-019
  -100.060000000000         2.168211037288037E-019
  -99.8700000000000         5.574472266945934E-019
  -99.6800000000000         3.811505467987887E-019
  -99.4900000000000        -1.469927515419607E-019
  -99.3000000000000        -5.256839148471945E-019
  -99.1100000000000        -3.953775965073973E-019
  -98.9200000000000         1.186880928736605E-019
  -98.7300000000000         5.259588579878889E-019
  -98.5400000000000         4.380341540933068E-019
  -98.3500000000000        -6.183910412587562E-020
  -98.1600000000000        -4.987960248154836E-019
  -97.9700000000000        -4.590484790793015E-019
  -97.7800000000000         1.627474888576004E-020
  -97.5900000000000         4.717159297572521E-019
  -97.4000000000000         4.737319202969780E-019
  -97.2100000000000         2.546077340383496E-020
  -97.0200000000000        -4.367836812942437E-019
  -96.8300000000000        -4.616750117118345E-019
  -96.6400000000000        -1.569168255746409E-020
  -96.4500000000000         4.827247711761140E-019
  -96.2600000000000         5.603191131669542E-019
  -96.0700000000000         1.391576046848375E-019
  -95.8800000000000        -3.892865389247286E-019
  -95.6900000000000        -5.369883638471462E-019
  -95.5000000000000        -1.832191191443169E-019
  -95.3100000000000         3.139027709639761E-019
  -95.1200000000000         4.641013308337542E-019
  -94.9300000000000         1.170098670204266E-019
  -94.7400000000000        -3.924694158027313E-019
  -94.5500000000000        -5.644126565195221E-019
  -94.3600000000000        -2.138496876819565E-019
  -94.1700000000000         3.480741608995533E-019
  -93.9800000000000         6.060943869058508E-019
  -93.7900000000000         3.289839311681481E-019
  -93.6000000000000        -2.116164739211205E-019
  -93.4100000000000        -5.009731172638767E-019
  -93.2200000000000        -2.717101414705534E-019
  -93.0300000000000         2.431090000504787E-019
  -92.8400000000000         5.349473428346464E-019
  -92.6500000000000         3.074032642723379E-019
  -92.4600000000000        -2.386594942033079E-019
  -92.2700000000000        -5.945451317302330E-019
  -92.0800000000000        -4.277379398200782E-019
  -91.8900000000000         1.010892232001854E-019
  -91.7000000000000         4.912331249088595E-019
  -91.5100000000000         3.793336334424831E-019
  -91.3200000000000        -1.151373055429343E-019
  -91.1300000000000        -5.058623355637668E-019
  -90.9400000000000        -4.055813278400178E-019
  -90.7500000000000         1.029204485485312E-019
  -90.5600000000000         5.443200465631167E-019
  -90.3700000000000         5.029017467999413E-019
  -90.1800000000000         1.836896161939655E-020
  -89.9900000000000        -4.523617532617288E-019
  -89.8000000000000        -4.707939892799972E-019
  -89.6100000000000        -3.341823441628126E-020
  -89.4200000000000         4.283736204283230E-019
  -89.2300000000000         4.633855467623464E-019
  -89.0400000000000         3.301432846270137E-020
  -88.8500000000000        -4.518711075845049E-019
  -88.6600000000000        -5.243573340627357E-019
  -88.4700000000000        -1.094816514121934E-019
  -88.2800000000000         4.016816461827808E-019
  -88.0900000000000         5.239706660207695E-019
  -87.9000000000000         1.414425813525674E-019
  -87.7100000000000        -3.810445473172921E-019
  -87.5200000000000        -5.449732775169580E-019
  -87.3300000000000        -1.926066313320308E-019
  -87.1400000000000         3.436387985500774E-019
  -86.9500000000000         5.586490009155286E-019
  -86.7600000000000         2.558278503830017E-019
  -86.5700000000000        -2.669684464321285E-019
  -86.3800000000000        -5.043456470897329E-019
  -86.1900000000000        -2.287832612325640E-019
  -86.0000000000000         2.904475682505728E-019
  -85.8100000000000         5.450003813637334E-019
  -85.6200000000000         2.752780290300095E-019
  -85.4300000000000        -2.783013029750677E-019
  -85.2400000000000        -6.009360595202599E-019
  -85.0500000000000        -3.914154355894099E-019
  -84.8600000000000         1.520303068970748E-019
  -84.6700000000000         5.204332641660419E-019
  -84.4800000000000         3.779239836503244E-019
  -84.2900000000000        -1.206682002566158E-019
  -84.1000000000000        -4.814800613187333E-019
  -83.9100000000000        -3.468773044730387E-019
  -83.7200000000000         1.606076983960675E-019
  -83.5300000000000         5.543098525643162E-019
  -83.3400000000000         4.484687352652065E-019
  -83.1500000000000        -7.148364050457967E-020
  -82.9600000000000        -5.271136895396054E-019
  -82.7700000000000        -5.003735296015670E-019
  -82.5800000000000        -3.041785316682576E-020
  -82.3900000000000         4.253237757601509E-019
  -82.2000000000000         4.291699477472212E-019
  -82.0100000000000        -1.819727295435187E-020
  -81.8200000000000        -4.783736053510661E-019
  -81.6300000000000        -4.941684108852626E-019
  -81.4400000000000        -2.717246225835742E-020
  -81.2500000000000         5.028079936341267E-019
  -81.0600000000000         6.140710361443311E-019
  -80.8700000000000         2.179656244901428E-019
  -80.6800000000000        -3.006788220104001E-019
  -80.4900000000000        -4.535410282855249E-019
  -80.3000000000000        -1.148891636269152E-019
  -80.1100000000000         3.616295901344658E-019
  -79.9200000000000         4.857574613451692E-019
  -79.7300000000000         1.040928867410064E-019
  -79.5400000000000        -4.482991653560843E-019
  -79.3500000000000        -6.631828543844231E-019
  -79.1600000000000        -3.414503979623009E-019
  -78.9700000000000         2.171587591690298E-019
  -78.7800000000000         4.982944818531764E-019
  -78.5900000000000         2.602131124057144E-019
  -78.4000000000000        -2.410106038668927E-019
  -78.2100000000000        -5.020456695027289E-019
  -78.0200000000000        -2.570850519843768E-019
  -77.8300000000000         2.674186296715223E-019
  -77.6400000000000         5.709202581256023E-019
  -77.4500000000000         3.604395129337745E-019
  -77.2600000000000        -1.656603320837656E-019
  -77.0700000000000        -5.047313307190469E-019
  -76.8800000000000        -3.303095961161136E-019
  -76.6900000000000         1.937463783003091E-019
  -76.5000000000000         5.672703646605924E-019
  -76.3100000000000         4.297756410564788E-019
  -76.1200000000000        -9.584274277392820E-020
  -75.9300000000000        -5.196315546204864E-019
  -75.7400000000000        -4.500556268496068E-019
  -75.5500000000000         3.456771007382829E-020
  -75.3600000000000         4.625561530699146E-019
  -75.1700000000000         4.206749261962031E-019
  -74.9800000000000        -4.996792840608571E-020
  -74.7900000000000        -4.927979697912503E-019
  -74.6000000000000        -4.728761143770046E-019
  -74.4100000000000         5.396534572210733E-021
  -74.2200000000000         4.991157030958462E-019
  -74.0300000000000         5.459779819610034E-019
  -73.8400000000000         1.029688618193312E-019
  -73.6500000000000        -4.128699877286669E-019
  -73.4600000000000        -5.208721172633122E-019
  -73.2700000000000        -1.331610084987181E-019
  -73.0800000000000         3.640876877128348E-019
  -72.8900000000000         4.817794365274474E-019
  -72.7000000000000         9.635090033466469E-020
  -72.5100000000000        -4.317630805400366E-019
  -72.3200000000000        -6.015438142196277E-019
  -72.1300000000000        -2.480920034648327E-019
  -71.9400000000000         3.015739752275322E-019
  -71.7500000000000         5.410940284567121E-019
  -71.5600000000000         2.667878931730562E-019
  -71.3700000000000        -2.313332181166965E-019
  -71.1800000000000        -4.518449468481539E-019
  -70.9900000000000        -1.665465878741244E-019
  -70.8000000000000         3.573793926425287E-019
  -70.6100000000000         6.108323318187763E-019
  -70.4200000000000         3.298688081720466E-019
  -70.2300000000000        -2.485813850790190E-019
  -70.0400000000000        -6.068422055662986E-019
  -69.8500000000000        -4.339308415953014E-019
  -69.6600000000000         8.329116468791947E-020
  -69.4700000000000         4.425972245742603E-019
  -69.2800000000000         3.078635902877538E-019
  -69.0900000000000        -1.712206049171185E-019
  -68.9000000000000        -5.067777461086249E-019
  -68.7100000000000        -3.453280528072047E-019
  -68.5200000000000         1.877791705197951E-019
  -68.3300000000000         6.022788190925920E-019
  -68.1400000000000         5.078240973465715E-019
  -67.9500000000000        -1.292718900760959E-020
  -67.7600000000000        -4.796139274984258E-019
  -67.5700000000000        -4.677514842046018E-019
  -67.3800000000000        -9.005176114510020E-021
  -67.1900000000000         4.430532071815806E-019
  -67.0000000000000         4.478370615952395E-019
  -66.8100000000000        -2.448731327970252E-021
  -66.6200000000000        -4.776375343746784E-019
  -66.4300000000000        -5.222466174006578E-019
  -66.2400000000000        -9.146068001806087E-020
  -66.0500000000000         4.056581104893025E-019
  -65.8600000000000         4.972250287186102E-019
  -65.6700000000000         1.002673267655957E-019
  -65.4800000000000        -3.993672311994583E-019
  -65.2900000000000        -5.159397217342622E-019
  -65.1000000000000        -1.287728854747456E-019
  -64.9100000000000         4.012811791134317E-019
  -64.7200000000000         5.750258957025973E-019
  -64.5300000000000         2.303914523511456E-019
  -64.3400000000000        -3.031871710193310E-019
  -64.1500000000000        -5.191170300123213E-019
  -63.9600000000000        -2.171958883328422E-019
  -63.7700000000000         3.056407415914463E-019
  -63.5800000000000         5.400659040574263E-019
  -63.3900000000000         2.521520518163462E-019
  -63.2000000000000        -2.924371034435701E-019
  -63.0100000000000        -5.817198809871107E-019
  -62.8200000000000        -3.457759186794006E-019
  -62.6300000000000         1.858557282755879E-019
  -62.4400000000000         5.034579697438089E-019
  -62.2500000000000         3.045115519050022E-019
  -62.0600000000000        -2.159223868896641E-019
  -61.8700000000000        -5.501690934590647E-019
  -61.6800000000000        -3.627790546002138E-019
  -61.4900000000000         1.873948618105494E-019
  -61.3000000000000         5.952792255296138E-019
  -61.1100000000000         4.866820639706932E-019
  -60.9200000000000        -2.941967891640214E-020
  -60.7300000000000        -4.674427605730627E-019
  -60.5400000000000        -4.279422995873379E-019
  -60.3500000000000         2.479686875053808E-020
  -60.1600000000000         4.301827970459634E-019
  -59.9700000000000         3.781884005248384E-019
  -59.7800000000000        -9.336434452039058E-020
  -59.5900000000000        -5.324371929079074E-019
  -59.4000000000000        -5.052607362016167E-019
  -59.2100000000000        -1.381300324743082E-020
  -59.0200000000000         5.008791039689927E-019
  -58.8300000000000         5.736383500432786E-019
  -58.6400000000000         1.537645119720889E-019
  -58.4500000000000        -3.501750347857657E-019
  -58.2600000000000        -4.618968135038791E-019
  -58.0700000000000        -9.111571626849182E-020
  -57.8800000000000         3.841035256099933E-019
  -57.6900000000000         4.839458210646854E-019
  -57.5000000000000         9.033499590760881E-020
  -57.3100000000000        -4.364573833557305E-019
  -57.1200000000000        -5.997643976445187E-019
  -56.9300000000000        -2.410020661776140E-019
  -56.7400000000000         3.064467397390415E-019
  -56.5500000000000         5.324756971836305E-019
  -56.3600000000000         2.353351906603349E-019
  -56.1700000000000        -2.865627112001630E-019
  -55.9800000000000        -5.200823392721303E-019
  -55.7900000000000        -2.278506820282896E-019
  -55.6000000000000         3.242104638936805E-019
  -55.4100000000000         6.189343400133529E-019
  -55.2200000000000         3.791899594621223E-019
  -55.0300000000000        -1.692196711056400E-019
  -54.8400000000000        -5.131376993171939E-019
  -54.6500000000000        -3.405277188635565E-019
  -54.4600000000000         1.642542116817338E-019
  -54.2700000000000         5.000252120786378E-019
  -54.0800000000000         3.304924002046246E-019
  -53.8900000000000        -1.931841034706792E-019
  -53.7000000000000        -5.768002573396672E-019
  -53.5100000000000        -4.555786511742546E-019
  -53.3200000000000         5.662154942310651E-020
  -53.1300000000000         4.746239111961066E-019
  -52.9400000000000         4.039752893277682E-019
  -52.7500000000000        -8.277105559079626E-020
  -52.5600000000000        -5.151197208883956E-019
  -52.3700000000000        -4.734578962769500E-019
  -52.1800000000000         1.119953526297545E-020
  -51.9900000000000         4.879695025832974E-019
  -51.8000000000000         5.167177962102236E-019
  -51.6100000000000         8.660861314381748E-020
  -51.4200000000000        -3.766264991733706E-019
  -51.2300000000000        -4.210480269540541E-019
  -51.0400000000000        -3.940458027448672E-021
  -50.8500000000000         4.652356622771856E-019
  -50.6600000000000         5.172036760978458E-019
  -50.4700000000000         7.570600376552567E-020
  -50.2800000000000        -4.634150162575910E-019
  -50.0900000000000        -6.040428833011186E-019
  -49.9000000000000        -2.188235223442589E-019
  -49.7100000000000         3.308212441497142E-019
  -49.5200000000000         5.375769772327751E-019
  -49.3300000000000         2.278513212260815E-019
  -49.1400000000000        -2.780061206608693E-019
  -48.9500000000000        -4.768466132912641E-019
  -48.7600000000000        -1.672745473827994E-019
  -48.5700000000000         3.561733270804474E-019
  -48.3800000000000         5.848111298440373E-019
  -48.1900000000000         2.835774161191590E-019
  -48.0000000000000        -2.814776335722299E-019
  -47.8100000000000        -5.932425527000869E-019
  -47.6200000000000        -3.732807448985396E-019
  -47.4300000000000         1.549439809240004E-019
  -47.2400000000000         4.804356954063117E-019
  -47.0500000000000         2.926039651621695E-019
  -46.8600000000000        -2.230000895632674E-019
  -46.6700000000000        -5.635359523860454E-019
  -46.4800000000000        -3.906454154730234E-019
  -46.2900000000000         1.456545575365664E-019
  -46.1000000000000         5.496555065969596E-019
  -45.9100000000000         4.521083467659200E-019
  -45.7200000000000        -3.892217566082644E-020
  -45.5300000000000        -4.432445480244880E-019
  -45.3400000000000        -3.693716041199763E-019
  -45.1500000000000         1.097382713217336E-019
  -44.9600000000000         5.262339718747222E-019
  -44.7700000000000         4.661693435124988E-019
  -44.5800000000000        -3.200805341884371E-020
  -44.3900000000000        -5.106072522535757E-019
  -44.2000000000000        -5.262522563707609E-019
  -44.0100000000000        -7.096658875628719E-020
  -43.8200000000000         4.201585055849424E-019
  -43.6300000000000         4.824776552354237E-019
  -43.4400000000000         6.304283117875790E-020
  -43.2500000000000        -4.310499871433073E-019
  -43.0600000000000        -5.231043188709826E-019
  -42.8700000000000        -1.224830102114377E-019
  -42.6800000000000         3.898839917612105E-019
  -42.4900000000000         5.267655829045531E-019
  -42.3000000000000         1.608651030038058E-019
  -42.1100000000000        -3.532250262628627E-019
  -41.9200000000000        -5.179207104534755E-019
  -41.7300000000000        -1.693327794758443E-019
  -41.5400000000000         3.638038237127707E-019
  -41.3500000000000         5.720449548700893E-019
  -41.1600000000000         2.507707938825047E-019
  -40.9700000000000        -3.045146808936491E-019
  -40.7800000000000        -5.792492852210335E-019
  -40.5900000000000        -3.282281167761116E-019
  -40.4000000000000         1.943539439218251E-019
  -40.2100000000000         4.813771773382984E-019
  -40.0200000000000         2.595937164054571E-019
  -39.8300000000000        -2.485279760794647E-019
  -39.6400000000000        -5.387678337690313E-019
  -39.4500000000000        -3.107195755978645E-019
  -39.2600000000000         2.402761287440341E-019
  -39.0700000000000         6.054294191540716E-019
  -38.8800000000000         4.457180439010611E-019
  -38.6900000000000        -8.501505902967563E-020
  -38.5000000000000        -4.853221216187303E-019
  -38.3100000000000        -3.820366926108432E-019
  -38.1200000000000         1.157077532362617E-019
  -37.9300000000000         5.216341884173187E-019
  -37.7400000000000         4.370452878728838E-019
  -37.5500000000000        -6.805341792165691E-020
  -37.3600000000000        -5.213901078091080E-019
  -37.1700000000000        -4.986154755449508E-019
  -36.9800000000000        -2.706068699151617E-020
  -36.7900000000000         4.416024224543952E-019
  -36.6000000000000         4.626457291790993E-019
  -36.4100000000000         2.199959330103259E-020
  -36.2200000000000        -4.513495731591345E-019
  -36.0300000000000        -4.960736416859869E-019
  -35.8400000000000        -6.025781989337068E-020
  -35.6500000000000         4.480327190980639E-019
  -35.4600000000000         5.495790614206079E-019
  -35.2700000000000         1.502200320419125E-019
  -35.0800000000000        -3.708663879415601E-019
  -34.8900000000000        -5.235464468731728E-019
  -34.7000000000000        -1.730115876604562E-019
  -34.5100000000000         3.344380204791365E-019
  -34.3200000000000         5.051931560574774E-019
  -34.1300000000000         1.721996779207723E-019
  -33.9400000000000        -3.448414851445674E-019
  -33.7500000000000        -5.466946252686575E-019
  -33.5600000000000        -2.346758716359893E-019
  -33.3700000000000         2.969693887528682E-019
  -33.1800000000000         5.410827676581297E-019
  -32.9900000000000         2.624889864286813E-019
  -32.8000000000000        -2.755582417937405E-019
  -32.6100000000000        -5.605734332435374E-019
  -32.4200000000000        -3.193673296163584E-019
  -32.2300000000000         2.200887436234623E-019
  -32.0400000000000         5.448194702536587E-019
  -31.8500000000000         3.457607716754883E-019
  -31.6600000000000        -1.875629666114997E-019
  -31.4700000000000        -5.481510122652975E-019
  -31.2800000000000        -3.951834078602845E-019
  -31.0900000000000         1.213061372864490E-019
  -30.9000000000000         5.041211750212883E-019
  -30.7100000000000         3.842210723614664E-019
  -30.5200000000000        -1.252126540462303E-019
  -30.3300000000000        -5.344239912166734E-019
  -30.1400000000000        -4.430051129450640E-019
  -29.9500000000000         7.792707012716895E-020
  -29.7600000000000         5.519123378418466E-019
  -29.5700000000000         5.482334941039034E-019
  -29.3800000000000         8.802967956445022E-020
  -29.1900000000000        -3.800357212635237E-019
  -29.0000000000000        -4.096460408715257E-019
  -28.8100000000000         1.787820651485087E-020
  -28.6200000000000         4.779772319509092E-019
  -28.4300000000000         5.113068350884862E-019
  -28.2400000000000         6.533738842542527E-020
  -28.0500000000000        -4.537316567532820E-019
  -27.8600000000000        -5.681550732148527E-019
  -27.6700000000000        -1.839504162108251E-019
  -27.4800000000000         3.207786788604801E-019
  -27.2900000000000         4.580812634717787E-019
  -27.1000000000000         9.671662483538927E-020
  -26.9100000000000        -4.124062001850702E-019
  -26.7200000000000        -5.721191251580830E-019
  -26.5300000000000        -2.156550971633241E-019
  -26.3400000000000         3.320604339939869E-019
  -26.1500000000000         5.633256221534711E-019
  -25.9600000000000         2.712970894744161E-019
  -25.7700000000000        -2.540033039800567E-019
  -25.5800000000000        -5.039381616090856E-019
  -25.3900000000000        -2.376642392070076E-019
  -25.2000000000000         2.873944297939617E-019
  -25.0100000000000         5.613206278030941E-019
  -24.8200000000000         3.100784056329269E-019
  -24.6300000000000        -2.398412274789595E-019
  -24.4400000000000        -5.745568493866594E-019
  -24.2500000000000        -3.811611361163860E-019
  -24.0600000000000         1.548398648154949E-019
  -23.8700000000000         5.265855059269868E-019
  -23.6800000000000         3.880623180049643E-019
  -23.4900000000000        -1.179926913034833E-019
  -23.3000000000000        -4.982972131761370E-019
  -23.1100000000000        -3.812917344174301E-019
  -22.9200000000000         1.271266311333234E-019
  -22.7300000000000         5.443920283119048E-019
  -22.5400000000000         4.723166855669915E-019
  -22.3500000000000        -2.282685098495638E-020
  -22.1600000000000        -4.744299973775405E-019
  -21.9700000000000        -4.615231966594552E-019
  -21.7800000000000        -9.969384526519646E-021
  -21.5900000000000         4.337337118876239E-019
  -21.4000000000000         4.306669028455440E-019
  -21.2100000000000        -2.897852087061923E-020
  -21.0200000000000        -5.140947816070069E-019
  -20.8300000000000        -5.629441575685921E-019
  -20.6400000000000        -1.238558733286549E-019
  -20.4500000000000         3.951092726576655E-019
  -20.2600000000000         5.148336595133506E-019
  -20.0700000000000         1.406103511527771E-019
  -19.8800000000000        -3.500266316399820E-019
  -19.6900000000000        -4.704062340280339E-019
  -19.5000000000000        -9.230801738412495E-020
  -19.3100000000000         4.286572151007798E-019
  -19.1200000000000         5.911272147881857E-019
  -18.9300000000000         2.277519460891372E-019
  -18.7400000000000        -3.321943224744386E-019
  -18.5500000000000        -5.737109854591883E-019
  -18.3600000000000        -2.840792081360507E-019
  -18.1700000000000         2.471258051175049E-019
  -17.9800000000000         5.057403247591653E-019
  -17.7900000000000         2.433342778719365E-019
  -17.6000000000000        -2.866586598731324E-019
  -17.4100000000000        -5.716943428720251E-019
  -17.2200000000000        -3.300891406705527E-019
  -17.0300000000000         2.197320039944316E-019
  -16.8400000000000         5.677334093057586E-019
  -16.6500000000000         3.983929975207614E-019
  -16.4600000000000        -1.103825768153760E-019
  -16.2700000000000        -4.599483728785508E-019
  -16.0800000000000        -3.090800945465723E-019
  -15.8900000000000         1.989000029996847E-019
  -15.7000000000000         5.721318758972640E-019
  -15.5100000000000         4.400731110303955E-019
  -15.3200000000000        -9.128137580849652E-020
  -15.1300000000000        -5.388076502102198E-019
  -14.9400000000000        -5.015429954969462E-019
  -14.7500000000000        -4.047587575468745E-020
  -14.5600000000000         3.837935206742924E-019
  -14.3700000000000         3.546805377305993E-019
  -14.1800000000000        -1.001195379514205E-019
  -13.9900000000000        -5.343756334438724E-019
  -13.8000000000000        -5.111647346912710E-019
  -13.6100000000000        -2.436368259422632E-020
  -13.4200000000000         4.903407362755706E-019
  -13.2300000000000         5.673984222887515E-019
  -13.0400000000000         1.533153014134744E-019
  -12.8500000000000        -3.437998186591143E-019
  -12.6600000000000        -4.441677743610705E-019
  -12.4700000000000        -5.359314034111595E-020
  -12.2800000000000         4.474008362384993E-019
  -12.0900000000000         5.672340065681434E-019
  -11.9000000000000         1.735834283516459E-019
  -11.7100000000000        -3.780183112601999E-019
  -11.5200000000000        -5.808090493347666E-019
  -11.3300000000000        -2.579589984170465E-019
  -11.1400000000000         2.709851090000329E-019
  -10.9500000000000         4.966478021509198E-019
  -10.7600000000000         2.059104368346919E-019
  -10.5700000000000        -3.160363621137262E-019
  -10.3800000000000        -5.594811353061949E-019
  -10.1900000000000        -2.784365034993619E-019
  -10.0000000000000         2.723530877623572E-019
  -9.81000000000000         5.784488750230666E-019
  -9.62000000000000         3.552756197484610E-019
  -9.42999999999999        -1.815923847034292E-019
  -9.23999999999999        -5.234795099975476E-019
  -9.05000000000000        -3.540141563667889E-019
  -8.86000000000000         1.512552896654444E-019
  -8.67000000000000         4.959152177247544E-019
  -8.48000000000000         3.396676568307289E-019
  -8.28999999999999        -1.746118955803642E-019
  -8.09999999999999        -5.564162699416510E-019
  -7.91000000000000        -4.368394613682051E-019
  -7.72000000000000         7.723712558331861E-020
  -7.53000000000000         5.036650823701305E-019
  -7.34000000000000         4.446249068800230E-019
  -7.15000000000001        -3.410339040971891E-020
  -6.95999999999999        -4.662823105810696E-019
  -6.77000000000000        -4.303307072989606E-019
  -6.58000000000000         4.772587791256719E-020
  -6.39000000000000         5.176028383815200E-019
  -6.20000000000000         5.330994151939682E-019
  -6.01000000000001         7.750323296014367E-020
  -5.81999999999999        -4.205075574732896E-019
  -5.63000000000000        -4.960919924620379E-019
  -5.44000000000000        -9.120822738374313E-020
  -5.25000000000000         3.919817391942003E-019
  -5.06000000000000         4.774708086334228E-019
  -4.87000000000000         7.216278016207061E-020
  -4.67999999999999        -4.428243644859128E-019
  -4.48999999999999        -5.739712613881659E-019
  -4.30000000000000        -1.860075716488962E-019
  -4.11000000000000         3.677713673675650E-019
  -3.92000000000000         5.805251325631243E-019
  -3.73000000000000         2.723187398471861E-019
  -3.53999999999999        -2.426277350840676E-019
  -3.34999999999999        -4.600311994645068E-019
  -3.16000000000000        -1.690401441527251E-019
  -2.97000000000000         3.463486303059028E-019
  -2.78000000000000         5.795088067642111E-019
  -2.59000000000000         2.872536679671131E-019
  -2.40000000000001        -2.745066873093948E-019
  -2.20999999999999        -5.919045853566070E-019
  -2.02000000000000        -3.817184671606310E-019
  -1.83000000000000         1.396208895170192E-019
  -1.64000000000000         4.638787024238062E-019
  -1.45000000000000         2.768302797444648E-019
  -1.26000000000001        -2.417517755321358E-019
  -1.06999999999999        -5.897769555683784E-019
 -0.879999999999995        -4.226354390796724E-019
 -0.689999999999998         1.161482502514615E-019
 -0.500000000000000         5.295302452692108E-019
 -0.310000000000002         4.393273796792325E-019
 -0.120000000000005        -5.469416793215401E-020
  7.000000000000739E-002   -4.720922532418791E-019
  0.260000000000005        -4.115149322032537E-019
  0.450000000000003         6.683238168243167E-020
  0.640000000000001         5.003293926535727E-019
  0.829999999999998         4.672045268286913E-019
   1.02000000000000        -9.010345939944881E-021
   1.21000000000001        -4.797709340162135E-019
   1.40000000000001        -4.980528631271254E-019
   1.59000000000000        -4.444895228101740E-020
   1.78000000000000         4.543101518693692E-019
   1.97000000000000         5.318927211406494E-019
   2.16000000000000         1.251850325721676E-019
   2.34999999999999        -3.686728270196872E-019
   2.54000000000001        -4.737894806380317E-019
   2.73000000000000        -9.069795973208917E-020
   2.92000000000000         4.090744875482224E-019
   3.11000000000000         5.394854260671479E-019
   3.30000000000000         1.668967305554811E-019
   3.48999999999999        -3.601772692199968E-019
   3.68000000000001        -5.438807445001856E-019
   3.87000000000000        -2.138569360311534E-019
   4.06000000000000         3.087447513089576E-019
   4.25000000000000         5.171749160622412E-019
   4.44000000000000         2.030327745147309E-019
   4.63000000000000        -3.431845064410589E-019
   4.82000000000001        -6.067806844173490E-019
   5.01000000000001        -3.381165967435984E-019
   5.20000000000000         2.099543370501333E-019
   5.39000000000000         5.236885173656093E-019
   5.58000000000000         3.184370648130738E-019
   5.77000000000000        -1.913571237130643E-019
   5.96000000000001        -4.995061858095669E-019
   6.15000000000001        -2.939456840398196E-019
   6.34000000000000         2.425103565452673E-019
   6.53000000000000         6.034484595815356E-019