  -105.000000000000        -5.502363894386515E-020
  -104.810000000000        -1.517239670339486E-019
  -104.620000000000        -2.128698488517609E-019
  -104.430000000000        -2.269630194451720E-019
  -104.240000000000        -1.956447229020940E-019
  -104.050000000000        -1.330913257218597E-019
  -103.860000000000        -6.180340747015832E-020
  -103.670000000000        -6.012985196728774E-021
  -103.480000000000         1.537402760250915E-020
  -103.290000000000        -5.750689254969293E-021
  -103.100000000000        -6.439799040166361E-020
  -102.910000000000        -1.440116025965906E-019
  -102.720000000000        -2.213721514814322E-019
  -102.530000000000        -2.734414084516853E-019
  -102.340000000000        -2.841558677747953E-019
  -102.150000000000        -2.491974648145592E-019
  -101.960000000000        -1.773554244820971E-019
  -101.770000000000        -8.807839998053511E-020
  -101.580000000000        -5.918995929082145E-021
  -101.390000000000         4.652321882949825E-020
  -101.200000000000         5.511234568510917E-020
  -101.010000000000         1.824601864239409E-020
  -100.820000000000        -5.270150757712904E-020
  -100.630000000000        -1.366917107943689E-019
  -100.440000000000        -2.091239436054794E-019
  -100.250000000000        -2.489527646380624E-019
  -100.060000000000        -2.447569264988509E-019
  -99.8700000000000        -1.980067435026266E-019
  -99.6800000000000        -1.225910934095759E-019
  -99.4900000000000        -4.074678021245152E-020
  -99.3000000000000         2.342881155927256E-020
  -99.1100000000000         5.100218330985583E-020
  -98.9200000000000         3.372756274657094E-020
  -98.7300000000000        -2.353629780630180E-020
  -98.5400000000000        -1.042223411152332E-019
  -98.3500000000000        -1.848604823641268E-019
  -98.1600000000000        -2.418934602474894E-019
  -97.9700000000000        -2.585186829766579E-019
  -97.7800000000000        -2.295659839331753E-019
  -97.5900000000000        -1.629959799779055E-019
  -97.4000000000000        -7.758782024570645E-020
  -97.2100000000000         2.509667213280208E-021
  -97.0200000000000         5.478229642422350E-020
  -96.8300000000000         6.487940944350041E-020
  -96.6400000000000         3.077251939823113E-020
  -96.4500000000000        -3.666648647091914E-020
  -96.2600000000000        -1.168394258285322E-019
  -96.0700000000000        -1.854276917886282E-019
  -95.8800000000000        -2.214824755403413E-019
  -95.6900000000000        -2.135345438558027E-019
  -95.5000000000000        -1.629453648472773E-019
  -95.3100000000000        -8.352673732605386E-020
  -95.1200000000000         2.458046446594201E-021
  -94.9300000000000         7.074972022593755E-020
  -94.7400000000000         1.021340320648025E-019
  -94.5500000000000         8.802827275108180E-020
  -94.3600000000000         3.299214963737946E-020
  -94.1700000000000        -4.657136115930465E-020
  -93.9800000000000        -1.271573313665010E-019
  -93.7900000000000        -1.849735094362687E-019
  -93.6000000000000        -2.028511889846407E-019
  -93.4100000000000        -1.752412576043102E-019
  -93.2200000000000        -1.098390860031186E-019
  -93.0300000000000        -2.536428689555706E-020
  -92.8400000000000         5.385840431305124E-020
  -92.6500000000000         1.049426122229224E-019
  -92.4600000000000         1.130669891183596E-019
  -92.2700000000000         7.576988197501846E-020
  -92.0800000000000         3.673863857142711E-021
  -91.8900000000000        -8.256747230905468E-020
  -91.7000000000000        -1.582189891347352E-019
  -91.5100000000000        -2.015910556300013E-019
  -91.3200000000000        -2.002813144762103E-019
  -91.1300000000000        -1.547208073681874E-019
  -90.9400000000000        -7.799510175843456E-020
  -90.7500000000000         8.004686999174513E-021
  -90.5600000000000         7.897640742195006E-020
  -90.3700000000000         1.152820198877184E-019
  -90.1800000000000         1.076440638107372E-019
  -89.9900000000000         5.980989279046826E-020
  -89.8000000000000        -1.258568647656586E-020
  -89.6100000000000        -8.662502731792732E-020
  -89.4200000000000        -1.388408744756885E-019
  -89.2300000000000        -1.521227960086999E-019
  -89.0400000000000        -1.207892455365080E-019
  -88.8500000000000        -5.234658626284681E-020
  -88.6600000000000         3.458415211371678E-020
  -88.4700000000000         1.155786711528807E-019
  -88.2800000000000         1.674219540836628E-019
  -88.0900000000000         1.747896875588587E-019
  -87.9000000000000         1.346646543977796E-019
  -87.7100000000000         5.721563325796481E-020
  -87.5200000000000        -3.710633460364328E-020
  -87.3300000000000        -1.234075272508143E-019
  -87.1400000000000        -1.794380196504432E-019
  -86.9500000000000        -1.918820666513900E-019
  -86.7600000000000        -1.600422995106106E-019
  -86.5700000000000        -9.586125650492094E-020
  -86.3800000000000        -2.028411838499414E-020
  -86.1900000000000         4.297094862937719E-020
  -86.0000000000000         7.441366049473976E-020
  -85.8100000000000         6.450913216867654E-020
  -85.6200000000000         1.646296614746777E-020
  -85.4300000000000        -5.474210972152426E-020
  -85.2400000000000        -1.267691270442025E-019
  -85.0500000000000        -1.765147841730879E-019
  -84.8600000000000        -1.869427553504501E-019
  -84.6700000000000        -1.521754660030165E-019
  -84.4800000000000        -7.936314538237240E-020
  -84.2900000000000         1.322015703609841E-020
  -84.1000000000000         1.013147322789441E-019
  -83.9100000000000         1.615719716665650E-019
  -83.7200000000000         1.782192253629014E-019
  -83.5300000000000         1.475614769538094E-019
  -83.3400000000000         7.901046193384847E-020
  -83.1500000000000        -7.660729918319779E-021
  -82.9600000000000        -8.804100177669272E-020
  -82.7700000000000        -1.401202643621770E-019
  -82.5800000000000        -1.506030969681132E-019
  -82.3900000000000        -1.186717601486810E-019
  -82.2000000000000        -5.611566440838629E-020
  -82.0100000000000         1.620406947202679E-020
  -81.8200000000000         7.452737473890215E-020
  -81.6300000000000         9.921355872065965E-020
  -81.4400000000000         8.056440105857316E-020
  -81.2500000000000         2.175309803764858E-020
  -81.0600000000000        -6.200189318716564E-020
  -80.8700000000000        -1.477864495727424E-019
  -80.6800000000000        -2.116039761682207E-019
  -80.4900000000000        -2.353305236659392E-019
  -80.3000000000000        -2.119889568403300E-019
  -80.1100000000000        -1.478076080834043E-019
  -79.9200000000000        -6.046277024241460E-020
  -79.7300000000000         2.598865030723652E-020
  -79.5400000000000         8.802073385660101E-020
  -79.3500000000000         1.093936296634213E-019
  -79.1600000000000         8.579399748725839E-020
  -78.9700000000000         2.601178378427600E-020
  -78.7800000000000        -5.069309855831879E-020
  -78.5900000000000        -1.202719317764249E-019
  -78.4000000000000        -1.609618244893999E-019
  -78.2100000000000        -1.596884943107757E-019
  -78.0200000000000        -1.159267217983464E-019
  -77.8300000000000        -4.189173187736664E-020
  -77.6400000000000         4.099399599173320E-020
  -77.4500000000000         1.083310881342299E-019
  -77.2600000000000         1.398626816052441E-019
  -77.0700000000000         1.254178484006927E-019
  -76.8800000000000         6.795154955829359E-020
  -76.6900000000000        -1.721089248908881E-020
  -76.5000000000000        -1.067201334488942E-019
  -76.3100000000000        -1.758913110180278E-019
  -76.1200000000000        -2.057990358315138E-019
  -75.9300000000000        -1.887180899208670E-019
  -75.7400000000000        -1.303271336051585E-019
  -75.5500000000000        -4.803585685558696E-020
  -75.3600000000000         3.407324633106833E-020
  -75.1700000000000         9.221245609129124E-020
  -74.9800000000000         1.097397975519981E-019
  -74.7900000000000         8.191042341562382E-020
  -74.6000000000000         1.716333628013791E-020
  -74.4100000000000        -6.541314360117588E-020
  -74.2200000000000        -1.416878871949496E-019
  -74.0300000000000        -1.895300496772965E-019
  -73.8400000000000        -1.952402329189130E-019
  -73.6500000000000        -1.575006791448953E-019
  -73.4600000000000        -8.769850010463688E-020
  -73.2700000000000        -6.535036639750376E-021
  -73.0800000000000         6.207982089043153E-020
  -72.8900000000000         9.805752543880356E-020
  -72.7000000000000         9.102912249957897E-020
  -72.5100000000000         4.339274395564585E-020
  -72.3200000000000        -3.037348076566790E-020
  -72.1300000000000        -1.079293056815605E-019
  -71.9400000000000        -1.655925212337229E-019
  -71.7500000000000        -1.852656722743130E-019
  -71.5600000000000        -1.597558347662205E-019
  -71.3700000000000        -9.494018809138623E-020
  -71.1800000000000        -8.146476453201165E-021
  -70.9900000000000         7.678206271976856E-020
  -70.8000000000000         1.363048475847599E-019
  -70.6100000000000         1.539096519162770E-019
  -70.4200000000000         1.248046503093108E-019
  -70.2300000000000         5.723333633416933E-020
  -70.0400000000000        -2.994918677982171E-020
  -69.8500000000000        -1.127220399849679E-019
  -69.6600000000000        -1.687866248138225E-019
  -69.4700000000000        -1.839118177603862E-019
  -69.2800000000000        -1.559148094269489E-019
  -69.0900000000000        -9.513935593938375E-020
  -68.9000000000000        -2.130280429771143E-020
  -68.7100000000000         4.236707210009096E-020
  -68.5200000000000         7.599689190162640E-020
  -68.3300000000000         6.893223000351786E-020
  -68.1400000000000         2.289092103148141E-020
  -67.9500000000000        -4.851370732661628E-020
  -67.7600000000000        -1.237383654476109E-019
  -67.5700000000000        -1.796074754841942E-019
  -67.3800000000000        -1.981122475242418E-019
  -67.1900000000000        -1.717396141160304E-019
  -67.0000000000000        -1.057870964031922E-019
  -66.8100000000000        -1.698881608717444E-020
  -66.6200000000000         7.116111756819828E-020
  -66.4300000000000         1.350508971454091E-019
  -66.2400000000000         1.576529881249183E-019
  -66.0500000000000         1.333571822529539E-019
  -65.8600000000000         6.953996264864778E-020
  -65.6700000000000        -1.558513389194676E-020
  -65.4800000000000        -9.821742046237938E-020
  -65.2900000000000        -1.558045991275539E-019
  -65.1000000000000        -1.734923902759346E-019
  -64.9100000000000        -1.483298208053429E-019
  -64.7200000000000        -9.001969592918301E-020
  -64.5300000000000        -1.799883753971787E-020
  -64.3400000000000         4.430980796129757E-020
  -64.1500000000000         7.641275241479269E-020
  -63.9600000000000         6.682501727973253E-020
  -63.7700000000000         1.654208540318919E-020
  -63.5800000000000        -6.111637842840539E-020
  -63.3900000000000        -1.442601992542459E-019
  -63.2000000000000        -2.087006535194557E-019
  -63.0100000000000        -2.349258657018669E-019
  -62.8200000000000        -2.137586444331352E-019
  -62.6300000000000        -1.490585378238901E-019
  -62.4400000000000        -5.668685498295012E-020
  -62.2500000000000         3.996720437823672E-020
  -62.0600000000000         1.166117550744147E-019
  -61.8700000000000         1.549239305444240E-019
  -61.6800000000000         1.476918620259494E-019
  -61.4900000000000         1.007451621280455E-019
  -61.3000000000000         3.111424812548366E-020
  -61.1100000000000        -3.805172578704165E-020
  -60.9200000000000        -8.433471222571389E-020
  -60.7300000000000        -9.267062878083368E-020
  -60.5400000000000        -5.980993377401656E-020
  -60.3500000000000         4.691840825815884E-021
  -60.1600000000000         8.124836227464899E-020
  -59.9700000000000         1.459761229360012E-019
  -59.7800000000000         1.777174882842550E-019
  -59.5900000000000         1.643057780776337E-019
  -59.4000000000000         1.062427130375453E-019
  -59.2100000000000         1.670808325616952E-020
  -59.0200000000000        -8.211323889688280E-020
  -58.8300000000000        -1.653291032261216E-019
  -58.6400000000000        -2.124376045061739E-019
  -58.4500000000000        -2.131634499030745E-019
  -58.2600000000000        -1.703390200094565E-019
  -58.0700000000000        -9.899818322034638E-020
  -57.8800000000000        -2.195449411817947E-020
  -57.6900000000000         3.684432314881487E-020
  -57.5000000000000         5.925394066079412E-020
  -57.3100000000000         3.815449451295989E-020
  -57.1200000000000        -2.054998917358020E-020
  -56.9300000000000        -9.972375809167093E-020
  -56.7400000000000        -1.760554278533186E-019
  -56.5500000000000        -2.269043216619745E-019
  -56.3600000000000        -2.369408745707937E-019
  -56.1700000000000        -2.026402553636353E-019
  -55.9800000000000        -1.333118170086293E-019
  -55.7900000000000        -4.836163281379994E-020
  -55.6000000000000         2.840642209523364E-020
  -55.4100000000000         7.577414954328253E-020
  -55.2200000000000         8.132581901157338E-020
  -55.0300000000000         4.507870344663554E-020
  -54.8400000000000        -2.052847003393511E-020
  -54.6500000000000        -9.427916601697146E-020
  -54.4600000000000        -1.523898085073150E-019
  -54.2700000000000        -1.754815900437230E-019
  -54.0800000000000        -1.542890592577529E-019
  -53.8900000000000        -9.244606139941359E-020
  -53.7000000000000        -5.533354008651532E-021
  -53.5100000000000         8.334585516126649E-020
  -53.3200000000000         1.501875640056854E-019
  -53.1300000000000         1.769891254019276E-019
  -52.9400000000000         1.569294179872025E-019
  -52.7500000000000         9.632220588253643E-020
  -52.5600000000000         1.277457135468362E-020
  -52.3700000000000        -6.991553364973741E-020
  -52.1800000000000        -1.286421503124501E-019
  -51.9900000000000        -1.476576025790145E-019
  -51.8000000000000        -1.230873371145815E-019
  -51.6100000000000        -6.398131593843135E-020
  -51.4200000000000         1.040534337819812E-020
  -51.2300000000000         7.631302825928468E-020
  -51.0400000000000         1.124997897340759E-019
  -50.8500000000000         1.065366281577773E-019
  -50.6600000000000         5.853707277281807E-020
  -50.4700000000000        -1.876998679210580E-020
  -50.2800000000000        -1.036494252803113E-019
  -50.0900000000000        -1.716062648853135E-019
  -49.9000000000000        -2.024625042109888E-019
  -49.7100000000000        -1.862206743787689E-019
  -49.5200000000000        -1.260217332898656E-019
  -49.3300000000000        -3.734009094998253E-020
  -49.1400000000000         5.636120982733805E-020
  -48.9500000000000         1.302731707318749E-019
  -48.7600000000000         1.652724942970825E-019
  -48.5700000000000         1.533136272479936E-019
  -48.3800000000000         9.962121864841543E-020
  -48.1900000000000         2.104924509490767E-020
  -48.0000000000000        -5.891206182705138E-020
  -47.8100000000000        -1.170247173389025E-019
  -47.6200000000000        -1.370809079315709E-019
  -47.4300000000000        -1.146011739477324E-019
  -47.2400000000000        -5.809269211709985E-020
  -47.0500000000000         1.349174776387144E-020
  -46.8600000000000         7.635225347521186E-020
  -46.6700000000000         1.088712928244693E-019
  -46.4800000000000         9.803271283481610E-020
  -46.2900000000000         4.336333095296092E-020
  -46.1000000000000        -4.275475122857696E-020
  -45.9100000000000        -1.385016873366288E-019
  -45.7200000000000        -2.187844601750785E-019
  -45.5300000000000        -2.623664824019703E-019
  -45.3400000000000        -2.579003806570237E-019
  -45.1500000000000        -2.071238134010358E-019
  -44.9600000000000        -1.243047661524942E-019
  -44.7700000000000        -3.210942964604923E-020
  -44.5800000000000         4.490435408298618E-020
  -44.3900000000000         8.728683369791890E-020
  -44.2000000000000         8.617216141937955E-020
  -44.0100000000000         4.565644303275589E-020
  -43.8200000000000        -1.859930416897769E-020
  -43.6300000000000        -8.412414108450282E-020
  -43.4400000000000        -1.283561978403164E-019
  -43.2500000000000        -1.353592208734075E-019
  -43.0600000000000        -1.005733341328578E-019
  -42.8700000000000        -3.221609686453032E-020
  -42.6800000000000         5.106658267685418E-020
  -42.4900000000000         1.256045562553048E-019
  -42.3000000000000         1.695815858132434E-019
  -42.1100000000000         1.693862201948258E-019
  -41.9200000000000         1.235962310556877E-019
  -41.7300000000000         4.344952219827800E-020
  -41.5400000000000        -5.032706988607986E-020
  -41.3500000000000        -1.334088435760241E-019
  -41.1600000000000        -1.847798599384897E-019
  -40.9700000000000        -1.926614285218749E-019
  -40.7800000000000        -1.577554550476526E-019
  -40.5900000000000        -9.287611864721324E-020
  -40.4000000000000        -1.909133580240838E-020
  -40.2100000000000         4.049417472603479E-020
  -40.0200000000000         6.750384350059478E-020
  -39.8300000000000         5.364066057104783E-020
  -39.6400000000000         3.079694506111831E-021
  -39.4500000000000        -6.878417814261529E-020
  -39.2600000000000        -1.398650635012774E-019
  -39.0700000000000        -1.878753872345408E-019
  -38.8800000000000        -1.968898154419779E-019
  -38.6900000000000        -1.620720377846829E-019
  -38.5000000000000        -9.118321507233648E-020
  -38.3100000000000        -2.426882548966392E-021
  -38.1200000000000         8.074661304180383E-020
  -37.9300000000000         1.363673004636456E-019
  -37.7400000000000         1.502527231879450E-019
  -37.5500000000000         1.200702240813750E-019
  -37.3600000000000         5.598356364028957E-020
  -37.1700000000000        -2.230010633046889E-020
  -36.9800000000000        -9.123243895839614E-020
  -36.7900000000000        -1.302365848871693E-019
  -36.6000000000000        -1.276715665057765E-019
  -36.4100000000000        -8.422768847212303E-020
  -36.2200000000000        -1.276353642423703E-020
  -36.0300000000000         6.538449562324298E-020
  -35.8400000000000         1.265684959734913E-019
  -35.6500000000000         1.516939306964041E-019
  -35.4600000000000         1.317920766632166E-019
  -35.2700000000000         7.067618626550032E-020
  -35.0800000000000        -1.609767017550098E-020
  -34.8900000000000        -1.056695172235202E-019
  -34.7000000000000        -1.744301488199051E-019
  -34.5100000000000        -2.047937198598281E-019
  -34.3200000000000        -1.902271342521032E-019
  -34.1300000000000        -1.370781491136131E-019
  -33.9400000000000        -6.266820900422700E-020
  -33.7500000000000         9.803105859010182E-021
  -33.5600000000000         5.806816000042467E-020
  -33.3700000000000         6.733880307029603E-020
  -33.1800000000000         3.468420728988016E-020
  -32.9900000000000        -3.004288781237985E-020
  -32.8000000000000        -1.070137123206846E-019
  -32.6100000000000        -1.721633554127542E-019
  -32.4200000000000        -2.042084110305554E-019
  -32.2300000000000        -1.909117536265913E-019
  -32.0400000000000        -1.327734649961541E-019
  -31.8500000000000        -4.306301794764730E-020
  -31.6600000000000         5.583893639956366E-020
  -31.4700000000000         1.387513081552197E-019
  -31.2800000000000         1.848409410663043E-019
  -31.0900000000000         1.835381479525869E-019
  -30.9000000000000         1.374960651142164E-019
  -30.7100000000000         6.172609371875873E-020
  -30.5200000000000        -2.084141395231897E-020
  -30.3300000000000        -8.607406189379590E-020
  -30.1400000000000        -1.156685796556994E-019
  -29.9500000000000        -1.024459889871319E-019
  -29.7600000000000        -5.237410281616157E-020
  -29.5700000000000         1.726186355428284E-020
  -29.3800000000000         8.300059615563591E-020
  -29.1900000000000         1.221596856793527E-019
  -29.0000000000000         1.195815484965751E-019
  -28.8100000000000         7.220570728951070E-020
  -28.6200000000000        -9.870965398882730E-021
  -28.4300000000000        -1.061670796789162E-019
  -28.2400000000000        -1.916275511679892E-019
  -28.0500000000000        -2.437883526977533E-019
  -27.8600000000000        -2.492120023834426E-019
  -27.6700000000000        -2.073206962042706E-019
  -27.4800000000000        -1.305128707662157E-019
  -27.2900000000000        -4.053411849446483E-020
  -27.1000000000000         3.783402541042455E-020
  -26.9100000000000         8.392426608576943E-020
  -26.7200000000000         8.708977870611925E-020
  -26.5300000000000         4.965138872043946E-020
  -26.3400000000000        -1.396279656667723E-020
  -26.1500000000000        -8.162095209959993E-020
  -25.9600000000000        -1.301349327954607E-019
  -25.7700000000000        -1.421978446464207E-019
  -25.5800000000000        -1.115772179165515E-019
  -25.3900000000000        -4.504547641813554E-020
  -25.2000000000000         3.951107840777770E-020
  -25.0100000000000         1.182461669509858E-019
  -24.8200000000000         1.682652952147502E-019
  -24.6300000000000         1.742871795963238E-019
  -24.4400000000000         1.331251366247471E-019
  -24.2500000000000         5.469065603390850E-020
  -24.0600000000000        -4.077515835851908E-020
  -23.8700000000000        -1.284466916971258E-019
  -23.6800000000000        -1.859755205186043E-019
  -23.4900000000000        -1.998219413076590E-019
  -23.3000000000000        -1.690177516303443E-019
  -23.1100000000000        -1.052694168530280E-019
  -22.9200000000000        -2.938126621244600E-020
  -22.7300000000000         3.494411581672458E-020
  -22.5400000000000         6.810611817373173E-020
  -22.3500000000000         6.035764710398841E-020
  -22.1600000000000         1.463307540780882E-020
  -21.9700000000000        -5.436134901078963E-020
  -21.7800000000000        -1.245171763117318E-019
  -21.5900000000000        -1.728728846742642E-019
  -21.4000000000000        -1.824341315975864E-019
  -21.2100000000000        -1.472805944843587E-019
  -21.0200000000000        -7.446993772997440E-020
  -20.8300000000000         1.782493772422623E-020
  -20.6400000000000         1.054177305177462E-019
  -20.4500000000000         1.649808294540113E-019
  -20.2600000000000         1.807030876931365E-019
  -20.0700000000000         1.488093761850249E-019
  -19.8800000000000         7.863637970989550E-020
  -19.6900000000000        -1.004622879545826E-020
  -19.5000000000000        -9.269773583513295E-020
  -19.3100000000000        -1.470207932023787E-019
  -19.1200000000000        -1.593070853803522E-019
  -18.9300000000000        -1.282840446053668E-019
  -18.7400000000000        -6.535321290796343E-020
  -18.5500000000000         8.843738906735386E-021
  -18.3600000000000         7.052833594938746E-020
  -18.1700000000000         9.977885851006736E-020
  -17.9800000000000         8.637815945073264E-020
  -17.7900000000000         3.281784178715540E-020
  -17.6000000000000        -4.640630313662571E-020
  -17.4100000000000        -1.289918430959628E-019
  -17.2200000000000        -1.912934591671686E-019
  -17.0300000000000        -2.151772169044210E-019
  -16.8400000000000        -1.932845889172930E-019
  -16.6500000000000        -1.311879333163022E-019
  -16.4600000000000        -4.581366262316289E-020
  -16.2700000000000         3.941822692488277E-020
  -16.0800000000000         1.013423332583737E-019
  -15.8900000000000         1.237362621032602E-019
  -15.7000000000000         1.020092908766103E-019
  -15.5100000000000         4.452330686754028E-020
  -15.3200000000000        -2.984668542349597E-020
  -15.1300000000000        -9.721127278974797E-020
  -14.9400000000000        -1.356325444911895E-019
  -14.7500000000000        -1.315382402254670E-019
  -14.5600000000000        -8.372527871066706E-020
  -14.3700000000000        -3.792756842767300E-021
  -14.1800000000000         8.712186100259607E-020
  -13.9900000000000         1.643611339349795E-019
  -13.8000000000000         2.067832477324097E-019
  -13.6100000000000         2.027845994474235E-019
  -13.4200000000000         1.535734662203761E-019
  -13.2300000000000         7.275597905315491E-020
  -13.0400000000000        -1.763567466452740E-020
  -12.8500000000000        -9.351371457055210E-020
  -12.6600000000000        -1.356545245320868E-019
  -12.4700000000000        -1.351666073854536E-019
  -12.2800000000000        -9.593369638139781E-020
  -12.0900000000000        -3.333948403548978E-020
  -11.9000000000000         3.034556384911445E-020
  -11.7100000000000         7.257390050717076E-020
  -11.5200000000000         7.720946409109366E-020
  -11.3300000000000         3.935023117262759E-020
  -11.1400000000000        -3.312590646430760E-020
  -10.9500000000000        -1.217543513493591E-019
  -10.7600000000000        -2.027876576425441E-019
  -10.5700000000000        -2.540676254817379E-019
  -10.3800000000000        -2.614586719010091E-019
  -10.1900000000000        -2.229615228731809E-019
  -10.0000000000000        -1.493064808749830E-019
  -9.81000000000000        -6.085650992594059E-020
  -9.62000000000000         1.827383371720705E-020
  -9.42999999999999         6.717140991583002E-020
  -9.23999999999999         7.413182823701183E-020
  -9.05000000000000         3.998265363433904E-020
  -8.86000000000000        -2.223706811095308E-020
  -8.67000000000000        -9.114777915912206E-020
  -8.48000000000000        -1.433318493609720E-019
  -8.28999999999999        -1.602420751453055E-019
  -8.09999999999999        -1.337089872360074E-019
  -7.91000000000000        -6.844031968652403E-020
  -7.72000000000000         1.922293565549239E-020
  -7.53000000000000         1.059409726187067E-019
  -7.34000000000000         1.680601186322971E-019
  -7.15000000000001         1.884113531153444E-019
  -6.95999999999999         1.612521155823238E-019
  -6.77000000000000         9.391986398106723E-020
  -6.58000000000000         4.719678034530825E-021
  -6.39000000000000        -8.233845081805066E-020
  -6.20000000000000        -1.444203511571105E-019
  -6.01000000000001        -1.663626388691708E-019
  -5.81999999999999        -1.448934012018962E-019
  -5.63000000000000        -8.936018124254812E-020
  -5.44000000000000        -1.877311226185779E-020
  -5.25000000000000         4.395068569899723E-020
  -5.06000000000000         7.884208767907144E-020
  -4.87000000000000         7.482307735924491E-020
  -4.67999999999999         3.300309344292322E-020
  -4.48999999999999        -3.362822393871289E-020
  -4.30000000000000        -1.040191951976066E-019
  -4.11000000000000        -1.552744840872959E-019
  -3.92000000000000        -1.694660873907760E-019
  -3.73000000000000        -1.390515660811202E-019
  -3.53999999999999        -6.930856781025033E-020
  -3.34999999999999         2.294719001502339E-020
  -3.16000000000000         1.140142882315645E-019
  -2.97000000000000         1.799945493586266E-019
  -2.78000000000000         2.035820149050053E-019
  -2.59000000000000         1.789810238014589E-019
  -2.40000000000001         1.135281171814004E-019
  -2.20999999999999         2.555351240609727E-020
  -2.02000000000000        -6.089143310928584E-020
  -1.83000000000000        -1.229116787502442E-019
  -1.64000000000000        -1.452654708105197E-019
  -1.45000000000000        -1.246131574164758E-019
  -1.26000000000001        -7.030456319169280E-020
  -1.06999999999999        -1.492784805409400E-021
 -0.879999999999995         5.857723782710922E-020
 -0.689999999999998         8.944195405502830E-020
 -0.500000000000000         7.945730677400179E-020
 -0.310000000000002         2.925023660584575E-020
 -0.120000000000005        -4.841505617219880E-020
  7.000000000000739E-002   -1.323136364498590E-019
  0.260000000000005        -1.989094178812625E-019
  0.450000000000003        -2.291925405778071E-019
  0.640000000000001        -2.142220490799132E-019
  0.829999999999998        -1.577667243945741E-019
   1.02000000000000        -7.527397098132987E-020
   1.21000000000001         1.054436714779272E-020
   1.40000000000001         7.624076798366132E-020
   1.59000000000000         1.043887411951335E-019
   1.78000000000000         8.860733783206365E-020
   1.97000000000000         3.539083458109644E-020
   2.16000000000000        -3.779283478785615E-020
   2.34999999999999        -1.075869675097098E-019
   2.54000000000001        -1.515422665328334E-019
   2.73000000000000        -1.546587117394211E-019
   2.92000000000000        -1.137848011392063E-019
   3.11000000000000        -3.860559969286724E-020
   3.30000000000000         5.106849797369604E-020
   3.48999999999999         1.309388976446023E-019
   3.68000000000001         1.791670120332315E-019
   3.87000000000000         1.826376785668798E-019
   4.06000000000000         1.407321116502269E-019
   4.25000000000000         6.551501406017023E-020
   4.44000000000000        -2.172869413287925E-020
   4.63000000000000        -9.661546828460587E-020
   4.82000000000001        -1.386769469152716E-019
   5.01000000000001        -1.372377533694584E-019
   5.20000000000000        -9.445670004177866E-020
   5.39000000000000        -2.465137360615802E-020
   5.58000000000000         4.989964625839569E-020
   5.77000000000000         1.054651003757377E-019
   5.96000000000001         1.237997589606751E-019
   6.15000000000001         9.750573495040342E-020
   6.34000000000000         3.225875153498361E-020
   6.53000000000000        -5.475618618680599E-020