  -105.000000000000         0.000000000000000E+000
  -104.810000000000        -2.247487492377671E-020
  -104.620000000000        -5.016164933163007E-020
  -104.430000000000        -6.486147373519945E-020
  -104.240000000000        -6.402543024116164E-020
  -104.050000000000        -6.221028787698310E-020
  -103.860000000000        -7.618399132902639E-020
  -103.670000000000        -1.080402164981833E-019
  -103.480000000000        -1.425296498298061E-019
  -103.290000000000        -1.611997053418480E-019
  -103.100000000000        -1.598416912938252E-019
  -102.910000000000        -1.525407883791682E-019
  -102.720000000000        -1.583976247063511E-019
  -102.530000000000        -1.835411811246554E-019
  -102.340000000000        -2.155460719523931E-019
  -102.150000000000        -2.355192882820833E-019
  -101.960000000000        -2.362747395866530E-019
  -101.770000000000        -2.292385912527953E-019
  -101.580000000000        -2.335040181798425E-019
  -101.390000000000        -2.575026841823606E-019
  -101.200000000000        -2.908256470877343E-019
  -101.010000000000        -3.140395488625591E-019
  -100.820000000000        -3.171347924601184E-019
  -100.630000000000        -3.089771445962958E-019
  -100.440000000000        -3.087336658491155E-019
  -100.250000000000        -3.274716401362354E-019
  -100.060000000000        -3.575134867580974E-019
  -99.8700000000000        -3.797280915353494E-019
  -99.6800000000000        -3.818188514289267E-019
  -99.4900000000000        -3.701500765830676E-019
  -99.3000000000000        -3.637877400678736E-019
  -99.1100000000000        -3.764025928786631E-019
  -98.9200000000000        -4.032905769233696E-019
  -98.7300000000000        -4.258939208153370E-019
  -98.5400000000000        -4.295101499339415E-019
  -98.3500000000000        -4.173133460897779E-019
  -98.1600000000000        -4.073489339045583E-019
  -97.9700000000000        -4.153910582151774E-019
  -97.7800000000000        -4.400048326205596E-019
  -97.5900000000000        -4.640310885911658E-019
  -97.4000000000000        -4.710283994975350E-019
  -97.2100000000000        -4.609239880811834E-019
  -97.0200000000000        -4.499004427449535E-019
  -96.8300000000000        -4.546447883034456E-019
  -96.6400000000000        -4.760556017847351E-019
  -96.4500000000000        -4.980328850063489E-019
  -96.2600000000000        -5.025838039885052E-019
  -96.0700000000000        -4.869072029853342E-019
  -95.8800000000000        -4.662070124530409E-019
  -95.6900000000000        -4.595600659759300E-019
  -95.5000000000000        -4.722983994337011E-019
  -95.3100000000000        -4.916509430925819E-019
  -95.1200000000000        -4.996715967196634E-019
  -94.9300000000000        -4.909381923036464E-019
  -94.7400000000000        -4.779807316881921E-019
  -94.5500000000000        -4.791914169832160E-019
  -94.3600000000000        -5.007773991785948E-019
  -94.1700000000000        -5.300833550992922E-019
  -93.9800000000000        -5.468238338115159E-019
  -93.7900000000000        -5.416843051564383E-019
  -93.6000000000000        -5.246684565861907E-019
  -93.4100000000000        -5.152919627244953E-019
  -93.2200000000000        -5.240005983960263E-019
  -93.0300000000000        -5.425179701746436E-019
  -92.8400000000000        -5.522591070514392E-019
  -92.6500000000000        -5.426886448519037E-019
  -92.4600000000000        -5.220209248121372E-019
  -92.2700000000000        -5.099688125131097E-019
  -92.0800000000000        -5.193797794695437E-019
  -91.8900000000000        -5.442320860534825E-019
  -91.7000000000000        -5.654350716798949E-019
  -91.5100000000000        -5.689045414970973E-019
  -91.3200000000000        -5.586800671470259E-019
  -91.1300000000000        -5.526120495270549E-019
  -90.9400000000000        -5.648056622209352E-019
  -90.7500000000000        -5.916407608498407E-019
  -90.5600000000000        -6.147604312861439E-019
  -90.3700000000000        -6.182301480415188E-019
  -90.1800000000000        -6.035451117374154E-019
  -89.9900000000000        -5.881969559188523E-019
  -89.8000000000000        -5.891790593930373E-019
  -89.6100000000000        -6.071568258802303E-019
  -89.4200000000000        -6.263409906298510E-019
  -89.2300000000000        -6.300608676820093E-019
  -89.0400000000000        -6.170525264960468E-019
  -88.8500000000000        -6.028523680525809E-019
  -88.6600000000000        -6.049647565929156E-019
  -88.4700000000000        -6.260064448929150E-019
  -88.2800000000000        -6.510004208088946E-019
  -88.0900000000000        -6.614936892976761E-019
  -87.9000000000000        -6.530716167431073E-019
  -87.7100000000000        -6.395434670017113E-019
  -87.5200000000000        -6.397710254184691E-019
  -87.3300000000000        -6.596721191535893E-019
  -87.1400000000000        -6.865263122797957E-019
  -86.9500000000000        -7.009751447783446E-019
  -86.7600000000000        -6.952567483438428E-019
  -86.5700000000000        -6.803029665105145E-019
  -86.3800000000000        -6.749867455933860E-019
  -86.1900000000000        -6.878774025361970E-019
  -86.0000000000000        -7.090271352095038E-019
  -85.8100000000000        -7.196917106689644E-019
  -85.6200000000000        -7.106817723611947E-019
  -85.4300000000000        -6.917342972054413E-019
  -85.2400000000000        -6.828334990870881E-019
  -85.0500000000000        -6.956264927174160E-019
  -84.8600000000000        -7.225495835725219E-019
  -84.6700000000000        -7.439843803486433E-019
  -84.4800000000000        -7.466315362883705E-019
  -84.2900000000000        -7.356356364183210E-019
  -84.1000000000000        -7.289958585775355E-019
  -83.9100000000000        -7.397375109503561E-019
  -83.7200000000000        -7.630014340146536E-019
  -83.5300000000000        -7.804674191668528E-019
  -83.3400000000000        -7.779228186414800E-019
  -83.1500000000000        -7.591884967730337E-019
  -82.9600000000000        -7.430347343268021E-019
  -82.7700000000000        -7.459097760729509E-019
  -82.5800000000000        -7.668483022377162E-019
  -82.3900000000000        -7.888849129018037E-019
  -82.2000000000000        -7.955673352609500E-019
  -82.0100000000000        -7.867567225064217E-019
  -81.8200000000000        -7.786030313055450E-019
  -81.6300000000000        -7.877186272578422E-019
  -81.4400000000000        -8.146737028430971E-019
  -81.2500000000000        -8.426097043158790E-019
  -81.0600000000000        -8.523943372184687E-019
  -80.8700000000000        -8.400110057162482E-019
  -80.6800000000000        -8.197591151699336E-019
  -80.4900000000000        -8.103617300981941E-019
  -80.3000000000000        -8.173371761475623E-019
  -80.1100000000000        -8.284601210038621E-019
  -79.9200000000000        -8.265282376563077E-019
  -79.7300000000000        -8.070605099541928E-019
  -79.5400000000000        -7.838350290407274E-019
  -79.3500000000000        -7.767931479966169E-019
  -79.1600000000000        -7.936921679957836E-019
  -78.9700000000000        -8.229175473613897E-019
  -78.7800000000000        -8.443034955209941E-019
  -78.5900000000000        -8.477010128856982E-019
  -78.4000000000000        -8.417048368925564E-019
  -78.2100000000000        -8.444091436990093E-019
  -78.0200000000000        -8.652372991745108E-019
  -77.8300000000000        -8.953462250266483E-019
  -77.6400000000000        -9.158013383476437E-019
  -77.4500000000000        -9.156462303503047E-019
  -77.2600000000000        -9.024792559360569E-019
  -77.0700000000000        -8.952926195100328E-019
  -76.8800000000000        -9.063267841229665E-019
  -76.6900000000000        -9.292851251556919E-019
  -76.5000000000000        -9.452492219317755E-019
  -76.3100000000000        -9.407348585436122E-019
  -76.1200000000000        -9.207055945133103E-019
  -75.9300000000000        -9.041362534971470E-019
  -75.7400000000000        -9.063256116027829E-019
  -75.5500000000000        -9.247619778376901E-019
  -75.3600000000000        -9.419504497389317E-019
  -75.1700000000000        -9.424406445143495E-019
  -74.9800000000000        -9.277444744540846E-019
  -74.7900000000000        -9.148521466092790E-019
  -74.6000000000000        -9.197498254739376E-019
  -74.4100000000000        -9.417183320676063E-019
  -74.2200000000000        -9.634920237632183E-019
  -74.0300000000000        -9.672476385770698E-019
  -73.8400000000000        -9.512934482421296E-019
  -73.6500000000000        -9.316220819955115E-019
  -73.4600000000000        -9.268553223058977E-019
  -73.2700000000000        -9.408920460494899E-019
  -73.0800000000000        -9.597358821998855E-019
  -72.8900000000000        -9.654361528238484E-019
  -72.7000000000000        -9.537441857891697E-019
  -72.5100000000000        -9.385739512524102E-019
  -72.3200000000000        -9.389903639231457E-019
  -72.1300000000000        -9.611225082872097E-019
  -71.9400000000000        -9.922107739763542E-019
  -71.7500000000000        -1.012412219159785E-018
  -71.5600000000000        -1.013080169915928E-018
  -71.3700000000000        -1.004117077728524E-018
  -71.1800000000000        -1.003505114715133E-018
  -70.9900000000000        -1.019204754282960E-018
  -70.8000000000000        -1.040916725673043E-018
  -70.6100000000000        -1.049727300988731E-018
  -70.4200000000000        -1.036486829125761E-018
  -70.2300000000000        -1.011338093287780E-018
  -70.0400000000000        -9.951631454511512E-019
  -69.8500000000000        -1.000895201235466E-018
  -69.6600000000000        -1.022292160401372E-018
  -69.4700000000000        -1.040682308522043E-018
  -69.2800000000000        -1.043094696835585E-018
  -69.0900000000000        -1.034393209539736E-018
  -68.9000000000000        -1.031872786081397E-018
  -68.7100000000000        -1.047647039257580E-018
  -68.5200000000000        -1.075887635140102E-018
  -68.3300000000000        -1.097349402966860E-018
  -68.1400000000000        -1.097068905424375E-018
  -67.9500000000000        -1.078455957967679E-018
  -67.7600000000000        -1.060309682034157E-018
  -67.5700000000000        -1.059477468883329E-018
  -67.3800000000000        -1.075531084312287E-018
  -67.1900000000000        -1.091909786598978E-018
  -67.0000000000000        -1.092294268106415E-018
  -66.8100000000000        -1.076511831690264E-018
  -66.6200000000000        -1.060817794475052E-018
  -66.4300000000000        -1.062366472250766E-018
  -66.2400000000000        -1.082768252914644E-018
  -66.0500000000000        -1.106471764127174E-018
  -65.8600000000000        -1.115531017551039E-018
  -65.6700000000000        -1.106640447438164E-018
  -65.4800000000000        -1.094130226829050E-018
  -65.2900000000000        -1.096037163266237E-018
  -65.1000000000000        -1.116569523658031E-018
  -64.9100000000000        -1.141750585215463E-018
  -64.7200000000000        -1.152445396206899E-018
  -64.5300000000000        -1.142381772363473E-018
  -64.3400000000000        -1.124001017090169E-018
  -64.1500000000000        -1.116565318690664E-018
  -63.9600000000000        -1.127869745074603E-018
  -63.7700000000000        -1.147014943027358E-018
  -63.5800000000000        -1.155126510208662E-018
  -63.3900000000000        -1.143741698253493E-018
  -63.2000000000000        -1.123254197227753E-018
  -63.0100000000000        -1.113323675636327E-018
  -62.8200000000000        -1.124393241748535E-018
  -62.6300000000000        -1.147945318525069E-018
  -62.4400000000000        -1.164788003510855E-018
  -62.2500000000000        -1.163455855788890E-018
  -62.0600000000000        -1.151130841043153E-018
  -61.8700000000000        -1.146600624464134E-018
  -61.6800000000000        -1.161931512158987E-018
  -61.4900000000000        -1.190358723724907E-018
  -61.3000000000000        -1.212020980779467E-018
  -61.1100000000000        -1.212193657792408E-018
  -60.9200000000000        -1.194797112296006E-018
  -60.7300000000000        -1.178462617208487E-018
  -60.5400000000000        -1.179002805777655E-018
  -60.3500000000000        -1.194991711361927E-018
  -60.1600000000000        -1.210085449984304E-018
  -59.9700000000000        -1.209649589633321E-018
  -59.7800000000000        -1.195561128023392E-018
  -59.5900000000000        -1.184843119250649E-018
  -59.4000000000000        -1.193346093141881E-018
  -59.2100000000000        -1.220088979609992E-018
  -59.0200000000000        -1.247330515495336E-018
  -58.8300000000000        -1.256490315727398E-018
  -58.6400000000000        -1.244941771522898E-018
  -58.4500000000000        -1.227842328436206E-018
  -58.2600000000000        -1.223384204105280E-018
  -58.0700000000000        -1.235600554741843E-018
  -57.8800000000000        -1.251106182735700E-018
  -57.6900000000000        -1.252745673455035E-018
  -57.5000000000000        -1.236914720033936E-018
  -57.3100000000000        -1.217822673260571E-018
  -57.1200000000000        -1.214486738026349E-018
  -56.9300000000000        -1.232802297547094E-018
  -56.7400000000000        -1.259818031656850E-018
  -56.5500000000000        -1.275771038462028E-018
  -56.3600000000000        -1.272501672598876E-018
  -56.1700000000000        -1.260736706352886E-018
  -55.9800000000000        -1.259316653981222E-018
  -55.7900000000000        -1.276671574057282E-018
  -55.6000000000000        -1.302251903754563E-018
  -55.4100000000000        -1.316128235705283E-018
  -55.2200000000000        -1.307661037981519E-018
  -55.0300000000000        -1.285505082721174E-018
  -54.8400000000000        -1.269457957587743E-018
  -54.6500000000000        -1.271935103399662E-018
  -54.4600000000000        -1.286705299862555E-018
  -54.2700000000000        -1.295545919283738E-018
  -54.0800000000000        -1.286335628548882E-018
  -53.8900000000000        -1.265194562166639E-018
  -53.7000000000000        -1.251027441919687E-018
  -53.5100000000000        -1.257682810962698E-018
  -53.3200000000000        -1.280784569313099E-018
  -53.1300000000000        -1.301842289729326E-018
  -52.9400000000000        -1.305766086951373E-018
  -52.7500000000000        -1.295106376228689E-018
  -52.5600000000000        -1.287434700612831E-018
  -52.3700000000000        -1.298358846921045E-018
  -52.1800000000000        -1.326374823284858E-018
  -51.9900000000000        -1.353986496425676E-018
  -51.8000000000000        -1.363982470523237E-018
  -51.6100000000000        -1.355324932177610E-018
  -51.4200000000000        -1.343540822897490E-018
  -51.2300000000000        -1.345352930237529E-018
  -51.0400000000000        -1.362364871350609E-018
  -50.8500000000000        -1.379519062998480E-018
  -50.6600000000000        -1.379878247238146E-018
  -50.4700000000000        -1.361566378770679E-018
  -50.2800000000000        -1.340521523567276E-018
  -50.0900000000000        -1.336205950450772E-018
  -49.9000000000000        -1.353696325421439E-018
  -49.7100000000000        -1.379086229548733E-018
  -49.5200000000000        -1.392533486762223E-018
  -49.3300000000000        -1.386574215097610E-018
  -49.1400000000000        -1.372389510736735E-018
  -48.9500000000000        -1.368240827331717E-018
  -48.7600000000000        -1.381306306666514E-018
  -48.5700000000000        -1.400410397161830E-018
  -48.3800000000000        -1.406656630549542E-018
  -48.1900000000000        -1.391791182149884E-018
  -48.0000000000000        -1.366688589028325E-018
  -47.8100000000000        -1.351747338478723E-018
  -47.6200000000000        -1.358222144081594E-018
  -47.4300000000000        -1.378172384575302E-018
  -47.2400000000000        -1.392529147357654E-018
  -47.0500000000000        -1.389542181535839E-018
  -46.8600000000000        -1.375992212571669E-018
  -46.6700000000000        -1.370492546840732E-018
  -46.4800000000000        -1.385336528990933E-018
  -46.2900000000000        -1.414282810639708E-018
  -46.1000000000000        -1.437970962761415E-018
  -45.9100000000000        -1.441816551094971E-018
  -45.7200000000000        -1.429341028110277E-018
  -45.5300000000000        -1.418270595666939E-018
  -45.3400000000000        -1.423201291407285E-018
  -45.1500000000000        -1.441466302056362E-018
  -44.9600000000000        -1.455769761110725E-018
  -44.7700000000000        -1.451076173780410E-018
  -44.5800000000000        -1.429553873149293E-018
  -44.3900000000000        -1.409187063246598E-018
  -44.2000000000000        -1.407253175150257E-018
  -44.0100000000000        -1.424316993508899E-018
  -43.8200000000000        -1.443942705721644E-018
  -43.6300000000000        -1.448400695882772E-018
  -43.4400000000000        -1.435441242689902E-018
  -43.2500000000000        -1.420205943291478E-018
  -43.0600000000000        -1.420531548428928E-018
  -42.8700000000000        -1.439741219477620E-018
  -42.6800000000000        -1.463372527194946E-018
  -42.4900000000000        -1.472929022809691E-018
  -42.3000000000000        -1.463469280881582E-018
  -42.1100000000000        -1.448202308735035E-018
  -41.9200000000000        -1.445686760036579E-018
  -41.7300000000000        -1.461868148985492E-018
  -41.5400000000000        -1.484162451273484E-018
  -41.3500000000000        -1.493323435525444E-018
  -41.1600000000000        -1.481833596906595E-018
  -40.9700000000000        -1.461290932628586E-018
  -40.7800000000000        -1.451741248330839E-018
  -40.5900000000000        -1.463102463229571E-018
  -40.4000000000000        -1.486312713143920E-018
  -40.2100000000000        -1.502506785682691E-018
  -40.0200000000000        -1.501323142119550E-018
  -39.8300000000000        -1.490768165394172E-018
  -39.6400000000000        -1.489185048605263E-018
  -39.4500000000000        -1.507051450615416E-018
  -39.2600000000000        -1.536134829304651E-018
  -39.0700000000000        -1.556544239746227E-018
  -38.8800000000000        -1.555097648156342E-018
  -38.6900000000000        -1.537560635181627E-018
  -38.5000000000000        -1.523092665837884E-018
  -38.3100000000000        -1.526144825084577E-018
  -38.1200000000000        -1.542988508934522E-018
  -37.9300000000000        -1.555655142892638E-018
  -37.7400000000000        -1.549490782648888E-018
  -37.5500000000000        -1.527549087512927E-018
  -37.3600000000000        -1.508064120763938E-018
  -37.1700000000000        -1.507401336906858E-018
  -36.9800000000000        -1.524738571716950E-018
  -36.7900000000000        -1.543052697327437E-018
  -36.6000000000000        -1.545424975487319E-018
  -36.4100000000000        -1.531095742823837E-018
  -36.2200000000000        -1.515972324842186E-018
  -36.0300000000000        -1.517142626451581E-018
  -35.8400000000000        -1.536221186525840E-018
  -35.6500000000000        -1.557475053898249E-018
  -35.4600000000000        -1.562554940111219E-018
  -35.2700000000000        -1.547795022206904E-018
  -35.0800000000000        -1.527612161145877E-018
  -34.8900000000000        -1.520817576689539E-018
  -34.7000000000000        -1.532923018965324E-018
  -34.5100000000000        -1.551274179555651E-018
  -34.3200000000000        -1.557552127606680E-018
  -34.1300000000000        -1.545592602724035E-018
  -33.9400000000000        -1.527416669468450E-018
  -33.7500000000000        -1.521689513826583E-018
  -33.5600000000000        -1.535698034156916E-018
  -33.3700000000000        -1.558178353453308E-018
  -33.1800000000000        -1.569938077815720E-018
  -32.9900000000000        -1.562164714265675E-018
  -32.8000000000000        -1.544915498305554E-018
  -32.6100000000000        -1.537613934874188E-018
  -32.4200000000000        -1.550549072382913E-018
  -32.2300000000000        -1.575013370490788E-018
  -32.0400000000000        -1.591532464953857E-018
  -31.8500000000000        -1.588383576540768E-018
  -31.6600000000000        -1.572752724270194E-018
  -31.4700000000000        -1.563892895094295E-018
  -31.2800000000000        -1.574821317461174E-018
  -31.0900000000000        -1.600015860851809E-018
  -30.9000000000000        -1.620831252686404E-018
  -30.7100000000000        -1.623447870102729E-018
  -30.5200000000000        -1.612194106806806E-018
  -30.3300000000000        -1.605460520321951E-018
  -30.1400000000000        -1.618019639920019E-018
  -29.9500000000000        -1.646571244095403E-018
  -29.7600000000000        -1.672309681039197E-018
  -29.5700000000000        -1.678124082586899E-018
  -29.3800000000000        -1.664147254997451E-018
  -29.1900000000000        -1.646992555975726E-018
  -29.0000000000000        -1.643557146491615E-018
  -28.8100000000000        -1.654909959082965E-018
  -28.6200000000000        -1.665617368419130E-018
  -28.4300000000000        -1.659069799681867E-018
  -28.2400000000000        -1.634064054197909E-018
  -28.0500000000000        -1.606699628991793E-018
  -27.8600000000000        -1.595714916594471E-018
  -27.6700000000000        -1.605240602340205E-018
  -27.4800000000000        -1.621406898111150E-018
  -27.2900000000000        -1.625993083575232E-018
  -27.1000000000000        -1.614042535427983E-018
  -26.9100000000000        -1.598600517124175E-018
  -26.7200000000000        -1.598046362647049E-018
  -26.5300000000000        -1.618145708588129E-018
  -26.3400000000000        -1.646030203536806E-018
  -26.1500000000000        -1.661927316818300E-018
  -25.9600000000000        -1.657488375140053E-018
  -25.7700000000000        -1.643255608531780E-018
  -25.5800000000000        -1.638192361197188E-018
  -25.3900000000000        -1.651321281496683E-018
  -25.2000000000000        -1.673029880831550E-018
  -25.0100000000000        -1.684363541250857E-018
  -24.8200000000000        -1.675433527006471E-018
  -24.6300000000000        -1.655309682318736E-018
  -24.4400000000000        -1.643844105942993E-018
  -24.2500000000000        -1.653120031830107E-018
  -24.0600000000000        -1.676155874731023E-018
  -23.8700000000000        -1.693601998512100E-018
  -23.6800000000000        -1.692038385529212E-018
  -23.4900000000000        -1.676465722866345E-018
  -23.3000000000000        -1.665152596359534E-018
  -23.1100000000000        -1.671827999248382E-018
  -22.9200000000000        -1.692268033749699E-018
  -22.7300000000000        -1.708118796867103E-018
  -22.5400000000000        -1.704317007762446E-018
  -22.3500000000000        -1.683464586308822E-018
  -22.1600000000000        -1.663436214175754E-018
  -21.9700000000000        -1.660534764948016E-018
  -21.7800000000000        -1.674294303119684E-018
  -21.5900000000000        -1.688413736072760E-018
  -21.4000000000000        -1.686875382026691E-018
  -21.2100000000000        -1.669789952787900E-018
  -21.0200000000000        -1.653750648152538E-018
  -20.8300000000000        -1.656270165133188E-018
  -20.6400000000000        -1.679111966202064E-018
  -20.4500000000000        -1.706424964298105E-018
  -20.2600000000000        -1.719474517651204E-018
  -20.0700000000000        -1.713938575895871E-018
  -19.8800000000000        -1.703326600463924E-018
  -19.6900000000000        -1.705350586434179E-018
  -19.5000000000000        -1.724356237452847E-018
  -19.3100000000000        -1.746694207899081E-018
  -19.1200000000000        -1.753557652880178E-018
  -18.9300000000000        -1.739081405407420E-018
  -18.7400000000000        -1.716383312680845E-018
  -18.5500000000000        -1.705677434995597E-018
  -18.3600000000000        -1.715682523885426E-018
  -18.1700000000000        -1.735942872188966E-018
  -17.9800000000000        -1.747281978927765E-018
  -17.7900000000000        -1.740363859942757E-018
  -17.6000000000000        -1.724661373526573E-018
  -17.4100000000000        -1.719307264731808E-018
  -17.2200000000000        -1.734591321714724E-018
  -17.0300000000000        -1.761791596675846E-018
  -16.8400000000000        -1.781059546292770E-018
  -16.6500000000000        -1.779832319833756E-018
  -16.4600000000000        -1.764223106164241E-018
  -16.2700000000000        -1.752598703517763E-018
  -16.0800000000000        -1.757578437132201E-018
  -15.8900000000000        -1.773715962159769E-018
  -15.7000000000000        -1.782673197079049E-018
  -15.5100000000000        -1.770976471278437E-018
  -15.3200000000000        -1.743393106169627E-018
  -15.1300000000000        -1.719104998727506E-018
  -14.9400000000000        -1.714267847457972E-018
  -14.7500000000000        -1.727536398325879E-018
  -14.5600000000000        -1.742266128308530E-018
  -14.3700000000000        -1.743140912194839E-018
  -14.1800000000000        -1.731211728669072E-018
  -13.9900000000000        -1.722896860463353E-018
  -13.8000000000000        -1.733872952624957E-018
  -13.6100000000000        -1.763302091708916E-018
  -13.4200000000000        -1.793610759734527E-018
  -13.2300000000000        -1.806218127180590E-018
  -13.0400000000000        -1.798342411582029E-018
  -12.8500000000000        -1.784932013602441E-018
  -12.6600000000000        -1.783932789076448E-018
  -12.4700000000000        -1.798968021204889E-018
  -12.2800000000000        -1.815937965699643E-018
  -12.0900000000000        -1.816756740006189E-018
  -11.9000000000000        -1.797098366675624E-018
  -11.7100000000000        -1.771173631581565E-018
  -11.5200000000000        -1.758895357523999E-018
  -11.3300000000000        -1.767584290147418E-018
  -11.1400000000000        -1.785585542613693E-018
  -10.9500000000000        -1.793804232645067E-018
  -10.7600000000000        -1.784093937018792E-018
  -10.5700000000000        -1.766950274622785E-018
  -10.3800000000000        -1.761215524899083E-018
  -10.1900000000000        -1.775678044159935E-018
  -10.0000000000000        -1.800192121197114E-018
  -9.81000000000000        -1.814874251766072E-018
  -9.62000000000000        -1.808674377946697E-018
  -9.42999999999999        -1.789649054254403E-018
  -9.23999999999999        -1.777179215649902E-018
  -9.05000000000000        -1.783606987356313E-018
  -8.86000000000000        -1.802814670107565E-018
  -8.67000000000000        -1.816562036901895E-018
  -8.48000000000000        -1.812406864336361E-018
  -8.28999999999999        -1.795989689359237E-018
  -8.09999999999999        -1.785876003812565E-018
  -7.91000000000000        -1.795848945610787E-018
  -7.72000000000000        -1.821591791964400E-018
  -7.53000000000000        -1.844546378084456E-018
  -7.34000000000000        -1.849318654730950E-018
  -7.15000000000001        -1.838039972239075E-018
  -6.95999999999999        -1.827992422140991E-018
  -6.77000000000000        -1.834777663454884E-018
  -6.58000000000000        -1.857097843302269E-018
  -6.39000000000000        -1.877695118957011E-018
  -6.20000000000000        -1.879606932146179E-018
  -6.01000000000001        -1.862273856446845E-018
  -5.81999999999999        -1.842142914037651E-018
  -5.63000000000000        -1.837192294453242E-018
  -5.44000000000000        -1.850150595796712E-018
  -5.25000000000000        -1.866401514148736E-018
  -5.06000000000000        -1.868501891715849E-018
  -4.87000000000000        -1.853365573091295E-018
  -4.67999999999999        -1.835624178102891E-018
  -4.48999999999999        -1.833868742672429E-018
  -4.30000000000000        -1.852833669778079E-018
  -4.11000000000000        -1.878513470220253E-018
  -3.92000000000000        -1.890916724300459E-018
  -3.73000000000000        -1.882363021095136E-018
  -3.53999999999999        -1.863978611381330E-018
  -3.34999999999999        -1.854353062904059E-018
  -3.16000000000000        -1.861334640727456E-018
  -2.97000000000000        -1.874418567754767E-018
  -2.78000000000000        -1.874999309228035E-018
  -2.59000000000000        -1.854659782777114E-018
  -2.40000000000001        -1.823950398912580E-018
  -2.20999999999999        -1.803150706459917E-018
  -2.02000000000000        -1.803718769538626E-018
  -1.83000000000000        -1.818066869281834E-018
  -1.64000000000000        -1.827374654913478E-018
  -1.45000000000000        -1.819936419387623E-018
  -1.26000000000001        -1.802504610762992E-018
  -1.06999999999999        -1.793800041235071E-018
 -0.879999999999995        -1.806386419803169E-018
 -0.689999999999998        -1.834229937722043E-018
 -0.500000000000000        -1.857880503806840E-018
 -0.310000000000002        -1.862415028037417E-018
 -0.120000000000005        -1.851089833861575E-018
  7.000000000000739E-002   -1.841739099148082E-018
  0.260000000000005        -1.849430894776623E-018
  0.450000000000003        -1.871978379457700E-018
  0.640000000000001        -1.892113215160042E-018
  0.829999999999998        -1.894186159787590E-018
   1.02000000000000        -1.879393020996621E-018
   1.21000000000001        -1.864925155694086E-018
   1.40000000000001        -1.867777021109535E-018
   1.59000000000000        -1.888608594883874E-018
   1.78000000000000        -1.911044775835557E-018
   1.97000000000000        -1.917080360304756E-018
   2.16000000000000        -1.903914617540777E-018
   2.34999999999999        -1.886229695100943E-018
   2.54000000000001        -1.881853861716521E-018
   2.73000000000000        -1.894581828583131E-018
   2.92000000000000        -1.910583991796069E-018
   3.11000000000000        -1.911818566008516E-018
   3.30000000000000        -1.893577716339940E-018
   3.48999999999999        -1.869311894698310E-018
   3.68000000000001        -1.858048472475523E-018
   3.87000000000000        -1.866419145129192E-018
   4.06000000000000        -1.882510053173586E-018
   4.25000000000000        -1.887455275695726E-018
   4.44000000000000        -1.873730483748020E-018
   4.63000000000000        -1.852676208640332E-018
   4.82000000000001        -1.844010894215166E-018
   5.01000000000001        -1.857250362497466E-018
   5.20000000000000        -1.882695839922211E-018
   5.39000000000000        -1.900561965779445E-018
   5.58000000000000        -1.899522936159782E-018
   5.77000000000000        -1.886988328500365E-018
   5.96000000000001        -1.881361713006991E-018
   6.15000000000001        -1.893767270821341E-018
   6.34000000000000        -1.916784267829529E-018
   6.53000000000000        -1.931046640966434E-018