  -105.000000000000        -3.980229100111098E-019
  -104.810000000000        -3.014754569328510E-019
  -104.620000000000        -1.408337215816619E-019
  -104.430000000000         3.888839323023071E-020
  -104.240000000000         1.876578883667303E-019
  -104.050000000000         2.648328047351849E-019
  -103.860000000000         2.508404911581477E-019
  -103.670000000000         1.527289703477275E-019
  -103.480000000000         1.977524079390469E-021
  -103.290000000000        -1.547868778598985E-019
  -103.100000000000        -2.694484544198836E-019
  -102.910000000000        -3.064502062315842E-019
  -102.720000000000        -2.531504562043292E-019
  -102.530000000000        -1.235012361020719E-019
  -102.340000000000         4.599657032700252E-020
  -102.150000000000         2.068810914795831E-019
  -101.960000000000         3.128004361609501E-019
  -101.770000000000         3.330000204600521E-019
  -101.580000000000         2.613143912079087E-019
  -101.390000000000         1.180362870643846E-019
  -101.200000000000        -5.590456901614705E-020
  -101.010000000000        -2.107751121886282E-019
  -100.820000000000        -3.024391421777836E-019
  -100.630000000000        -3.051227488188785E-019
  -100.440000000000        -2.188306495627975E-019
  -100.250000000000        -6.927506421792099E-020
  -100.060000000000         9.963590855514907E-020
  -99.8700000000000         2.385535234123812E-019
  -99.6800000000000         3.069912790328331E-019
  -99.4900000000000         2.850473920695504E-019
  -99.3000000000000         1.791648009314861E-019
  -99.1100000000000         2.025743672296760E-020
  -98.9200000000000        -1.452701803110264E-019
  -98.7300000000000        -2.690181684046802E-019
  -98.5400000000000        -3.146807292737595E-019
  -98.3500000000000        -2.686213175410596E-019
  -98.1600000000000        -1.438469592141460E-019
  -97.9700000000000         2.377270454916649E-020
  -97.7800000000000         1.859294328428025E-019
  -97.5900000000000         2.959014573853926E-019
  -97.4000000000000         3.221057016329804E-019
  -97.2100000000000         2.572552215457890E-019
  -97.0200000000000         1.204759554626417E-019
  -96.8300000000000        -4.823418090540184E-020
  -96.6400000000000        -1.996118343531047E-019
  -96.4500000000000        -2.894456225019679E-019
  -96.2600000000000        -2.914465716493112E-019
  -96.0700000000000        -2.049182954964562E-019
  -95.8800000000000        -5.498160015149740E-020
  -95.6900000000000         1.147171294098488E-019
  -95.5000000000000         2.546865318473169E-019
  -95.3100000000000         3.239653251147066E-019
  -95.1200000000000         3.020189141870317E-019
  -94.9300000000000         1.947193667407754E-019
  -94.7400000000000         3.268719364788370E-020
  -94.5500000000000        -1.375276927078689E-019
  -94.3600000000000        -2.668892047665266E-019
  -94.1700000000000        -3.180668858529330E-019
  -93.9800000000000        -2.762675641248293E-019
  -93.7900000000000        -1.535512098466093E-019
  -93.6000000000000         1.464321835277982E-020
  -93.4100000000000         1.797638145605029E-019
  -93.2200000000000         2.942134979044208E-019
  -93.0300000000000         3.251179408950480E-019
  -92.8400000000000         2.637934474637756E-019
  -92.6500000000000         1.281864287626219E-019
  -92.4600000000000        -4.239220669087527E-020
  -92.2700000000000        -1.986886587463701E-019
  -92.0800000000000        -2.957726462476182E-019
  -91.8900000000000        -3.060309657665204E-019
  -91.7000000000000        -2.271384594785673E-019
  -91.5100000000000        -8.269523843430154E-020
  -91.3200000000000         8.466915937895164E-020
  -91.1300000000000         2.257348305878135E-019
  -90.9400000000000         2.990566554506599E-019
  -90.7500000000000         2.830644326643797E-019
  -90.5600000000000         1.823668592917913E-019
  -90.3700000000000         2.642765095102223E-020
  -90.1800000000000        -1.389875514409852E-019
  -89.9900000000000        -2.650955264208596E-019
  -89.8000000000000        -3.142552051579871E-019
  -89.6100000000000        -2.709094443859577E-019
  -89.4200000000000        -1.461501868457171E-019
  -89.2300000000000         2.541674646300186E-020
  -89.0400000000000         1.956123426723813E-019
  -88.8500000000000         3.165626907430397E-019
  -88.6600000000000         3.544933478451626E-019
  -88.4700000000000         2.994314588844505E-019
  -88.2800000000000         1.679953913249088E-019
  -88.0900000000000        -1.529064410969583E-021
  -87.9000000000000        -1.603741394915652E-019
  -87.7100000000000        -2.634683760270245E-019
  -87.5200000000000        -2.824878537636463E-019
  -87.3300000000000        -2.140073745494182E-019
  -87.1400000000000        -8.040542412961751E-020
  -86.9500000000000         7.673258831629955E-020
  -86.7600000000000         2.088062881079310E-019
  -86.5700000000000         2.744590466606020E-019
  -86.3800000000000         2.517596436933616E-019
  -86.1900000000000         1.447446056265997E-019
  -86.0000000000000        -1.761166398662645E-020
  -85.8100000000000        -1.897179289930065E-019
  -85.6200000000000        -3.225542260220411E-019
  -85.4300000000000        -3.778766834817842E-019
  -85.2400000000000        -3.393037032447704E-019
  -85.0500000000000        -2.170743137443232E-019
  -84.8600000000000        -4.511654156728453E-020
  -84.6700000000000         1.287147115261769E-019
  -84.4800000000000         2.564107797030995E-019
  -84.2900000000000         3.036244198477593E-019
  -84.1000000000000         2.595388710923643E-019
  -83.9100000000000         1.399250170638090E-019
  -83.7200000000000        -1.751917815762607E-020
  -83.5300000000000        -1.642090533800873E-019
  -83.3400000000000        -2.548852526761759E-019
  -83.1500000000000        -2.608537022992910E-019
  -82.9600000000000        -1.783933652200170E-019
  -82.7700000000000        -2.988935101161584E-020
  -82.5800000000000         1.426239796783366E-019
  -82.3900000000000         2.896206946355688E-019
  -82.2000000000000         3.684128311567435E-019
  -82.0100000000000         3.555101266713042E-019
  -81.8200000000000         2.534429710893289E-019
  -81.6300000000000         9.007450801686416E-020
  -81.4400000000000        -8.940926015187962E-020
  -81.2500000000000        -2.355223463859518E-019
  -81.0600000000000        -3.087416128781706E-019
  -80.8700000000000        -2.908646974724745E-019
  -80.6800000000000        -1.901603749746030E-019
  -80.4900000000000        -3.882417821259250E-020
  -80.3000000000000         1.164989738330135E-019
  -80.1100000000000         2.283519773910437E-019
  -79.9200000000000         2.623018994727972E-019
  -79.7300000000000         2.069778253105041E-019
  -79.5400000000000         7.741733127166091E-020
  -79.3500000000000        -8.924626081702281E-020
  -79.1600000000000        -2.445206915507964E-019
  -78.9700000000000        -3.426215444549923E-019
  -78.7800000000000        -3.537955200396020E-019
  -78.5900000000000        -2.730233469087184E-019
  -78.4000000000000        -1.215593167919073E-019
  -78.2100000000000         5.914514826780307E-020
  -78.0200000000000         2.193594156731548E-019
  -77.8300000000000         3.153605250727320E-019
  -77.6400000000000         3.219453982645548E-019
  -77.4500000000000         2.395622525735521E-019
  -77.2600000000000         9.402711402392646E-020
  -77.0700000000000        -7.106728231402361E-020
  -76.8800000000000        -2.070467778638593E-019
  -76.6900000000000        -2.742899964081262E-019
  -76.5000000000000        -2.537163596620550E-019
  -76.3100000000000        -1.522901413884814E-019
  -76.1200000000000        -9.223152085533076E-022
  -75.9300000000000         1.546369130446590E-019
  -75.7400000000000         2.672638320924602E-019
  -75.5500000000000         3.023457051459176E-019
  -75.3600000000000         2.480172576631458E-019
  -75.1700000000000         1.187551361092462E-019
  -74.9800000000000        -4.871696195107316E-020
  -74.7900000000000        -2.060217137127173E-019
  -74.6000000000000        -3.071521158050197E-019
  -74.4100000000000        -3.218702963774355E-019
  -74.2200000000000        -2.445982740774299E-019
  -74.0300000000000        -9.620385759638033E-020
  -73.8400000000000         8.187066574380443E-020
  -73.6500000000000         2.394663229460009E-019
  -73.4600000000000         3.321268173679452E-019
  -73.2700000000000         3.338924712850318E-019
  -73.0800000000000         2.447472873700218E-019
  -72.8900000000000         9.055871856473428E-020
  -72.7000000000000        -8.445869118684646E-020
  -72.5100000000000        -2.305542502052658E-019
  -72.3200000000000        -3.068081972975447E-019
  -72.1300000000000        -2.929001433814152E-019
  -71.9400000000000        -1.948813556667595E-019
  -71.7500000000000        -4.328350348513723E-020
  -71.5600000000000         1.158916026926082E-019
  -71.3700000000000         2.346916196906107E-019
  -71.1800000000000         2.773092859551740E-019
  -70.9900000000000         2.306336199975635E-019
  -70.8000000000000         1.081598595005383E-019
  -70.6100000000000        -5.389312223818387E-020
  -70.4200000000000        -2.071206072125396E-019
  -70.2300000000000        -3.050437601587589E-019
  -70.0400000000000        -3.166878217724916E-019
  -69.8500000000000        -2.356958024231568E-019
  -69.6600000000000        -8.235271526719221E-020
  -69.4700000000000         1.020607629871927E-019
  -69.2800000000000         2.669699370835741E-019
  -69.0900000000000         3.669128292970870E-019
  -68.9000000000000         3.745135556674864E-019
  -68.7100000000000         2.882763059714569E-019
  -68.5200000000000         1.329354706664574E-019
  -68.3300000000000        -4.774604680548976E-020
  -68.1400000000000        -2.036370531553181E-019
  -67.9500000000000        -2.926723508760403E-019
  -67.7600000000000        -2.928689373593383E-019
  -67.5700000000000        -2.084533137773983E-019
  -67.3800000000000        -6.835578075347887E-020
  -67.1900000000000         8.245645763459410E-020
  -67.0000000000000         1.962734906379228E-019
  -66.8100000000000         2.367041206115744E-019
  -66.6200000000000         1.894235751170516E-019
  -66.4300000000000         6.647689256711389E-020
  -66.2400000000000        -9.713164120520837E-020
  -66.0500000000000        -2.535879240822366E-019
  -65.8600000000000        -3.562043353401182E-019
  -65.6700000000000        -3.730692182194637E-019
  -65.4800000000000        -2.964130241486052E-019
  -65.2900000000000        -1.449546497199154E-019
  -65.1000000000000         4.144485269908707E-020
  -64.9100000000000         2.132470980138005E-019
  -64.7200000000000         3.254755927387882E-019
  -64.5300000000000         3.505952524490087E-019
  -64.3400000000000         2.863025567476367E-019
  -64.1500000000000         1.559732236138987E-019
  -63.9600000000000         1.641461775677302E-021
  -63.7700000000000        -1.284433614859769E-019
  -63.5800000000000        -1.940474206849210E-019
  -63.3900000000000        -1.748017824535699E-019
  -63.2000000000000        -7.619728443123089E-020
  -63.0100000000000         7.202168033228355E-020
  -62.8200000000000         2.245732836013503E-019
  -62.6300000000000         3.338970840874477E-019
  -62.4400000000000         3.640837155104114E-019
  -62.2500000000000         3.014353633376659E-019
  -62.0600000000000         1.586121583816842E-019
  -61.8700000000000        -2.882391814065761E-020
  -61.6800000000000        -2.124714649997752E-019
  -61.4900000000000        -3.448634853598029E-019
  -61.3000000000000        -3.929805546140572E-019
  -61.1100000000000        -3.475934362567582E-019
  -60.9200000000000        -2.257260684230857E-019
  -60.7300000000000        -6.553033683025987E-020
  -60.5400000000000         8.492316405686188E-020
  -60.3500000000000         1.816654316308993E-019
  -60.1600000000000         1.975842419822950E-019
  -59.9700000000000         1.302275402278675E-019
  -59.7800000000000         2.419182690279095E-021
  -59.5900000000000        -1.444735680721466E-019
  -59.4000000000000        -2.626792051420423E-019
  -59.2100000000000        -3.120820197507554E-019
  -59.0200000000000        -2.721559936110039E-019
  -58.8300000000000        -1.483092806520527E-019
  -58.6400000000000         2.924386279756669E-020
  -58.4500000000000         2.138234252188315E-019
  -58.2600000000000         3.554786482958132E-019
  -58.0700000000000         4.152459754324271E-019
  -57.8800000000000         3.763450948002910E-019
  -57.6900000000000         2.490664667184623E-019
  -57.5000000000000         6.793210585523364E-020
  -57.3100000000000        -1.180553224279749E-019
  -57.1200000000000        -2.592729153016163E-019
  -56.9300000000000        -3.194695660169485E-019
  -56.7400000000000        -2.858767728535176E-019
  -56.5500000000000        -1.725406137935520E-019
  -56.3600000000000        -1.592932319641771E-020
  -56.1700000000000         1.358941521790653E-019
  -55.9800000000000         2.373730703846013E-019
  -55.7900000000000         2.587156205159737E-019
  -55.6000000000000         1.944521083568437E-019
  -55.4100000000000         6.482408942576221E-020
  -55.2200000000000        -9.035328888879007E-020
  -55.0300000000000        -2.235220444252501E-019
  -54.8400000000000        -2.934345305883646E-019
  -54.6500000000000        -2.773396503684703E-019
  -54.4600000000000        -1.777730046625380E-019
  -54.2700000000000        -2.198606395605890E-020
  -54.0800000000000         1.458311440110211E-019
  -53.8900000000000         2.772999172595313E-019
  -53.7000000000000         3.338906529503263E-019
  -53.5100000000000         2.981690297332404E-019
  -53.3200000000000         1.789668134469059E-019
  -53.1300000000000         8.961135940302494E-021
  -52.9400000000000        -1.646339344312085E-019
  -52.7500000000000        -2.935508166468385E-019
  -52.5600000000000        -3.422145025967036E-019
  -52.3700000000000        -2.977927366873875E-019
  -52.1800000000000        -1.736885148967055E-019
  -51.9900000000000        -5.511746618088953E-021
  -51.8000000000000         1.592821591327322E-019
  -51.6100000000000         2.750952427145544E-019
  -51.4200000000000         3.112833044335894E-019
  -51.2300000000000         2.608629040355263E-019
  -51.0400000000000         1.423017696050972E-019
  -50.8500000000000        -6.134575127611378E-021
  -50.6600000000000        -1.378343863486124E-019
  -50.4700000000000        -2.117371638836937E-019
  -50.2800000000000        -2.045965950941727E-019
  -50.0900000000000        -1.180004785378548E-019
  -49.9000000000000         2.193040198138949E-020
  -49.7100000000000         1.721063232135279E-019
  -49.5200000000000         2.851162841497266E-019
  -49.3300000000000         3.232839268697588E-019
  -49.1400000000000         2.700178853424699E-019
  -48.9500000000000         1.350965982903814E-019
  -48.7600000000000        -4.772953016470033E-020
  -48.5700000000000        -2.301945294085069E-019
  -48.3800000000000        -3.633181285833735E-019
  -48.1900000000000        -4.115284075790706E-019
  -48.0000000000000        -3.629620373110962E-019
  -47.8100000000000        -2.329141766569511E-019
  -47.6200000000000        -5.942366780254260E-020
  -47.4300000000000         1.077190909257661E-019
  -47.2400000000000         2.213466352465638E-019
  -47.0500000000000         2.505106774679157E-019
  -46.8600000000000         1.893765763691077E-019
  -46.6700000000000         5.884867465397396E-020
  -46.4800000000000        -9.955352078719985E-020
  -46.2900000000000        -2.358142223351125E-019
  -46.1000000000000        -3.060349109437634E-019
  -45.9100000000000        -2.852988332858010E-019
  -45.7200000000000        -1.750378634316790E-019
  -45.5300000000000        -2.753842628947873E-021
  -45.3400000000000         1.858180434751727E-019
  -45.1500000000000         3.398117423788525E-019
  -44.9600000000000         4.177868114096979E-019
  -44.7700000000000         3.995312744450858E-019
  -44.5800000000000         2.917269415751932E-019
  -44.3900000000000         1.258771778534054E-019
  -44.2000000000000        -5.087822244298409E-020
  -44.0100000000000        -1.893999040630568E-019
  -43.8200000000000        -2.527012316579759E-019
  -43.6300000000000        -2.265304241902923E-019
  -43.4400000000000        -1.233243865983540E-019
  -43.2500000000000         2.160590585776973E-020
  -43.0600000000000         1.605409635865781E-019
  -42.8700000000000         2.474172134296177E-019
  -42.6800000000000         2.514005993052739E-019
  -42.4900000000000         1.660397949341172E-019
  -42.3000000000000         1.136439278636859E-020
  -42.1100000000000        -1.716679406625750E-019
  -41.9200000000000        -3.327777193020812E-019
  -41.7300000000000        -4.266951686675156E-019
  -41.5400000000000        -4.261055690139058E-019
  -41.3500000000000        -3.294840328336181E-019
  -41.1600000000000        -1.615540446735471E-019
  -40.9700000000000         3.376834958048920E-020
  -40.7800000000000         2.058961602009510E-019
  -40.5900000000000         3.119135998392001E-019
  -40.4000000000000         3.285715982496038E-019
  -40.2100000000000         2.584796269659836E-019
  -40.0200000000000         1.287574767994164E-019
  -39.8300000000000        -1.737956707304702E-020
  -39.6400000000000        -1.335838464197716E-019
  -39.4500000000000        -1.840774996694023E-019
  -39.2600000000000        -1.541037228870485E-019
  -39.0700000000000        -5.410205383997019E-020
  -38.8800000000000         8.358712483511692E-020
  -38.6900000000000         2.145053448739172E-019
  -38.5000000000000         2.954601537150502E-019
  -38.3100000000000         2.975593951732287E-019
  -38.1200000000000         2.150424587487171E-019
  -37.9300000000000         6.729565643722361E-020
  -37.7400000000000        -1.065474343417944E-019
  -37.5500000000000        -2.588379718311919E-019
  -37.3600000000000        -3.471939864979547E-019
  -37.1700000000000        -3.468242437958791E-019
  -36.9800000000000        -2.578217676431362E-019
  -36.7900000000000        -1.053080092855981E-019
  -36.6000000000000         6.764012198198849E-020
  -36.4100000000000         2.122731476581563E-019
  -36.2200000000000         2.881406579932027E-019
  -36.0300000000000         2.747170548397585E-019
  -35.8400000000000         1.772984812967516E-019
  -35.6500000000000         2.543525300999353E-020
  -35.4600000000000        -1.356633876425285E-019
  -35.2700000000000        -2.582594060581835E-019
  -35.0800000000000        -3.059345037133544E-019
  -34.8900000000000        -2.641395537148464E-019
  -34.7000000000000        -1.443958777016724E-019
  -34.5100000000000         1.905850991837444E-020
  -34.3200000000000         1.792056333091078E-019
  -34.1300000000000         2.899009820009578E-019
  -33.9400000000000         3.193023996748662E-019
  -33.7500000000000         2.591823652073182E-019
  -33.5600000000000         1.274003070143954E-019
  -33.3700000000000        -3.721869433100879E-020
  -33.1800000000000        -1.861416625712199E-019
  -32.9900000000000        -2.752633639630881E-019
  -32.8000000000000        -2.778097186560666E-019
  -32.6100000000000        -1.922516855007668E-019
  -32.4200000000000        -4.292006738187005E-020
  -32.2300000000000         1.268761815230638E-019
  -32.0400000000000         2.672642322476426E-019
  -31.8500000000000         3.361968580934490E-019
  -31.6600000000000         3.116805381641065E-019
  -31.4700000000000         1.983032113705231E-019
  -31.2800000000000         2.613900796045514E-020
  -31.0900000000000        -1.577022636098244E-019
  -30.9000000000000        -3.024739445520015E-019
  -30.7100000000000        -3.682775850167641E-019
  -30.5200000000000        -3.374433821954523E-019
  -30.3300000000000        -2.195187730181310E-019
  -30.1400000000000        -4.844542289798047E-020
  -29.9500000000000         1.272245756622953E-019
  -29.7600000000000         2.582234014817488E-019
  -29.5700000000000         3.085707655431972E-019
  -29.3800000000000         2.656866352546197E-019
  -29.1900000000000         1.437490577633682E-019
  -29.0000000000000        -2.063058594319777E-020
  -28.8100000000000        -1.791458143405389E-019
  -28.6200000000000        -2.858367953188922E-019
  -28.4300000000000        -3.103676684485227E-019
  -28.2400000000000        -2.466854994625411E-019
  -28.0500000000000        -1.145500156998610E-019
  -27.8600000000000         4.648645684408975E-020
  -27.6700000000000         1.888525510024492E-019
  -27.4800000000000         2.710105506546924E-019
  -27.2900000000000         2.696684405628625E-019
  -27.1000000000000         1.865927479113764E-019
  -26.9100000000000         4.805107872916619E-020
  -26.7200000000000        -1.029403872914746E-019
  -26.5300000000000        -2.193010502833357E-019
  -26.3400000000000        -2.638038453255308E-019
  -26.1500000000000        -2.201603999950227E-019
  -25.9600000000000        -9.801945702526316E-020
  -25.7700000000000         6.960355353400286E-020
  -25.5800000000000         2.357301267933937E-019
  -25.3900000000000         3.529157279315024E-019
  -25.2000000000000         3.869087797501039E-019
  -25.0100000000000         3.265082248439244E-019
  -24.8200000000000         1.867800485305217E-019
  -24.6300000000000         4.729224264915241E-021
  -24.4400000000000        -1.712988339447782E-019
  -24.2500000000000        -2.954187782231072E-019
  -24.0600000000000        -3.372291542210499E-019
  -23.8700000000000        -2.903056060354659E-019
  -23.6800000000000        -1.737110045131314E-019
  -23.4900000000000        -2.609063099899461E-020
  -23.3000000000000         1.059152600420038E-019
  -23.1100000000000         1.815379008564222E-019
  -22.9200000000000         1.779477044578187E-019
  -22.7300000000000         9.697802605356062E-020
  -22.5400000000000        -3.545836806104179E-020
  -22.3500000000000        -1.770717908187504E-019
  -22.1600000000000        -2.817519323362466E-019
  -21.9700000000000        -3.133130866106131E-019
  -21.7800000000000        -2.564264227170804E-019
  -21.5900000000000        -1.215438975820671E-019
  -21.4000000000000         5.766124573397654E-020
  -21.2100000000000         2.336578989710098E-019
  -21.0200000000000         3.585650857750197E-019
  -20.8300000000000         3.979139252587308E-019
  -20.6400000000000         3.406632936882886E-019
  -20.4500000000000         2.025332348101416E-019
  -20.2600000000000         2.165708644950319E-020
  -20.0700000000000        -1.522109672234573E-019
  -19.8800000000000        -2.718261510011851E-019
  -19.6900000000000        -3.058543403922991E-019
  -19.5000000000000        -2.476943766933781E-019
  -19.3100000000000        -1.171919554621760E-019
  -19.1200000000000         4.524336421516413E-020
  -18.9300000000000         1.904259238397124E-019
  -18.7400000000000         2.746916990697690E-019
  -18.5500000000000         2.725735904164755E-019
  -18.3600000000000         1.841745448813437E-019
  -18.1700000000000         3.509058617382550E-020
  -17.9800000000000        -1.310900987311282E-019
  -17.7900000000000        -2.655134046900628E-019
  -17.6000000000000        -3.282910980970783E-019
  -17.4100000000000        -3.000971520217228E-019
  -17.2200000000000        -1.877784366472123E-019
  -17.0300000000000        -2.238299528559133E-020
  -16.8400000000000         1.497976569554617E-019
  -16.6500000000000         2.805731588681056E-019
  -16.4600000000000         3.337335599438466E-019
  -16.2700000000000         2.954550131783219E-019
  -16.0800000000000         1.782173729281327E-019
  -15.8900000000000         1.709310894450237E-020
  -15.7000000000000        -1.405133330937834E-019
  -15.5100000000000        -2.486829312340581E-019
  -15.3200000000000        -2.763262644833541E-019
  -15.1300000000000        -2.161737240027137E-019
  -14.9400000000000        -8.681721123616739E-020
  -14.7500000000000         7.276017309503869E-020
  -14.5600000000000         2.145578413191247E-019
  -14.3700000000000         2.955369007322893E-019
  -14.1800000000000         2.901686779904834E-019
  -13.9900000000000         1.979284655790449E-019
  -13.8000000000000         4.355727945577901E-020
  -13.6100000000000        -1.300065350032827E-019
  -13.4200000000000        -2.740000487749283E-019
  -13.2300000000000        -3.479309690438721E-019
  -13.0400000000000        -3.312905302257180E-019
  -12.8500000000000        -2.294623413169666E-019
  -12.6600000000000        -7.210406102914964E-020
  -12.4700000000000         9.551436163271599E-020
  -12.2800000000000         2.256778989832265E-019
  -12.0900000000000         2.820617081268334E-019
  -11.9000000000000         2.502187634337761E-019
  -11.7100000000000         1.416838629158526E-019
  -11.5200000000000        -9.494657763099046E-021
  -11.3300000000000        -1.567967621816708E-019
  -11.1400000000000        -2.549379883138575E-019
  -10.9500000000000        -2.732498816741638E-019
  -10.7600000000000        -2.048109767817314E-019
  -10.5700000000000        -6.863103012577113E-020
  -10.3800000000000         9.577683596013106E-020
  -10.1900000000000         2.398664063356135E-019
  -10.0000000000000         3.202302792271572E-019
  -9.81000000000000         3.113466022697265E-019
  -9.62000000000000         2.131941160138475E-019
  -9.42999999999999         5.151936479322572E-020
  -9.23999999999999        -1.293406805916782E-019
  -9.05000000000000        -2.790361432196589E-019
  -8.86000000000000        -3.555775206798514E-019
  -8.67000000000000        -3.373657731666030E-019
  -8.48000000000000        -2.293969064356153E-019
  -8.28999999999999        -6.183343016285630E-020
  -8.09999999999999         1.186511073436660E-019
  -7.91000000000000         2.622448521070836E-019
  -7.72000000000000         3.302093322607502E-019
  -7.53000000000000         3.058246570121182E-019
  -7.34000000000000         1.989367119972317E-019
  -7.15000000000001         4.284557882097204E-020
  -6.95999999999999        -1.155179847461238E-019
  -6.77000000000000        -2.292703800753390E-019
  -6.58000000000000        -2.651646425599730E-019
  -6.39000000000000        -2.131838442743614E-019
  -6.20000000000000        -8.937536937681239E-020
  -6.01000000000001         6.889762180908393E-020
  -5.81999999999999         2.139193623808930E-019
  -5.63000000000000         3.016154930479894E-019
  -5.44000000000000         3.044953915643887E-019
  -5.25000000000000         2.197609089893421E-019
  -5.06000000000000         7.021803247044035E-020
  -4.87000000000000        -1.022636190032231E-019
  -4.67999999999999        -2.488310094440858E-019
  -4.48999999999999        -3.277601446487369E-019
  -4.30000000000000        -3.165207039837813E-019
  -4.11000000000000        -2.183129037700688E-019
  -3.92000000000000        -6.118906128635068E-020
  -3.73000000000000         1.099957723959316E-019
  -3.53999999999999         2.464890469755261E-019
  -3.34999999999999         3.096701395726308E-019
  -3.16000000000000         2.821324893103950E-019
  -2.97000000000000         1.726002052171286E-019
  -2.78000000000000         1.326343661018296E-020
  -2.59000000000000        -1.496665014561657E-019
  -2.40000000000001        -2.694085029252459E-019
  -2.20999999999999        -3.121459395748673E-019
  -2.02000000000000        -2.667207114791881E-019
  -1.83000000000000        -1.476987978159692E-019
  -1.64000000000000         9.053498094243180E-021
  -1.45000000000000         1.569782024229493E-019
  -1.26000000000001         2.525241503691665E-019
  -1.06999999999999         2.679359680704187E-019
 -0.879999999999995         1.993882909328035E-019
 -0.689999999999998         6.807409290953330E-020
 -0.500000000000000        -8.607641966259315E-020
 -0.310000000000002        -2.161975748363036E-019
 -0.120000000000005        -2.823348880180488E-019
  7.000000000000739E-002   -2.632680711957803E-019
  0.260000000000005        -1.628523737375416E-019
  0.450000000000003        -9.034206373198640E-021
  0.640000000000001         1.541730458863182E-019
  0.829999999999998         2.794350602126969E-019
   1.02000000000000         3.298817943501503E-019
   1.21000000000001         2.899342045122844E-019
   1.40000000000001         1.700058432121985E-019
   1.59000000000000         3.667576631595672E-021
   1.78000000000000        -1.619485947185474E-019
   1.97000000000000        -2.797433439890585E-019
   2.16000000000000        -3.162875406011648E-019
   2.34999999999999        -2.615239460236246E-019
   2.54000000000001        -1.317039432201388E-019
   2.73000000000000         3.529346432028956E-020
   2.92000000000000         1.909005228084154E-019
   3.11000000000000         2.898926271943886E-019
   3.30000000000000         3.034641404751170E-019
   3.48999999999999         2.275779828706726E-019
   3.68000000000001         8.417349363852407E-020
   3.87000000000000        -8.513615785216182E-020
   4.06000000000000        -2.310807056933906E-019
   4.25000000000000        -3.110015530497859E-019
   4.44000000000000        -3.012369769065665E-019
   4.63000000000000        -2.040207890294194E-019
   4.82000000000001        -4.688405801686497E-020
   5.01000000000001         1.252663786141115E-019
   5.20000000000000         2.630903192261935E-019
   5.39000000000000         3.270286848098254E-019
   5.58000000000000         2.986907544122573E-019
   5.77000000000000         1.861435766721497E-019
   5.96000000000001         2.158808521963134E-020
   6.15000000000001        -1.479116225326828E-019
   6.34000000000000        -2.739814380658018E-019
   6.53000000000000        -3.208636535337699E-019