  -105.000000000000         3.980229100111097E-019
  -104.810000000000         3.014754641664478E-019
  -104.620000000000         1.408337363585438E-019
  -104.430000000000        -3.888837905417126E-020
  -104.240000000000        -1.876578857792357E-019
  -104.050000000000        -2.648328182530461E-019
  -103.860000000000        -2.508405130491691E-019
  -103.670000000000        -1.527289841560311E-019
  -103.480000000000        -1.977516432054002E-021
  -103.290000000000         1.547869056982553E-019
  -103.100000000000         2.694484855314069E-019
  -102.910000000000         3.064502203957152E-019
  -102.720000000000         2.531504463400509E-019
  -102.530000000000         1.235012141102827E-019
  -102.340000000000        -4.599658462598742E-020
  -102.150000000000        -2.068810890285543E-019
  -101.960000000000        -3.128004277044378E-019
  -101.770000000000        -3.330000264277858E-019
  -101.580000000000        -2.613144203846881E-019
  -101.390000000000        -1.180363240389058E-019
  -101.200000000000         5.590455341916068E-020
  -101.010000000000         2.107751345118326E-019
  -100.820000000000         3.024391883312622E-019
  -100.630000000000         3.051227832589291E-019
  -100.440000000000         2.188306452530671E-019
  -100.250000000000         6.927502655584387E-020
  -100.060000000000        -9.963594632343631E-020
  -99.8700000000000        -2.385535302923184E-019
  -99.6800000000000        -3.069912547643528E-019
  -99.4900000000000        -2.850473664350050E-019
  -99.3000000000000        -1.791648029262335E-019
  -99.1100000000000        -2.025746318741386E-020
  -98.9200000000000         1.452701640422009E-019
  -98.7300000000000         2.690181940416738E-019
  -98.5400000000000         3.146807900419791E-019
  -98.3500000000000         2.686213676312012E-019
  -98.1600000000000         1.438469526217283E-019
  -97.9700000000000        -2.377276900885635E-020
  -97.7800000000000        -1.859295030284349E-019
  -97.5900000000000        -2.959014685808197E-019
  -97.4000000000000        -3.221056336478825E-019
  -97.2100000000000        -2.572551208746326E-019
  -97.0200000000000        -1.204759011142079E-019
  -96.8300000000000         4.823413880257011E-020
  -96.6400000000000         1.996117124679062E-019
  -96.4500000000000         2.894454936360300E-019
  -96.2600000000000         2.914465245899880E-019
  -96.0700000000000         2.049184045928255E-019
  -95.8800000000000         5.498192194180910E-020
  -95.6900000000000        -1.147165573115457E-019
  -95.5000000000000        -2.546857302951665E-019
  -95.3100000000000        -3.239644531748020E-019
  -95.1200000000000        -3.020183253053207E-019
  -94.9300000000000        -1.947195530360839E-019
  -94.7400000000000        -3.268858499698821E-020
  -94.5500000000000         1.375250066942642E-019
  -94.3600000000000         2.668856879328301E-019
  -94.1700000000000         3.180635692436473E-019
  -93.9800000000000         2.762658119848910E-019
  -93.7900000000000         1.535523011556934E-019
  -93.6000000000000        -1.463855900394552E-020
  -93.4100000000000        -1.797557982270730E-019
  -93.2200000000000        -2.942034546564182E-019
  -93.0300000000000        -3.251082183031746E-019
  -92.8400000000000        -2.637869657720905E-019
  -92.6500000000000        -1.281859124226234E-019
  -92.4600000000000         4.238516307149256E-020
  -92.2700000000000         1.986743893559689E-019
  -92.0800000000000         2.957537254230481E-019
  -91.8900000000000         3.060117906851158E-019
  -91.7000000000000         2.271241245123733E-019
  -91.5100000000000         8.269001591593381E-020
  -91.3200000000000        -8.466324095736260E-020
  -91.1300000000000        -2.257188376197628E-019
  -90.9400000000000        -2.990347302477280E-019
  -90.7500000000000        -2.830428464228697E-019
  -90.5600000000000        -1.823523190571094E-019
  -90.3700000000000        -2.642524878450257E-020
  -90.1800000000000         1.389762090246313E-019
  -89.9900000000000         2.650734159499067E-019
  -89.8000000000000         3.142297211637766E-019
  -89.6100000000000         2.708907882624211E-019
  -89.4200000000000         1.461485817340812E-019
  -89.2300000000000        -2.539430729514034E-020
  -89.0400000000000        -1.955648830689796E-019
  -88.8500000000000        -3.164967205735683E-019
  -88.6600000000000        -3.544224881046011E-019
  -88.4700000000000        -2.993741493196128E-019
  -88.2800000000000        -1.679710529466940E-019
  -88.0900000000000         1.504676445610037E-021
  -87.9000000000000         1.602934013614017E-019
  -87.7100000000000         2.633349724899639E-019
  -87.5200000000000         2.823176769948512E-019
  -87.3300000000000         2.138265927409161E-019
  -87.1400000000000         8.024588888207895E-020
  -86.9500000000000        -7.683963789606111E-020
  -86.7600000000000        -2.088367037679858E-019
  -86.5700000000000        -2.744007981912625E-019
  -86.3800000000000        -2.516151471250860E-019
  -86.1900000000000        -1.445298422343855E-019
  -86.0000000000000         1.787091637593868E-020
  -85.8100000000000         1.899917332816407E-019
  -85.6200000000000         3.228145355747924E-019
  -85.4300000000000         3.781022404581835E-019
  -85.2400000000000         3.394825020170344E-019
  -85.0500000000000         2.172030155033860E-019
  -84.8600000000000         4.519714887682106E-020
  -84.6700000000000        -1.286797114656047E-019
  -84.4800000000000        -2.564230423138716E-019
  -84.2900000000000        -3.036924123736562E-019
  -84.1000000000000        -2.596774842842840E-019
  -83.9100000000000        -1.401520033165137E-019
  -83.7200000000000         1.718908166335231E-020
  -83.5300000000000         1.637707778495351E-019
  -83.3400000000000         2.543490270179410E-019
  -83.1500000000000         2.602480273729611E-019
  -82.9600000000000         1.777642587850527E-019
  -82.7700000000000         2.929564058163358E-020
  -82.5800000000000        -1.431185570765451E-019
  -82.3900000000000        -2.899569600718585E-019
  -82.2000000000000        -3.685451145910399E-019
  -82.0100000000000        -3.554127783493352E-019
  -81.8200000000000        -2.531132569233186E-019
  -81.6300000000000        -8.953173510920559E-020
  -81.4400000000000         9.012764101139660E-020
  -81.2500000000000         2.363664043264369E-019
  -81.0600000000000         3.096550396940361E-019
  -80.8700000000000         2.917902739913317E-019
  -80.6800000000000         1.910441262796360E-019
  -80.4900000000000         3.961797653550816E-020
  -80.3000000000000        -1.158361732497394E-019
  -80.1100000000000        -2.278537175744084E-019
  -79.9200000000000        -2.619939060122767E-019
  -79.7300000000000        -2.068772483663457E-019
  -79.5400000000000        -7.753146904529697E-020
  -79.3500000000000         8.892129477255675E-020
  -79.1600000000000         2.440005836444957E-019
  -78.9700000000000         3.419330118234599E-019
  -78.7800000000000         3.529739822522343E-019
  -78.5900000000000         2.721094935821816E-019
  -78.4000000000000         1.205954758958179E-019
  -78.2100000000000        -6.011784840397231E-020
  -78.0200000000000        -2.203023556387357E-019
  -77.8300000000000        -3.162371359928113E-019
  -77.6400000000000        -3.227193232424913E-019
  -77.4500000000000        -2.401951410301089E-019
  -77.2600000000000        -9.447748623257333E-020
  -77.0700000000000         7.084267508345034E-020
  -76.8800000000000         2.070882830130640E-019
  -76.6900000000000         2.746274271693107E-019
  -76.5000000000000         2.543601027625632E-019
  -76.3100000000000         1.532236698366979E-019
  -76.1200000000000         2.098829938653874E-021
  -75.9300000000000        -1.532919538548017E-019
  -75.7400000000000        -2.658442057810922E-019
  -75.5500000000000        -3.009516480694542E-019
  -75.3600000000000        -2.467414763914329E-019
  -75.1700000000000        -1.176711581642551E-019
  -74.9800000000000         4.956103939183885E-020
  -74.7900000000000         2.066023946669032E-019
  -74.6000000000000         3.074628961229565E-019
  -74.4100000000000         3.219097155361343E-019
  -74.2200000000000         2.443577316741758E-019
  -74.0300000000000         9.565981615775927E-020
  -73.8400000000000        -8.275645799063870E-020
  -73.6500000000000        -2.407372652219946E-019
  -73.4600000000000        -3.338141516053325E-019
  -73.2700000000000        -3.359944431127519E-019
  -73.0800000000000        -2.472104037596338E-019
  -72.8900000000000        -9.326659111333179E-020
  -72.7000000000000         8.168501193188022E-020
  -72.5100000000000         2.279430920229109E-019
  -72.3200000000000         3.046127891341672E-019
  -72.1300000000000         2.913670327229184E-019
  -71.9400000000000         1.942176272088520E-019
  -71.7500000000000         4.362901048490154E-020
  -71.5600000000000        -1.144820362929856E-019
  -71.3700000000000        -2.322535564458409E-019
  -71.1800000000000        -2.739620969518941E-019
  -70.9900000000000        -2.265649994656913E-019
  -70.8000000000000        -1.036057857524299E-019
  -70.6100000000000         5.866871184432906E-020
  -70.4200000000000         2.118433432377040E-019
  -70.2300000000000         3.094422055610801E-019
  -70.0400000000000         3.205030300608523E-019
  -69.8500000000000         2.386887392494837E-019
  -69.6600000000000         8.431183914871477E-020
  -69.4700000000000        -1.013096905063344E-019
  -69.2800000000000        -2.675508437364010E-019
  -69.0900000000000        -3.688839288744666E-019
  -68.9000000000000        -3.778522481736609E-019
  -68.7100000000000        -2.928683467556596E-019
  -68.5200000000000        -1.385724079153959E-019
  -68.3300000000000         4.135848266971263E-020
  -68.1400000000000         1.968591962842950E-019
  -67.9500000000000         2.859016168759394E-019
  -67.7600000000000         2.865058601341264E-019
  -67.5700000000000         2.028680161385503E-019
  -67.3800000000000         6.386025206629447E-020
  -67.1900000000000        -8.562616903982223E-020
  -67.0000000000000        -1.979633764140025E-019
  -66.8100000000000        -2.368377101284070E-019
  -66.6200000000000        -1.879906286889620E-019
  -66.4300000000000        -6.352064576155039E-020
  -66.2400000000000         1.015235112695024E-019
  -66.0500000000000         2.592853626383795E-019
  -65.8600000000000         3.630297727217382E-019
  -65.6700000000000         3.807880685069295E-019
  -65.4800000000000         3.047247580078796E-019
  -65.2900000000000         1.534899218999026E-019
  -65.1000000000000        -3.311659023128540E-020
  -64.9100000000000        -2.055973489298019E-019
  -64.7200000000000        -3.189847501684949E-019
  -64.5300000000000        -3.457124833574920E-019
  -64.3400000000000        -2.834035837604318E-019
  -64.1500000000000        -1.553227032122826E-019
  -63.9600000000000        -3.365712104905888E-021
  -63.7700000000000         1.243699036565721E-019
  -63.5800000000000         1.878016330662253E-019
  -63.3900000000000         1.666993654738359E-019
  -63.2000000000000         6.667185398251515E-020
  -63.0100000000000        -8.244449378063346E-020
  -62.8200000000000        -2.353043837429025E-019
  -62.6300000000000        -3.443141668016942E-019
  -62.4400000000000        -3.735634529971941E-019
  -62.2500000000000        -3.093882401773279E-019
  -62.0600000000000        -1.645203500403697E-019
  -61.8700000000000         2.536643501916558E-020
  -61.6800000000000         2.117192815386548E-019
  -61.4900000000000         3.468854624796421E-019
  -61.3000000000000         3.976372959467277E-019
  -61.1100000000000         3.545330953347390E-019
  -60.9200000000000         2.344032157149030E-019
  -60.7300000000000         7.524903378846623E-020
  -60.5400000000000        -7.494538536831827E-020
  -60.3500000000000        -1.722201466698402E-019
  -60.1600000000000        -1.893915732470884E-019
  -59.9700000000000        -1.238636749546305E-019
  -59.7800000000000         1.737928777632131E-021
  -59.5900000000000         1.462731238174519E-019
  -59.4000000000000         2.621980757288711E-019
  -59.2100000000000         3.095986905144906E-019
  -59.0200000000000         2.681040866785761E-019
  -58.8300000000000         1.432196297021719E-019
  -58.6400000000000        -3.480304936891388E-020
  -58.4500000000000        -2.193004455080563E-019
  -58.2600000000000        -3.603814939722191E-019
  -58.0700000000000        -4.191734470464000E-019
  -57.8800000000000        -3.790069252727153E-019
  -57.6900000000000        -2.502945498052073E-019
  -57.5000000000000        -6.768465868077001E-020
  -57.3100000000000         1.196958318625158E-019
  -57.1200000000000         2.621083393706646E-019
  -56.9300000000000         3.232020364475589E-019
  -56.7400000000000         2.901327000951616E-019
  -56.5500000000000         1.769022002013243E-019
  -56.3600000000000         1.997124216625289E-020
  -56.1700000000000        -1.325670809678415E-019
  -55.9800000000000        -2.350923821952282E-019
  -55.7900000000000        -2.577245881157884E-019
  -55.6000000000000        -1.948927229102524E-019
  -55.4100000000000        -6.673554037636041E-020
  -55.2200000000000         8.702730624224410E-020
  -55.0300000000000         2.189213016247212E-019
  -54.8400000000000         2.877695649808957E-019
  -54.6500000000000         2.708810712053038E-019
  -54.4600000000000         1.708433990816022E-019
  -54.2700000000000         1.495297460177893E-020
  -54.0800000000000        -1.525642601003399E-019
  -53.8900000000000        -2.833083595016891E-019
  -53.7000000000000        -3.387514789218709E-019
  -53.5100000000000        -3.014926740415485E-019
  -53.3200000000000        -1.804342476964106E-019
  -53.1300000000000        -8.360360381160633E-021
  -52.9400000000000         1.673798474524668E-019
  -52.7500000000000         2.983710462023707E-019
  -52.5600000000000         3.488968460326989E-019
  -52.3700000000000         3.060081029955380E-019
  -52.1800000000000         1.830282451654937E-019
  -51.9900000000000         1.552964183989043E-020
  -51.8000000000000        -1.490318341677863E-019
  -51.6100000000000        -2.650309477698306E-019
  -51.4200000000000        -3.017844909594630E-019
  -51.2300000000000        -2.522729839510913E-019
  -51.0400000000000        -1.349411419289131E-019
  -50.8500000000000         1.195323975426457E-020
  -50.6600000000000         1.417974261013490E-019
  -50.4700000000000         2.135349067984510E-019
  -50.2800000000000         2.039450521606020E-019
  -50.0900000000000         1.146774346736314E-019
  -49.9000000000000        -2.804199911310001E-020
  -49.7100000000000        -1.809775381179843E-019
  -49.5200000000000        -2.965438191445176E-019
  -49.3300000000000        -3.368815109658760E-019
  -49.1400000000000        -2.852303659890375E-019
  -48.9500000000000        -1.512346816461995E-019
  -48.7600000000000         3.144032634463587E-020
  -48.5700000000000         2.145598502241927E-019
  -48.3800000000000         3.491250956944532E-019
  -48.1900000000000         3.995073216179290E-019
  -48.0000000000000         3.537621504243560E-019
  -47.8100000000000         2.270912419448911E-019
  -47.6200000000000         5.743303068388500E-020
  -47.4300000000000        -1.055317595349644E-019
  -47.2400000000000        -2.147637782602875E-019
  -47.0500000000000        -2.394737910686201E-019
  -46.8600000000000        -1.740280550319788E-019
  -46.6700000000000        -3.957781352745101E-020
  -46.4800000000000         1.220713448009020E-019
  -46.2900000000000         2.605984116638440E-019
  -46.1000000000000         3.318131000442304E-019
  -45.9100000000000         3.105614537403462E-019
  -45.7200000000000         1.981354149010177E-019
  -45.5300000000000         2.203005463842136E-020
  -45.3400000000000        -1.718718820949489E-019
  -45.1500000000000        -3.324014873856058E-019
  -44.9600000000000        -4.176811711721251E-019
  -44.7700000000000        -4.069682663167235E-019
  -44.5800000000000        -3.063751909798635E-019
  -44.3900000000000        -1.468581130444233E-019
  -44.2000000000000         2.491039042691814E-020
  -44.0100000000000         1.601322671229359E-019
  -43.8200000000000         2.220087798380332E-019
  -43.6300000000000         1.963165768988938E-019
  -43.4400000000000         9.537559490430792E-020
  -43.2500000000000        -4.573646206517433E-020
  -43.0600000000000        -1.796129700256979E-019
  -42.8700000000000        -2.605461209577441E-019
  -42.6800000000000        -2.580698368319792E-019
  -42.4900000000000        -1.660916204266654E-019
  -42.3000000000000        -4.979109829446934E-021
  -42.1100000000000         1.839968865214323E-019
  -41.9200000000000         3.502693756165484E-019
  -41.7300000000000         4.483089610514205E-019
  -41.5400000000000         4.505771743141313E-019
  -41.3500000000000         3.553769925164400E-019
  -41.1600000000000         1.873335829570420E-019
  -40.9700000000000        -9.637531689210580E-021
  -40.7800000000000        -1.848332621121043E-019
  -40.5900000000000        -2.950984658480466E-019
  -40.4000000000000        -3.168320620422471E-019
  -40.2100000000000        -2.522082416347137E-019
  -40.0200000000000        -1.278739259382710E-019
  -39.8300000000000         1.341030755499705E-020
  -39.6400000000000         1.256764449962719E-019
  -39.4500000000000         1.734031541495965E-019
  -39.2600000000000         1.419369183737747E-019
  -39.0700000000000         4.166111275052450E-020
  -38.8800000000000        -9.528061505770767E-020
  -38.6900000000000        -2.247273513389596E-019
  -38.5000000000000        -3.038328994341933E-019
  -38.3100000000000        -3.040460480608946E-019
  -38.1200000000000        -2.198956550727855E-019
  -37.9300000000000        -7.097454695363789E-020
  -37.7400000000000         1.034740809694333E-019
  -37.5500000000000         2.557861328620785E-019
  -37.3600000000000         3.436437570872200E-019
  -37.1700000000000         3.423773987929574E-019
  -36.9800000000000         2.522365092243552E-019
  -36.7900000000000         9.851445460574491E-020
  -36.6000000000000        -7.553793362401197E-020
  -36.4100000000000        -2.210033441606818E-019
  -36.2200000000000        -2.972747268134660E-019
  -36.0300000000000        -2.836862920125174E-019
  -35.8400000000000        -1.854183983208606E-019
  -35.6500000000000        -3.194160804675693E-020
  -35.4600000000000         1.315641730314664E-019
  -35.2700000000000         2.573251198841452E-019
  -35.0800000000000         3.088103584933214E-019
  -34.8900000000000         2.712765012148221E-019
  -34.7000000000000         1.559740777156564E-019
  -34.5100000000000        -3.189060830904267E-021
  -34.3200000000000        -1.595555662269160E-019
  -34.1300000000000        -2.673342230209387E-019
  -33.9400000000000        -2.949872735424780E-019
  -33.7500000000000        -2.345037425329371E-019
  -33.5600000000000        -1.038416625798709E-019
  -33.3700000000000         5.820946830884924E-020
  -33.1800000000000         2.032857955132782E-019
  -32.9900000000000         2.875663888728342E-019
  -32.8000000000000         2.846423249719145E-019
  -32.6100000000000         1.933848475781553E-019
  -32.4200000000000         3.851025168840790E-020
  -32.2300000000000        -1.363472057494498E-019
  -32.0400000000000        -2.810821316702984E-019
  -31.8500000000000        -3.535214569896100E-019
  -31.6600000000000        -3.316464415396521E-019
  -31.4700000000000        -2.200971831510445E-019
  -31.2800000000000        -4.904322552612839E-020
  -31.0900000000000         1.343041217184410E-019
  -30.9000000000000         2.791230750428844E-019
  -30.7100000000000         3.454878187979311E-019
  -30.5200000000000         3.157551835888651E-019
  -30.3300000000000         1.995432724968905E-019
  -30.1400000000000         3.088454687454408E-020
  -29.9500000000000        -1.415904372848552E-019
  -29.7600000000000        -2.685813385267445E-019
  -29.5700000000000        -3.141484484477707E-019
  -29.3800000000000        -2.658402803406499E-019
  -29.1900000000000        -1.380511511215278E-019
  -29.0000000000000         3.231842856692532E-020
  -28.8100000000000         1.966262274686823E-019
  -28.6200000000000         3.085626433800995E-019
  -28.4300000000000         3.374613617856084E-019
  -28.2400000000000         2.769872552957005E-019
  -28.0500000000000         1.466869912666125E-019
  -27.8600000000000        -1.401973329180271E-020
  -27.6700000000000        -1.576111088771044E-019
  -27.4800000000000        -2.425191620537682E-019
  -27.2900000000000        -2.453476106189711E-019
  -27.1000000000000        -1.676904498049196E-019
  -26.9100000000000        -3.557912565061952E-020
  -26.7200000000000         1.082657645827395E-019
  -26.5300000000000         2.171128323403443E-019
  -26.3400000000000         2.541278003203625E-019
  -26.1500000000000         2.034417951097627E-019
  -25.9600000000000         7.512445096267534E-020
  -25.7700000000000        -9.742010185897766E-020
  -25.5800000000000        -2.668957984767085E-019
  -25.3900000000000        -3.856501637531001E-019
  -25.2000000000000        -4.193635223499493E-019
  -25.0100000000000        -3.569208502269024E-019
  -24.8200000000000        -2.136214914618772E-019
  -24.6300000000000        -2.682239065301245E-020
  -24.4400000000000         1.547069632988807E-019
  -24.2500000000000         2.846412068401838E-019
  -24.0600000000000         3.321784858086311E-019
  -23.8700000000000         2.905784244674501E-019
  -23.6800000000000         1.786981483795459E-019
  -23.4900000000000         3.509027584008285E-020
  -23.3000000000000        -9.360395555681372E-020
  -23.1100000000000        -1.665567777599364E-019
  -22.9200000000000        -1.608633951837374E-019
  -22.7300000000000        -7.830227109003714E-020
  -22.5400000000000         5.522690128485812E-020
  -22.3500000000000         1.974043819296761E-019
  -22.1600000000000         3.020647198651315E-019
  -21.9700000000000         3.329728869408340E-019
  -21.7800000000000         2.747901126352304E-019
  -21.5900000000000         1.380227533135956E-019
  -21.4000000000000        -4.353022068202250E-020
  -21.2100000000000        -2.221563395570115E-019
  -21.0200000000000        -3.497742149873966E-019
  -20.8300000000000        -3.917444042987362E-019
  -20.6400000000000        -3.369326703196570E-019
  -20.4500000000000        -2.010746665525508E-019
  -20.2600000000000        -2.243125175549151E-020
  -20.0700000000000         1.490333444167321E-019
  -19.8800000000000         2.658391929133289E-019
  -19.6900000000000         2.964648615957882E-019
  -19.5000000000000         2.342410915264798E-019
  -19.3100000000000         9.911700820955442E-020
  -19.1200000000000        -6.820318695704154E-020
  -18.9300000000000        -2.180676384020736E-019
  -18.7400000000000        -3.062318902330355E-019
  -18.5500000000000        -3.066193280055052E-019
  -18.3600000000000        -2.187912348275433E-019
  -18.1700000000000        -6.795983691821526E-020
  -17.9800000000000         1.024463878584015E-019
  -17.7900000000000         2.434775533783489E-019
  -17.6000000000000         3.149005617189690E-019
  -17.4100000000000         2.968348322755075E-019
  -17.2200000000000         1.954250753588744E-019
  -17.0300000000000         4.094199757680100E-020
  -16.8400000000000        -1.211037920160692E-019
  -16.6500000000000        -2.432435924664882E-019
  -16.4600000000000        -2.898799823321681E-019
  -16.2700000000000        -2.476562671757344E-019
  -16.0800000000000        -1.293498703884979E-019
  -15.8900000000000         2.985329954780784E-020
  -15.7000000000000         1.826260780285010E-019
  -15.5100000000000         2.833163063913633E-019
  -15.3200000000000         3.012809937703833E-019
  -15.1300000000000         2.298559166248875E-019
  -14.9400000000000         8.836492361581895E-020
  -14.7500000000000        -8.339439878362115E-020
  -14.5600000000000        -2.365785010531358E-019
  -14.3700000000000        -3.273385022315427E-019
  -14.1800000000000        -3.294340395608236E-019
  -13.9900000000000        -2.417915527636144E-019
  -13.8000000000000        -8.882358983300752E-020
  -13.6100000000000         8.659660826312142E-020
  -13.4200000000000         2.354873508957495E-019
  -13.2300000000000         3.168621284169624E-019
  -13.0400000000000         3.094828565029043E-019
  -12.8500000000000         2.178393817163724E-019
  -12.6600000000000         7.062566560515927E-020
  -12.4700000000000        -8.781419818548879E-020
  -12.2800000000000        -2.105458021394034E-019
  -12.0900000000000        -2.617879675653767E-019
  -11.9000000000000        -2.273391465038652E-019
  -11.7100000000000        -1.186622030740684E-019
  -11.5200000000000         3.055591943003315E-020
  -11.3300000000000         1.743743588477173E-019
  -11.1400000000000         2.682026757390675E-019
  -10.9500000000000         2.820663773828359E-019
  -10.7600000000000         2.096327837288802E-019
  -10.5700000000000         7.031916649959577E-020
  -10.3800000000000        -9.616974237687120E-020
  -10.1900000000000        -2.413021015907354E-019
  -10.0000000000000        -3.218430212578012E-019
  -9.81000000000000        -3.125300712671066E-019
  -9.62000000000000        -2.136125185055350E-019
  -9.42999999999999        -5.105658136146162E-020
  -9.23999999999999         1.306665906022849E-019
  -9.05000000000000         2.811605904512581E-019
  -8.86000000000000         3.584507296874133E-019
  -8.67000000000000         3.409707783299204E-019
  -8.48000000000000         2.337222046818104E-019
  -8.28999999999999         6.681269462950499E-020
  -8.09999999999999        -1.132097459644321E-019
  -7.91000000000000        -2.567139487246662E-019
  -7.72000000000000        -3.251593942837629E-019
  -7.53000000000000        -3.019910601147225E-019
  -7.34000000000000        -1.971372202008890E-019
  -7.15000000000001        -4.386290791632079E-020
  -6.95999999999999         1.110644618947446E-019
  -6.77000000000000         2.210367849659091E-019
  -6.58000000000000         2.531561377227349E-019
  -6.39000000000000         1.977771906605532E-019
  -6.20000000000000         7.129013252594685E-020
  -6.01000000000001        -8.866934493455826E-020
  -5.81999999999999        -2.342088473526820E-019
  -5.63000000000000        -3.211818594058932E-019
  -5.44000000000000        -3.221240199287653E-019
  -5.25000000000000        -2.343456495748480E-019
  -5.06000000000000        -8.082224057716063E-020
  -4.87000000000000         9.636719435252919E-020
  -4.67999999999999         2.481374947553497E-019
  -4.48999999999999         3.325207910255689E-019
  -4.30000000000000         3.267359380185000E-019
  -4.11000000000000         2.337260666214660E-019
  -3.92000000000000         8.128012270721938E-020
  -3.73000000000000        -8.601363917295269E-020
  -3.53999999999999        -2.196643919105053E-019
  -3.34999999999999        -2.812926684640167E-019
  -3.16000000000000        -2.536902108290642E-019
  -2.97000000000000        -1.457094292783512E-019
  -2.78000000000000         1.042943573613389E-020
  -2.59000000000000         1.686070246745548E-019
  -2.40000000000001         2.822695285369214E-019
  -2.20999999999999         3.179602359443624E-019
  -2.02000000000000         2.649916911866434E-019
  -1.83000000000000         1.384706199066413E-019
  -1.64000000000000        -2.518078395418309E-020
  -1.45000000000000        -1.788950714062519E-019
  -1.26000000000001        -2.787163786536355E-019
  -1.06999999999999        -2.966343226344148E-019
 -0.879999999999995        -2.287410081182332E-019
 -0.689999999999998        -9.631518283674016E-020
 -0.500000000000000         6.048916067641194E-020
 -0.310000000000002         1.944938919548075E-019
 -0.120000000000005         2.653998241678612E-019
  7.000000000000739E-002    2.516595551571441E-019
  0.260000000000005         1.568507049869334E-019
  0.450000000000003         8.699877096705151E-021
  0.640000000000001        -1.489553503165950E-019
  0.829999999999998        -2.689409425652491E-019
   1.02000000000000        -3.145635604345804E-019
   1.21000000000001        -2.704606977651268E-019
   1.40000000000001        -1.473073673237179E-019
   1.59000000000000         2.103767177886622E-020
   1.78000000000000         1.871692312061450E-019
   1.97000000000000         3.037857418189658E-019
   2.16000000000000         3.373851682597729E-019
   2.34999999999999         2.780119838470685E-019
   2.54000000000001         1.422127673635812E-019
   2.73000000000000        -3.165977207029260E-020
   2.92000000000000        -1.944339471064966E-019
   3.11000000000000        -3.002243337991996E-019
   3.30000000000000        -3.195923069469979E-019
   3.48999999999999        -2.479760333066503E-019
   3.68000000000001        -1.069602835338524E-019
   3.87000000000000         6.199243211475903E-020
   4.06000000000000         2.095567006348613E-019
   4.25000000000000         2.928397481893386E-019
   4.44000000000000         2.878131664100386E-019
   4.63000000000000         1.962657810999652E-019
   4.82000000000001         4.525563980108127E-020
   5.01000000000001        -1.207731436799635E-019
   5.20000000000000        -2.529089842650213E-019
   5.39000000000000        -3.119753948822976E-019
   5.58000000000000        -2.799122542634331E-019
   5.77000000000000        -1.650586536247083E-019
   5.96000000000001         1.829125596911059E-022
   6.15000000000001         1.686360337550219E-019
   6.34000000000000         2.919267414127807E-019
   6.53000000000000         3.344315984302324E-019