  -105.000000000000         0.000000000000000E+000
  -104.810000000000        -1.436862705140107E-020
  -104.620000000000        -3.962051809807806E-020
  -104.430000000000        -6.995650649385303E-020
  -104.240000000000        -9.888862389401666E-020
  -104.050000000000        -1.210462915241413E-019
  -103.860000000000        -1.336434949033258E-019
  -103.670000000000        -1.371853565517012E-019
  -103.480000000000        -1.352137023705236E-019
  -103.290000000000        -1.331706595700801E-019
  -103.100000000000        -1.367154230603788E-019
  -102.910000000000        -1.499872757552354E-019
  -102.720000000000        -1.743219808950521E-019
  -102.530000000000        -2.077954175038451E-019
  -102.340000000000        -2.457272487359229E-019
  -102.150000000000        -2.819986037791959E-019
  -101.960000000000        -3.108015514200560E-019
  -101.770000000000        -3.283124033155057E-019
  -101.580000000000        -3.338019544723475E-019
  -101.390000000000        -3.298580561065839E-019
  -101.200000000000        -3.216530477777961E-019
  -101.010000000000        -3.154661943904911E-019
  -100.820000000000        -3.168883225531956E-019
  -100.630000000000        -3.292285037485181E-019
  -100.440000000000        -3.525836161762020E-019
  -100.250000000000        -3.838385150531030E-019
  -100.060000000000        -4.175942437482709E-019
  -99.8700000000000        -4.477531161445980E-019
  -99.6800000000000        -4.693002063457381E-019
  -99.4900000000000        -4.797649113737929E-019
  -99.3000000000000        -4.799394055481370E-019
  -99.1100000000000        -4.736460504088543E-019
  -98.9200000000000        -4.666214018038726E-019
  -98.7300000000000        -4.648410067081190E-019
  -98.5400000000000        -4.727721674917743E-019
  -98.3500000000000        -4.920633026022123E-019
  -98.1600000000000        -5.210516672758824E-019
  -97.9700000000000        -5.552329071771834E-019
  -97.7800000000000        -5.885559524442594E-019
  -97.5900000000000        -6.151669451857103E-019
  -97.4000000000000        -6.310958953155484E-019
  -97.2100000000000        -6.353968296164360E-019
  -97.0200000000000        -6.304108504195206E-019
  -96.8300000000000        -6.210756892304038E-019
  -96.6400000000000        -6.134817819719721E-019
  -96.4500000000000        -6.130938619336874E-019
  -96.2600000000000        -6.231549288677238E-019
  -96.0700000000000        -6.437372170383003E-019
  -95.8800000000000        -6.717170556762988E-019
  -95.6900000000000        -7.016817300797663E-019
  -95.5000000000000        -7.275051161115386E-019
  -95.3100000000000        -7.441343183436224E-019
  -95.1200000000000        -7.490683723390653E-019
  -94.9300000000000        -7.430995435323565E-019
  -94.7400000000000        -7.301013455863057E-019
  -94.5500000000000        -7.159231399495661E-019
  -94.3600000000000        -7.067096840195809E-019
  -94.1700000000000        -7.071309283816671E-019
  -93.9800000000000        -7.190343873230442E-019
  -93.7900000000000        -7.409111053293275E-019
  -93.6000000000000        -7.683310220110735E-019
  -93.4100000000000        -7.952223185102843E-019
  -93.2200000000000        -8.156241413038610E-019
  -93.0300000000000        -8.254048568230879E-019
  -92.8400000000000        -8.234488146760035E-019
  -92.6500000000000        -8.119698290754773E-019
  -92.4600000000000        -7.958633133966200E-019
  -92.2700000000000        -7.812871563793034E-019
  -92.0800000000000        -7.738836599427306E-019
  -91.8900000000000        -7.771575560356970E-019
  -91.7000000000000        -7.914791699928348E-019
  -91.5100000000000        -8.140004823371487E-019
  -91.3200000000000        -8.395070927889409E-019
  -91.1300000000000        -8.619571465871533E-019
  -90.9400000000000        -8.762581730011453E-019
  -90.7500000000000        -8.797632541533684E-019
  -90.5600000000000        -8.730497092864078E-019
  -90.3700000000000        -8.597527207990134E-019
  -90.1800000000000        -8.455016941122869E-019
  -89.9900000000000        -8.362681180325802E-019
  -89.8000000000000        -8.366044904566663E-019
  -89.6100000000000        -8.482854757869558E-019
  -89.4200000000000        -8.697462920595783E-019
  -89.2300000000000        -8.964831300773314E-019
  -89.0400000000000        -9.223024235477700E-019
  -88.8500000000000        -9.410601114477355E-019
  -88.6600000000000        -9.483898862118775E-019
  -88.4700000000000        -9.429224511188089E-019
  -88.2800000000000        -9.266455403600118E-019
  -88.0900000000000        -9.043039959743855E-019
  -87.9000000000000        -8.820176508139952E-019
  -87.7100000000000        -8.655208120892505E-019
  -87.5200000000000        -8.585351817390812E-019
  -87.3300000000000        -8.617473629097796E-019
  -87.1400000000000        -8.726852103017119E-019
  -86.9500000000000        -8.865256935047234E-019
  -86.7600000000000        -8.975961302695166E-019
  -86.5700000000000        -9.011286600336135E-019
  -86.3800000000000        -8.947532182132627E-019
  -86.1900000000000        -8.792892532555816E-019
  -86.0000000000000        -8.586000080347802E-019
  -85.8100000000000        -8.385465438838958E-019
  -85.6200000000000        -8.253418969696591E-019
  -85.4300000000000        -8.237814576148180E-019
  -85.2400000000000        -8.358623665336694E-019
  -85.0500000000000        -8.601921391396570E-019
  -84.8600000000000        -8.923582944718149E-019
  -84.6700000000000        -9.261531569545513E-019
  -84.4800000000000        -9.553014183511931E-019
  -84.2900000000000        -9.751932506005528E-019
  -84.1000000000000        -9.841242412934084E-019
  -83.9100000000000        -9.836858787398297E-019
  -83.7200000000000        -9.781962230702476E-019
  -83.5300000000000        -9.733390097321555E-019
  -83.3400000000000        -9.744097432210849E-019
  -83.1500000000000        -9.846818343316240E-019
  -82.9600000000000        -1.004370744095168E-018
  -82.7700000000000        -1.030499654343154E-018
  -82.5800000000000        -1.057707570162660E-018
  -82.3900000000000        -1.079766760315777E-018
  -82.2000000000000        -1.091370643392551E-018
  -82.0100000000000        -1.089674823264566E-018
  -81.8200000000000        -1.075145087563747E-018
  -81.6300000000000        -1.051466060606604E-018
  -81.4400000000000        -1.024535343910051E-018
  -81.2500000000000        -1.000832301504982E-018
  -81.0600000000000        -9.856316158044444E-019
  -80.8700000000000        -9.815765023288096E-019
  -80.6800000000000        -9.880216044319311E-019
  -80.4900000000000        -1.001331496071636E-018
  -80.3000000000000        -1.016042940544815E-018
  -80.1100000000000        -1.026548772062623E-018
  -79.9200000000000        -1.028811097196613E-018
  -79.7300000000000        -1.021604323759636E-018
  -79.5400000000000        -1.006925650828950E-018
  -79.3500000000000        -9.894522122393563E-019
  -79.1600000000000        -9.752005636652576E-019
  -78.9700000000000        -9.697761120561426E-019
  -78.7800000000000        -9.767202982018525E-019
  -78.5900000000000        -9.964365026209925E-019
  -78.4000000000000        -1.026008849863537E-018
  -78.2100000000000        -1.059969488442269E-018
  -78.0200000000000        -1.091794987168534E-018
  -77.8300000000000        -1.115701610988998E-018
  -77.6400000000000        -1.128223719854336E-018
  -77.4500000000000        -1.129123599842324E-018
  -77.2600000000000        -1.121375282512406E-018
  -77.0700000000000        -1.110232586366225E-018
  -76.8800000000000        -1.101655419111580E-018
  -76.6900000000000        -1.100552640537820E-018
  -76.5000000000000        -1.109351730834394E-018
  -76.3100000000000        -1.127309981714768E-018
  -76.1200000000000        -1.150765906699266E-018
  -75.9300000000000        -1.174255127262793E-018
  -75.7400000000000        -1.192161955265407E-018
  -75.5500000000000        -1.200420558929484E-018
  -75.3600000000000        -1.197764482637794E-018
  -75.1700000000000        -1.186154983344463E-018
  -74.9800000000000        -1.170258423637589E-018
  -74.7900000000000        -1.156120546257148E-018
  -74.6000000000000        -1.149420052741737E-018
  -74.4100000000000        -1.153807750606887E-018
  -74.2200000000000        -1.169814966171263E-018
  -74.0300000000000        -1.194652179429833E-018
  -73.8400000000000        -1.222962351947633E-018
  -73.6500000000000        -1.248316993432081E-018
  -73.4600000000000        -1.265026900658179E-018
  -73.2700000000000        -1.269747029777294E-018
  -73.0800000000000        -1.262413640683020E-018
  -72.8900000000000        -1.246244874514687E-018
  -72.7000000000000        -1.226806938606168E-018
  -72.5100000000000        -1.210417961449494E-018
  -72.3200000000000        -1.202351992725230E-018
  -72.1300000000000        -1.205361799923408E-018
  -71.9400000000000        -1.218945302297654E-018
  -71.7500000000000        -1.239564021611471E-018
  -71.5600000000000        -1.261745275401100E-018
  -71.3700000000000        -1.279742842333527E-018
  -71.1800000000000        -1.289268041795123E-018
  -70.9900000000000        -1.288782376033737E-018
  -70.8000000000000        -1.279970836590439E-018
  -70.6100000000000        -1.267254726219171E-018
  -70.4200000000000        -1.256484157560702E-018
  -70.2300000000000        -1.253190642822606E-018
  -70.0400000000000        -1.260909207826241E-018
  -69.8500000000000        -1.280060203195862E-018
  -69.6600000000000        -1.307719817032960E-018
  -69.4700000000000        -1.338352363891203E-018
  -69.2800000000000        -1.365300517205609E-018
  -69.0900000000000        -1.382611055791298E-018
  -68.9000000000000        -1.386676041239362E-018
  -68.7100000000000        -1.377221087327829E-018
  -68.5200000000000        -1.357359358770727E-018
  -68.3300000000000        -1.332698659722565E-018
  -68.1400000000000        -1.309761592964083E-018
  -67.9500000000000        -1.294175823824507E-018
  -67.7600000000000        -1.289155526551556E-018
  -67.5700000000000        -1.294707797917277E-018
  -67.3800000000000        -1.307785233910362E-018
  -67.1900000000000        -1.323330313588648E-018
  -67.0000000000000        -1.335898715146325E-018
  -66.8100000000000        -1.341381643691972E-018
  -66.6200000000000        -1.338319553483542E-018
  -66.4300000000000        -1.328419272213387E-018
  -66.2400000000000        -1.316119175121559E-018
  -66.0500000000000        -1.307325530277239E-018
  -65.8600000000000        -1.307686409492287E-018
  -65.6700000000000        -1.320906265213114E-018
  -65.4800000000000        -1.347593919711663E-018
  -65.2900000000000        -1.384982084381977E-018
  -65.1000000000000        -1.427603111907180E-018
  -64.9100000000000        -1.468727980249946E-018
  -64.7200000000000        -1.502154628354414E-018
  -64.5300000000000        -1.523831607561011E-018
  -64.3400000000000        -1.532852098154199E-018
  -64.1500000000000        -1.531537066448798E-018
  -63.9600000000000        -1.524591401370935E-018
  -63.7700000000000        -1.517586479522970E-018
  -63.5800000000000        -1.515218363024649E-018
  -63.3900000000000        -1.519855358413053E-018
  -63.2000000000000        -1.530802698148032E-018
  -63.0100000000000        -1.544500759850977E-018
  -62.8200000000000        -1.555598838893927E-018
  -62.6300000000000        -1.558589822398869E-018
  -62.4400000000000        -1.549527121168254E-018
  -62.2500000000000        -1.527320997807712E-018
  -62.0600000000000        -1.494233057830681E-018
  -61.8700000000000        -1.455419218936071E-018
  -61.6800000000000        -1.417645923486339E-018
  -61.4900000000000        -1.387542847923100E-018
  -61.3000000000000        -1.369889344181348E-018
  -61.1100000000000        -1.366422438461164E-018
  -60.9200000000000        -1.375503655789849E-018
  -60.7300000000000        -1.392733584188608E-018
  -60.5400000000000        -1.412329157746939E-018
  -60.3500000000000        -1.428859005082817E-018
  -60.1600000000000        -1.438830730336820E-018
  -59.9700000000000        -1.441669664455262E-018
  -59.7800000000000        -1.439807384371478E-018
  -59.5900000000000        -1.437857771792575E-018
  -59.4000000000000        -1.441123655021076E-018
  -59.2100000000000        -1.453872257555205E-018
  -59.0200000000000        -1.477887021002337E-018
  -58.8300000000000        -1.511726615818825E-018
  -58.6400000000000        -1.550920175666853E-018
  -58.4500000000000        -1.589058032067888E-018
  -58.2600000000000        -1.619476862818524E-018
  -58.0700000000000        -1.637062914365681E-018
  -57.8800000000000        -1.639658586199727E-018
  -57.6900000000000        -1.628668200111483E-018
  -57.5000000000000        -1.608686514574702E-018
  -57.3100000000000        -1.586252480016547E-018
  -57.1200000000000        -1.568080242598042E-018
  -56.9300000000000        -1.559267757421926E-018
  -56.7400000000000        -1.561988123579021E-018
  -56.5500000000000        -1.575028641236129E-018
  -56.3600000000000        -1.594297875051183E-018
  -56.1700000000000        -1.614142157433629E-018
  -55.9800000000000        -1.629080660922409E-018
  -55.7900000000000        -1.635449996570306E-018
  -55.6000000000000        -1.632479698317577E-018
  -55.4100000000000        -1.622489678953165E-018
  -55.2200000000000        -1.610159509960483E-018
  -55.0300000000000        -1.601091094696686E-018
  -54.8400000000000        -1.600091825236641E-018
  -54.6500000000000        -1.609685542330836E-018
  -54.4600000000000        -1.629291220803333E-018
  -54.2700000000000        -1.655314504744147E-018
  -54.0800000000000        -1.682131485593775E-018
  -53.8900000000000        -1.703683962144605E-018
  -53.7000000000000        -1.715225911682367E-018
  -53.5100000000000        -1.714714408648621E-018
  -53.3200000000000        -1.703439003641505E-018
  -53.1300000000000        -1.685702896668956E-018
  -52.9400000000000        -1.667643292688962E-018
  -52.7500000000000        -1.655526973741935E-018
  -52.5600000000000        -1.654007839275859E-018
  -52.3700000000000        -1.664842648353524E-018
  -52.1800000000000        -1.686427775225603E-018
  -51.9900000000000        -1.714283057485453E-018
  -51.8000000000000        -1.742337313798217E-018
  -51.6100000000000        -1.764641484166289E-018
  -51.4200000000000        -1.777014716272365E-018
  -51.2300000000000        -1.778150621088389E-018
  -51.0400000000000        -1.769869375068730E-018
  -50.8500000000000        -1.756451035166327E-018
  -50.6600000000000        -1.743254153426032E-018
  -50.4700000000000        -1.735033093032921E-018
  -50.2800000000000        -1.734455744256011E-018
  -50.0900000000000        -1.741264332562001E-018
  -49.9000000000000        -1.752332738143207E-018
  -49.7100000000000        -1.762609456212885E-018
  -49.5200000000000        -1.766673136014555E-018
  -49.3300000000000        -1.760444117958420E-018
  -49.1400000000000        -1.742544550142287E-018
  -48.9500000000000        -1.714897336665291E-018
  -48.7600000000000        -1.682373135990011E-018
  -48.5700000000000        -1.651571971353677E-018
  -48.3800000000000        -1.629080829228991E-018
  -48.1900000000000        -1.619705471546164E-018
  -48.0000000000000        -1.625186289376941E-018
  -47.8100000000000        -1.643770036754650E-018
  -47.6200000000000        -1.670761985909674E-018
  -47.4300000000000        -1.699899129472370E-018
  -47.2400000000000        -1.725147613852646E-018
  -47.0500000000000        -1.742405484700520E-018
  -46.8600000000000        -1.750619920091803E-018
  -46.6700000000000        -1.751997861076162E-018
  -46.4800000000000        -1.751251364905512E-018
  -46.2900000000000        -1.754098750835280E-018
  -46.1000000000000        -1.765459030191345E-018
  -45.9100000000000        -1.787867169832480E-018
  -45.7200000000000        -1.820574597355232E-018
  -45.5300000000000        -1.859600891747869E-018
  -45.3400000000000        -1.898726599859410E-018
  -45.1500000000000        -1.931144276601497E-018
  -44.9600000000000        -1.951294749443708E-018
  -44.7700000000000        -1.956363118394029E-018
  -44.5800000000000        -1.947008408336883E-018
  -44.3900000000000        -1.927122355688871E-018
  -44.2000000000000        -1.902692136920352E-018
  -44.0100000000000        -1.880098621982024E-018
  -43.8200000000000        -1.864342443580373E-018
  -43.6300000000000        -1.857708779641575E-018
  -43.4400000000000        -1.859252864016046E-018
  -43.2500000000000        -1.865248958746718E-018
  -43.0600000000000        -1.870465080275924E-018
  -42.8700000000000        -1.869885673019656E-018
  -42.6800000000000        -1.860374504358577E-018
  -42.4900000000000        -1.841787774062579E-018
  -42.3000000000000        -1.817207007169458E-018
  -42.1100000000000        -1.792215985696750E-018
  -41.9200000000000        -1.773422176881961E-018
  -41.7300000000000        -1.766641643733977E-018
  -41.5400000000000        -1.775264806174890E-018
  -41.3500000000000        -1.799270379657205E-018
  -41.1600000000000        -1.835170326724814E-018
  -40.9700000000000        -1.876902374805138E-018
  -40.7800000000000        -1.917415385465606E-018
  -40.5900000000000        -1.950495544742820E-018
  -40.4000000000000        -1.972315623065839E-018
  -40.2100000000000        -1.982274266692047E-018
  -40.0200000000000        -1.982901795784783E-018
  -39.8300000000000        -1.978881179965060E-018
  -39.6400000000000        -1.975487966516674E-018
  -39.4500000000000        -1.976917129924042E-018
  -39.2600000000000        -1.984991491069476E-018
  -39.0700000000000        -1.998628996611131E-018
  -38.8800000000000        -2.014219586296410E-018
  -38.6900000000000        -2.026792680775141E-018
  -38.5000000000000        -2.031622132303924E-018
  -38.3100000000000        -2.025785472283593E-018
  -38.1200000000000        -2.009206918097509E-018
  -37.9300000000000        -1.984865331150596E-018
  -37.7400000000000        -1.958094371006299E-018
  -37.5500000000000        -1.935169773241741E-018
  -37.3600000000000        -1.921589226260289E-018
  -37.1700000000000        -1.920542382191413E-018
  -36.9800000000000        -1.932015893323568E-018
  -36.7900000000000        -1.952796770267641E-018
  -36.6000000000000        -1.977379266346923E-018
  -36.4100000000000        -1.999519954022656E-018
  -36.2200000000000        -2.013997581067930E-018
  -36.0300000000000        -2.018073330359649E-018
  -35.8400000000000        -2.012231793971653E-018
  -35.6500000000000        -1.999989782408843E-018
  -35.4600000000000        -1.986829558212373E-018
  -35.2700000000000        -1.978566782309799E-018
  -35.0800000000000        -1.979627170965925E-018
  -34.8900000000000        -1.991731795206102E-018
  -34.7000000000000        -2.013371857335386E-018
  -34.5100000000000        -2.040224610649700E-018
  -34.3200000000000        -2.066389351755961E-018
  -34.1300000000000        -2.086084769499763E-018
  -33.9400000000000        -2.095314761793331E-018
  -33.7500000000000        -2.093017937458636E-018
  -33.5600000000000        -2.081364629739956E-018
  -33.3700000000000        -2.065112170938058E-018
  -33.1800000000000        -2.050203307001508E-018
  -32.9900000000000        -2.042014157083779E-018
  -32.8000000000000        -2.043762014605118E-018
  -32.6100000000000        -2.055538802969942E-018
  -32.4200000000000        -2.074255877181342E-018
  -32.2300000000000        -2.094522365825229E-018
  -32.0400000000000        -2.110208624316132E-018
  -31.8500000000000        -2.116246644022896E-018
  -31.6600000000000        -2.110147957152486E-018
  -31.4700000000000        -2.092797602854352E-018
  -31.2800000000000        -2.068288502625742E-018
  -31.0900000000000        -2.042835784209760E-018
  -30.9000000000000        -2.023076117510092E-018
  -30.7100000000000        -2.014235760208752E-018
  -30.5200000000000        -2.018690223726516E-018
  -30.3300000000000        -2.035326393341537E-018
  -30.1400000000000        -2.059887190662512E-018
  -29.9500000000000        -2.086196867750104E-018
  -29.7600000000000        -2.107913737656287E-018
  -29.5700000000000        -2.120308742768979E-018
  -29.3800000000000        -2.121564343245562E-018
  -29.1900000000000        -2.113228656189453E-018
  -29.0000000000000        -2.099703628148087E-018
  -28.8100000000000        -2.086923364259269E-018
  -28.6200000000000        -2.080610264268146E-018
  -28.4300000000000        -2.084615872588034E-018
  -28.2400000000000        -2.099825753738914E-018
  -28.0500000000000        -2.123940981420392E-018
  -27.8600000000000        -2.152191464668634E-018
  -27.6700000000000        -2.178763786824804E-018
  -27.4800000000000        -2.198518531889787E-018
  -27.2900000000000        -2.208489796076135E-018
  -27.1000000000000        -2.208726029558164E-018
  -26.9100000000000        -2.202226264840592E-018
  -26.7200000000000        -2.193991856180898E-018
  -26.5300000000000        -2.189473595502425E-018
  -26.3400000000000        -2.192872102739181E-018
  -26.1500000000000        -2.205793928792189E-018
  -25.9600000000000        -2.226663545285016E-018
  -25.7700000000000        -2.251071664176457E-018
  -25.5800000000000        -2.272967094785319E-018
  -25.3900000000000        -2.286352667816940E-018
  -25.2000000000000        -2.286997983070233E-018
  -25.0100000000000        -2.273675891374548E-018
  -24.8200000000000        -2.248566852761998E-018
  -24.6300000000000        -2.216715054397495E-018
  -24.4400000000000        -2.184692531037029E-018
  -24.2500000000000        -2.158853895581969E-018
  -24.0600000000000        -2.143679878020765E-018
  -23.8700000000000        -2.140679832926939E-018
  -23.6800000000000        -2.148159820210994E-018
  -23.4900000000000        -2.161910774757973E-018
  -23.3000000000000        -2.176603601084016E-018
  -23.1100000000000        -2.187472886522542E-018
  -22.9200000000000        -2.191788653740151E-018
  -22.7300000000000        -2.189680508826833E-018
  -22.5400000000000        -2.184071457172982E-018
  -22.3500000000000        -2.179742452606134E-018
  -22.1600000000000        -2.181805739687842E-018
  -21.9700000000000        -2.194040271526891E-018
  -21.7800000000000        -2.217585405792581E-018
  -21.5900000000000        -2.250387533918359E-018
  -21.4000000000000        -2.287577396746849E-018
  -21.2100000000000        -2.322685688604342E-018
  -21.0200000000000        -2.349358930308982E-018
  -20.8300000000000        -2.363087972417144E-018
  -20.6400000000000        -2.362452321823466E-018
  -20.4500000000000        -2.349518726327640E-018
  -20.2600000000000        -2.329273681055169E-018
  -20.0700000000000        -2.308246814961870E-018
  -19.8800000000000        -2.292714764785337E-018
  -19.6900000000000        -2.286995638659948E-018
  -19.5000000000000        -2.292317854222721E-018
  -19.3100000000000        -2.306581836784125E-018
  -19.1200000000000        -2.325076448937713E-018
  -18.9300000000000        -2.341937775643135E-018
  -18.7400000000000        -2.351924726497942E-018
  -18.5500000000000        -2.351995307016330E-018
  -18.3600000000000        -2.342225980920684E-018
  -18.1700000000000        -2.325807953754821E-018
  -17.9800000000000        -2.308123156428083E-018
  -17.7900000000000        -2.295170711665540E-018
  -17.6000000000000        -2.291803300812307E-018
  -17.4100000000000        -2.300287198600379E-018
  -17.2200000000000        -2.319604603576435E-018
  -17.0300000000000        -2.345700810115455E-018
  -16.8400000000000        -2.372605042784285E-018
  -16.6500000000000        -2.394101580037023E-018
  -16.4600000000000        -2.405469426254622E-018
  -16.2700000000000        -2.404789490958249E-018
  -16.0800000000000        -2.393443629686138E-018
  -15.8900000000000        -2.375664121251321E-018
  -15.7000000000000        -2.357267551583608E-018
  -15.5100000000000        -2.343943513240581E-018
  -15.3200000000000        -2.339596928715103E-018
  -15.1300000000000        -2.345225722337474E-018
  -14.9400000000000        -2.358658387396343E-018
  -14.7500000000000        -2.375225153780838E-018
  -14.5600000000000        -2.389165277916602E-018
  -14.3700000000000        -2.395359863980745E-018
  -14.1800000000000        -2.390885567928453E-018
  -13.9900000000000        -2.375936182600704E-018
  -13.8000000000000        -2.353841579665552E-018
  -13.6100000000000        -2.330174558942047E-018
  -13.4200000000000        -2.311200774132159E-018
  -13.2300000000000        -2.302118391083046E-018
  -13.0400000000000        -2.305596316016418E-018
  -12.8500000000000        -2.321033829090938E-018
  -12.6600000000000        -2.344754932687000E-018
  -12.4700000000000        -2.371078992886215E-018
  -12.2800000000000        -2.393954984630489E-018
  -12.0900000000000        -2.408684004221468E-018
  -11.9000000000000        -2.413230596149068E-018
  -11.7100000000000        -2.408744290716709E-018
  -11.5200000000000        -2.399143197833088E-018
  -11.3300000000000        -2.389884862094715E-018
  -11.1400000000000        -2.386286889471100E-018
  -10.9500000000000        -2.391892178225615E-018
  -10.7600000000000        -2.407361787708568E-018
  -10.5700000000000        -2.430225073453340E-018
  -10.3800000000000        -2.455565939385654E-018
  -10.1900000000000        -2.477449261539807E-018
  -10.0000000000000        -2.490673406425243E-018
  -9.81000000000000        -2.492337238230580E-018
  -9.62000000000000        -2.482761457693980E-018
  -9.42999999999999        -2.465489369569279E-018
  -9.23999999999999        -2.446357432375544E-018
  -9.05000000000000        -2.431894693751167E-018
  -8.86000000000000        -2.427505159897020E-018
  -8.67000000000000        -2.435951974539417E-018
  -8.48000000000000        -2.456577693593127E-018
  -8.28999999999999        -2.485484640969163E-018
  -8.09999999999999        -2.516623775174078E-018
  -7.91000000000000        -2.543479604403887E-018
  -7.72000000000000        -2.560868394472630E-018
  -7.53000000000000        -2.566336627646760E-018
  -7.34000000000000        -2.560764590702753E-018
  -7.15000000000001        -2.548010938455645E-018
  -6.95999999999999        -2.533710560813101E-018
  -6.77000000000000        -2.523580382419891E-018
  -6.58000000000000        -2.521726864747402E-018
  -6.39000000000000        -2.529445790671327E-018
  -6.20000000000000        -2.544860653373556E-018
  -6.01000000000001        -2.563501966910289E-018
  -5.81999999999999        -2.579656076299714E-018
  -5.63000000000000        -2.588087696707189E-018
  -5.44000000000000        -2.585630997815631E-018
  -5.25000000000000        -2.572182015288599E-018
  -5.06000000000000        -2.550799663947051E-018
  -4.87000000000000        -2.526882441633321E-018
  -4.67999999999999        -2.506656935965607E-018
  -4.48999999999999        -2.495414229738824E-018
  -4.30000000000000        -2.496003664733861E-018
  -4.11000000000000        -2.508019497142712E-018
  -3.92000000000000        -2.527916425377663E-018
  -3.73000000000000        -2.550022278725051E-018
  -3.53999999999999        -2.568157284688946E-018
  -3.34999999999999        -2.577394036057024E-018
  -3.16000000000000        -2.575451695386530E-018
  -2.97000000000000        -2.563324371851931E-018
  -2.78000000000000        -2.544966180908995E-018
  -2.59000000000000        -2.526129179904430E-018
  -2.40000000000001        -2.512695139602432E-018
  -2.20999999999999        -2.508986746256037E-018
  -2.02000000000000        -2.516546821328294E-018
  -1.83000000000000        -2.533735514084950E-018
  -1.64000000000000        -2.556256133442762E-018
  -1.45000000000000        -2.578449921519372E-018
  -1.26000000000001        -2.594976796488513E-018
  -1.06999999999999        -2.602387549629328E-018
 -0.879999999999995        -2.600125814322800E-018
 -0.689999999999998        -2.590666161713598E-018
 -0.500000000000000        -2.578749034350363E-018
 -0.310000000000002        -2.569939265736946E-018
 -0.120000000000005        -2.568934229575120E-018
  7.000000000000739E-002   -2.578121482870746E-018
  0.260000000000005        -2.596812713536539E-018
  0.450000000000003        -2.621382914894258E-018
  0.640000000000001        -2.646279251102050E-018
  0.829999999999998        -2.665609940353345E-018
   1.02000000000000        -2.674853023930962E-018
   1.21000000000001        -2.672187374732538E-018
   1.40000000000001        -2.659055100751220E-018
   1.59000000000000        -2.639785615829943E-018
   1.78000000000000        -2.620383731392265E-018
   1.97000000000000        -2.606828191223927E-018
   2.16000000000000        -2.603371385773593E-018
   2.34999999999999        -2.611332560538961E-018
   2.54000000000001        -2.628734749755783E-018
   2.73000000000000        -2.650891451322851E-018
   2.92000000000000        -2.671774058827957E-018
   3.11000000000000        -2.685765157459679E-018
   3.30000000000000        -2.689291132249684E-018
   3.48999999999999        -2.681862051568537E-018
   3.68000000000001        -2.666217405705759E-018
   3.87000000000000        -2.647534096722630E-018
   4.06000000000000        -2.631924203037965E-018
   4.25000000000000        -2.624656322828830E-018
   4.44000000000000        -2.628615598684793E-018
   4.63000000000000        -2.643449529407082E-018
   4.82000000000001        -2.665648610613334E-018
   5.01000000000001        -2.689540206313995E-018
   5.20000000000000        -2.708909685746685E-018
   5.39000000000000        -2.718781604655311E-018
   5.58000000000000        -2.716847788042303E-018
   5.77000000000000        -2.704131235195011E-018
   5.96000000000001        -2.684694899229855E-018
   6.15000000000001        -2.664479233388270E-018
   6.34000000000000        -2.649603177120116E-018
   6.53000000000000        -2.644617850766136E-018