  -105.000000000000         0.000000000000000E+000
  -104.810000000000        -2.873725410280235E-020
  -104.620000000000        -6.413864647733952E-020
  -104.430000000000        -8.293441686291255E-020
  -104.240000000000        -8.186542060181565E-020
  -104.050000000000        -7.954451284572945E-020
  -103.860000000000        -9.741184256820512E-020
  -103.670000000000        -1.381444607022312E-019
  -103.480000000000        -1.822439933954145E-019
  -103.290000000000        -2.061162566374946E-019
  -103.100000000000        -2.043798705671931E-019
  -102.910000000000        -1.950446401730865E-019
  -102.720000000000        -2.025332988307230E-019
  -102.530000000000        -2.346828095385263E-019
  -102.340000000000        -2.756059956385892E-019
  -102.150000000000        -3.011450987901033E-019
  -101.960000000000        -3.021100265436726E-019
  -101.770000000000        -2.931102962454110E-019
  -101.580000000000        -2.985633789014072E-019
  -101.390000000000        -3.292563643115102E-019
  -101.200000000000        -3.718772892683587E-019
  -101.010000000000        -4.015605239103917E-019
  -100.820000000000        -4.054895001768451E-019
  -100.630000000000        -3.950108508216259E-019
  -100.440000000000        -3.946827009965760E-019
  -100.250000000000        -4.187111643677901E-019
  -100.060000000000        -4.572724214394220E-019
  -99.8700000000000        -4.858000072764302E-019
  -99.6800000000000        -4.884209362409652E-019
  -99.4900000000000        -4.732026710037399E-019
  -99.3000000000000        -4.646363031789524E-019
  -99.1100000000000        -4.804770877172898E-019
  -98.9200000000000        -5.149937244963352E-019
  -98.7300000000000        -5.445574924891982E-019
  -98.5400000000000        -5.501849545677944E-019
  -98.3500000000000        -5.355165821704258E-019
  -98.1600000000000        -5.231366946405090E-019
  -97.9700000000000        -5.328385304061432E-019
  -97.7800000000000        -5.626583864922141E-019
  -97.5900000000000        -5.908354103638734E-019
  -97.4000000000000        -5.968326151446547E-019
  -97.2100000000000        -5.812902643329121E-019
  -97.0200000000000        -5.657612536077640E-019
  -96.8300000000000        -5.723887180434787E-019
  -96.6400000000000        -6.028509146688836E-019
  -96.4500000000000        -6.366039774400990E-019
  -96.2600000000000        -6.500674368969006E-019
  -96.0700000000000        -6.384796163450858E-019
  -95.8800000000000        -6.196642738156366E-019
  -95.6900000000000        -6.162521600490144E-019
  -95.5000000000000        -6.334985455581669E-019
  -95.3100000000000        -6.540493443302865E-019
  -95.1200000000000        -6.547700101239531E-019
  -94.9300000000000        -6.295833951121526E-019
  -94.7400000000000        -5.964270549060070E-019
  -94.5500000000000        -5.815164456982089E-019
  -94.3600000000000        -5.956946520215192E-019
  -94.1700000000000        -6.251936095687260E-019
  -93.9800000000000        -6.454491956427988E-019
  -93.7900000000000        -6.447081219152967E-019
  -93.6000000000000        -6.348949382576326E-019
  -93.4100000000000        -6.394365015702527E-019
  -93.2200000000000        -6.698036540367667E-019
  -93.0300000000000        -7.133245805063547E-019
  -92.8400000000000        -7.440397226755754E-019
  -92.6500000000000        -7.463492510808857E-019
  -92.4600000000000        -7.289863846784065E-019
  -92.2700000000000        -7.160631567842379E-019
  -92.0800000000000        -7.237851609385964E-019
  -91.8900000000000        -7.450901855358782E-019
  -91.7000000000000        -7.568772633349277E-019
  -91.5100000000000        -7.428707853276486E-019
  -91.3200000000000        -7.101840598176092E-019
  -91.1300000000000        -6.836547716246361E-019
  -90.9400000000000        -6.832578194243678E-019
  -90.7500000000000        -7.060466150106125E-019
  -90.5600000000000        -7.297438736200959E-019
  -90.3700000000000        -7.344638532658058E-019
  -90.1800000000000        -7.217783986965971E-019
  -89.9900000000000        -7.129070904112013E-019
  -89.8000000000000        -7.277958162908833E-019
  -89.6100000000000        -7.651720355835241E-019
  -89.4200000000000        -8.027832351830137E-019
  -89.2300000000000        -8.177587451317102E-019
  -89.0400000000000        -8.078036307649471E-019
  -88.8500000000000        -7.930899435856617E-019
  -88.6600000000000        -7.970344915604974E-019
  -88.4700000000000        -8.241944469254428E-019
  -88.2800000000000        -8.562177803000677E-019
  -88.0900000000000        -8.695754922491500E-019
  -87.9000000000000        -8.580595893518976E-019
  -87.7100000000000        -8.385510430393952E-019
  -87.5200000000000        -8.346264601256024E-019
  -87.3300000000000        -8.537950545383916E-019
  -87.1400000000000        -8.802346961035103E-019
  -86.9500000000000        -8.900530671611307E-019
  -86.7600000000000        -8.745401189428364E-019
  -86.5700000000000        -8.491718549653505E-019
  -86.3800000000000        -8.396409248004644E-019
  -86.1900000000000        -8.580785648991632E-019
  -86.0000000000000        -8.920076436004194E-019
  -85.8100000000000        -9.164326369011339E-019
  -85.6200000000000        -9.174149089655475E-019
  -85.4300000000000        -9.046070172950813E-019
  -85.2400000000000        -9.008965227194771E-019
  -85.0500000000000        -9.192712163218951E-019
  -84.8600000000000        -9.492654823783823E-019
  -84.6700000000000        -9.661987687440835E-019
  -84.4800000000000        -9.545891593284228E-019
  -84.2900000000000        -9.234483920313066E-019
  -84.1000000000000        -8.987577767887216E-019
  -83.9100000000000        -9.001045915472255E-019
  -83.7200000000000        -9.235269055430829E-019
  -83.5300000000000        -9.466761079098410E-019
  -83.3400000000000        -9.511566969274473E-019
  -83.1500000000000        -9.406144506688151E-019
  -82.9600000000000        -9.372882288125311E-019
  -82.7700000000000        -9.603277107759587E-019
  -82.5800000000000        -1.006605638343510E-018
  -82.3900000000000        -1.052411575334623E-018
  -82.2000000000000        -1.074511999973152E-018
  -82.0100000000000        -1.070595336088513E-018
  -81.8200000000000        -1.059748854427320E-018
  -81.6300000000000        -1.062722164700526E-018
  -81.4400000000000        -1.081034967531755E-018
  -81.2500000000000        -1.095063149545048E-018
  -81.0600000000000        -1.083080292224865E-018
  -80.8700000000000        -1.043144742801005E-018
  -80.6800000000000        -9.968620674363672E-019
  -80.4900000000000        -9.712071865993798E-019
  -80.3000000000000        -9.754393265302101E-019
  -80.1100000000000        -9.947676979301070E-019
  -79.9200000000000        -1.006404463959248E-018
  -79.7300000000000        -1.002324317099690E-018
  -79.5400000000000        -9.968129264630591E-019
  -79.3500000000000        -1.011624411846081E-018
  -79.1600000000000        -1.053148983409233E-018
  -78.9700000000000        -1.103789928972743E-018
  -78.7800000000000        -1.136276013195520E-018
  -78.5900000000000        -1.137700262315886E-018
  -78.4000000000000        -1.120640013148562E-018
  -78.2100000000000        -1.110853959131007E-018
  -78.0200000000000        -1.123209893682990E-018
  -77.8300000000000        -1.148540625595849E-018
  -77.6400000000000        -1.163593267148027E-018
  -77.4500000000000        -1.154247289576905E-018
  -77.2600000000000        -1.129669433537132E-018
  -77.0700000000000        -1.113888784650397E-018
  -76.8800000000000        -1.122956152840329E-018
  -76.6900000000000        -1.149684154118594E-018
  -76.5000000000000        -1.170704207740687E-018
  -76.3100000000000        -1.169159035393732E-018
  -76.1200000000000        -1.151296379152232E-018
  -75.9300000000000        -1.140968307345036E-018
  -75.7400000000000        -1.157092451858064E-018
  -75.5500000000000        -1.195413087936448E-018
  -75.3600000000000        -1.231892607131181E-018
  -75.1700000000000        -1.244550226153762E-018
  -74.9800000000000        -1.233052285588034E-018
  -74.7900000000000        -1.217563283074279E-018
  -74.6000000000000        -1.218221070425461E-018
  -74.4100000000000        -1.235117697327811E-018
  -74.2200000000000        -1.248109004578445E-018
  -74.0300000000000        -1.236691467097988E-018
  -73.8400000000000        -1.200862872229953E-018
  -73.6500000000000        -1.162809682219662E-018
  -73.4600000000000        -1.147494799790713E-018
  -73.2700000000000        -1.160397941880664E-018
  -73.0800000000000        -1.183510671446789E-018
  -72.8900000000000        -1.193394496248367E-018
  -72.7000000000000        -1.184115624906197E-018
  -72.5100000000000        -1.173223428505423E-018
  -72.3200000000000        -1.185080122886821E-018
  -72.1300000000000        -1.227361358510011E-018
  -71.9400000000000        -1.282965171033334E-018
  -71.7500000000000        -1.324877453206973E-018
  -71.5600000000000        -1.339786058472007E-018
  -71.3700000000000        -1.338095182761604E-018
  -71.1800000000000        -1.341162959459951E-018
  -70.9900000000000        -1.358454646769847E-018
  -70.8000000000000        -1.376940928429575E-018
  -70.6100000000000        -1.373249036735621E-018
  -70.4200000000000        -1.337130056062941E-018
  -70.2300000000000        -1.283748468539603E-018
  -70.0400000000000        -1.242701092878579E-018
  -69.8500000000000        -1.233646575119535E-018
  -69.6600000000000        -1.251098765010053E-018
  -69.4700000000000        -1.272260229625415E-018
  -69.2800000000000        -1.279976276051701E-018
  -69.0900000000000        -1.278726410561390E-018
  -68.9000000000000        -1.288541169340265E-018
  -68.7100000000000        -1.323114169765310E-018
  -68.5200000000000        -1.373639169483200E-018
  -68.3300000000000        -1.414418332790703E-018
  -68.1400000000000        -1.425339095823208E-018
  -67.9500000000000        -1.409963707720766E-018
  -67.7600000000000        -1.391897598041858E-018
  -67.5700000000000        -1.392656651304522E-018
  -67.3800000000000        -1.411877260110569E-018
  -67.1900000000000        -1.428535043666444E-018
  -67.0000000000000        -1.421869470836801E-018
  -66.8100000000000        -1.392008978742437E-018
  -66.6200000000000        -1.360690495292037E-018
  -66.4300000000000        -1.351501925614496E-018
  -66.2400000000000        -1.368529465132105E-018
  -66.0500000000000        -1.393662556669754E-018
  -65.8600000000000        -1.404881105256067E-018
  -65.6700000000000        -1.397772874143106E-018
  -65.4800000000000        -1.389493752148078E-018
  -65.2900000000000        -1.401307596099381E-018
  -65.1000000000000        -1.436517995861092E-018
  -64.9100000000000        -1.475194521044341E-018
  -64.7200000000000        -1.491169310292916E-018
  -64.5300000000000        -1.475531401172868E-018
  -64.3400000000000        -1.444529082925938E-018
  -64.1500000000000        -1.424438484511121E-018
  -63.9600000000000        -1.427693280873367E-018
  -63.7700000000000        -1.442757934889879E-018
  -63.5800000000000        -1.447050651826994E-018
  -63.3900000000000        -1.430216876675904E-018
  -63.2000000000000        -1.405238850592868E-018
  -63.0100000000000        -1.396627313077996E-018
  -62.8200000000000        -1.416999805840202E-018
  -62.6300000000000        -1.454584699207682E-018
  -62.4400000000000        -1.483845962437557E-018
  -62.2500000000000        -1.489338798646984E-018
  -62.0600000000000        -1.480137123195778E-018
  -61.8700000000000        -1.480977202938574E-018
  -61.6800000000000        -1.508355399065347E-018
  -61.4900000000000        -1.554159509324062E-018
  -61.3000000000000        -1.592291745112263E-018
  -61.1100000000000        -1.601957363234268E-018
  -60.9200000000000        -1.585629096228990E-018
  -60.7300000000000        -1.564991526147445E-018
  -60.5400000000000        -1.559229628281020E-018
  -60.3500000000000        -1.566730518459196E-018
  -60.1600000000000        -1.567754656743246E-018
  -59.9700000000000        -1.545340215735024E-018
  -59.7800000000000        -1.504080603696522E-018
  -59.5900000000000        -1.468359045870092E-018
  -59.4000000000000        -1.461284424595746E-018
  -59.2100000000000        -1.484113776046769E-018
  -59.0200000000000        -1.515634944309104E-018
  -58.8300000000000        -1.532126486648472E-018
  -58.6400000000000        -1.529063106781420E-018
  -58.4500000000000        -1.524160629704822E-018
  -58.2600000000000        -1.539137682515470E-018
  -58.0700000000000        -1.577801407998785E-018
  -57.8800000000000        -1.621464570716116E-018
  -57.6900000000000        -1.646024776621339E-018
  -57.5000000000000        -1.644254537403425E-018
  -57.3100000000000        -1.631877569496533E-018
  -57.1200000000000        -1.631589930440651E-018
  -56.9300000000000        -1.650389669972845E-018
  -56.7400000000000        -1.672109832204337E-018
  -56.5500000000000        -1.672606398584143E-018
  -56.3600000000000        -1.643349379106608E-018
  -56.1700000000000        -1.600938228682807E-018
  -55.9800000000000        -1.573283915172707E-018
  -55.7900000000000        -1.575324226834029E-018
  -55.6000000000000        -1.597029035982318E-018
  -55.4100000000000        -1.614673903047919E-018
  -55.2200000000000        -1.614226117549101E-018
  -55.0300000000000        -1.604340345019586E-018
  -54.8400000000000        -1.606651275124135E-018
  -54.6500000000000        -1.632966665448698E-018
  -54.4600000000000        -1.671634269160140E-018
  -54.2700000000000        -1.696628189661376E-018
  -54.0800000000000        -1.691081489323577E-018
  -53.8900000000000        -1.662978796503709E-018
  -53.7000000000000        -1.637985777967891E-018
  -53.5100000000000        -1.636036450559257E-018
  -53.3200000000000        -1.653695232635104E-018
  -53.1300000000000        -1.668820727816572E-018
  -52.9400000000000        -1.662906992848411E-018
  -52.7500000000000        -1.639728918860204E-018
  -52.5600000000000        -1.622470847346155E-018
  -52.3700000000000        -1.632026072517218E-018
  -52.1800000000000        -1.667119252337400E-018
  -51.9900000000000        -1.705188937369078E-018
  -51.8000000000000        -1.723202635952183E-018
  -51.6100000000000        -1.718625215839991E-018
  -51.4200000000000        -1.710673183442849E-018
  -51.2300000000000        -1.720805627248000E-018
  -51.0400000000000        -1.751196574243278E-018
  -50.8500000000000        -1.781859912200644E-018
  -50.6600000000000        -1.789294985879170E-018
  -50.4700000000000        -1.768940021023945E-018
  -50.2800000000000        -1.740029913691382E-018
  -50.0900000000000        -1.728197980241133E-018
  -49.9000000000000        -1.742305899294820E-018
  -49.7100000000000        -1.767332068781154E-018
  -49.5200000000000        -1.779700226056402E-018
  -49.3300000000000        -1.770055934396941E-018
  -49.1400000000000        -1.751606545060770E-018
  -48.9500000000000        -1.746223510392936E-018
  -48.7600000000000        -1.762008744871751E-018
  -48.5700000000000        -1.784296283446508E-018
  -48.3800000000000        -1.789128810016617E-018
  -48.1900000000000        -1.766530908759951E-018
  -48.0000000000000        -1.731277687737554E-018
  -47.8100000000000        -1.710589772835622E-018
  -47.6200000000000        -1.720078313329951E-018
  -47.4300000000000        -1.750451479037082E-018
  -47.2400000000000        -1.777324675704040E-018
  -47.0500000000000        -1.784590808198684E-018
  -46.8600000000000        -1.779005677290672E-018
  -46.6700000000000        -1.782149064861424E-018
  -46.4800000000000        -1.807659506778769E-018
  -46.2900000000000        -1.845841753918577E-018
  -46.1000000000000        -1.870799177614615E-018
  -45.9100000000000        -1.863745754579530E-018
  -45.7200000000000        -1.830592034104958E-018
  -45.5300000000000        -1.797117582365638E-018
  -45.3400000000000        -1.786143698306385E-018
  -45.1500000000000        -1.798099996471266E-018
  -44.9600000000000        -1.813070168030496E-018
  -44.7700000000000        -1.811909854674414E-018
  -44.5800000000000        -1.795898381719060E-018
  -44.3900000000000        -1.785948917577475E-018
  -44.2000000000000        -1.802121721512635E-018
  -44.0100000000000        -1.843143462279407E-018
  -43.8200000000000        -1.885711393524361E-018
  -43.6300000000000        -1.904524569345662E-018
  -43.4400000000000        -1.894233872504540E-018
  -43.2500000000000        -1.872686401787730E-018
  -43.0600000000000        -1.862695830353327E-018
  -42.8700000000000        -1.870023592927994E-018
  -42.6800000000000        -1.878721040608991E-018
  -42.4900000000000        -1.868170448372978E-018
  -42.3000000000000        -1.835232980924956E-018
  -42.1100000000000        -1.799911091989924E-018
  -41.9200000000000        -1.788616835120290E-018
  -41.7300000000000        -1.810544671807619E-018
  -41.5400000000000        -1.849398102904001E-018
  -41.3500000000000        -1.878343583153491E-018
  -41.1600000000000        -1.884159428193637E-018
  -40.9700000000000        -1.877926010579795E-018
  -40.7800000000000        -1.882482166522466E-018
  -40.5900000000000        -1.908973289409042E-018
  -40.4000000000000        -1.945085915471837E-018
  -40.2100000000000        -1.966281119680749E-018
  -40.0200000000000        -1.959310570319425E-018
  -39.8300000000000        -1.935497159536112E-018
  -39.6400000000000        -1.920918078205414E-018
  -39.4500000000000        -1.932583932941960E-018
  -39.2600000000000        -1.963055688606110E-018
  -39.0700000000000        -1.987916597727831E-018
  -38.8800000000000        -1.988775661317428E-018
  -38.6900000000000        -1.969828533965921E-018
  -38.5000000000000        -1.952411512563422E-018
  -38.3100000000000        -1.953205188600758E-018
  -38.1200000000000        -1.967400504280504E-018
  -37.9300000000000        -1.973269436816871E-018
  -37.7400000000000        -1.953886391322847E-018
  -37.5500000000000        -1.915081012818206E-018
  -37.3600000000000        -1.882112543525561E-018
  -37.1700000000000        -1.877846162248631E-018
  -36.9800000000000        -1.902928203011347E-018
  -36.7900000000000        -1.936582373432704E-018
  -36.6000000000000        -1.956985864458989E-018
  -36.4100000000000        -1.961565863754190E-018
  -36.2200000000000        -1.967757932963228E-018
  -36.0300000000000        -1.993584097831605E-018
  -35.8400000000000        -2.036905502757793E-018
  -35.6500000000000        -2.073744523117838E-018
  -35.4600000000000        -2.078051112160198E-018
  -35.2700000000000        -2.044785020351687E-018
  -35.0800000000000        -1.994756796315874E-018
  -34.8900000000000        -1.956657692813562E-018
  -34.7000000000000        -1.943022223592133E-018
  -34.5100000000000        -1.942338584371134E-018
  -34.3200000000000        -1.934044076342224E-018
  -34.1300000000000        -1.911431790047466E-018
  -33.9400000000000        -1.890138387500048E-018
  -33.7500000000000        -1.893854220249064E-018
  -33.5600000000000        -1.930874673068626E-018
  -33.3700000000000        -1.984080517358484E-018
  -33.1800000000000        -2.024281728305556E-018
  -32.9900000000000        -2.034677595175404E-018
  -32.8000000000000        -2.023670964304331E-018
  -32.6100000000000        -2.014408942352496E-018
  -32.4200000000000        -2.021514181735425E-018
  -32.2300000000000        -2.037440817199140E-018
  -32.0400000000000        -2.041364740743021E-018
  -31.8500000000000        -2.021671405737683E-018
  -31.6600000000000        -1.989922604736600E-018
  -31.4700000000000        -1.972351926155137E-018
  -31.2800000000000        -1.986598989213626E-018
  -31.0900000000000        -2.025705737927047E-018
  -30.9000000000000        -2.064624087053086E-018
  -30.7100000000000        -2.083117362416393E-018
  -30.5200000000000        -2.083381909865091E-018
  -30.3300000000000        -2.085797903724396E-018
  -30.1400000000000        -2.107119263083219E-018
  -29.9500000000000        -2.142226944940841E-018
  -29.7600000000000        -2.167220244632938E-018
  -29.5700000000000        -2.161241287519679E-018
  -29.3800000000000        -2.126446661566096E-018
  -29.1900000000000        -2.087114405610704E-018
  -29.0000000000000        -2.068513279208653E-018
  -28.8100000000000        -2.075219776248158E-018
  -28.6200000000000        -2.089004906350055E-018
  -28.4300000000000        -2.087845591661884E-018
  -28.2400000000000        -2.067664447394105E-018
  -28.0500000000000        -2.046023312808106E-018
  -27.8600000000000        -2.044441632966994E-018
  -27.6700000000000        -2.066581409785276E-018
  -27.4800000000000        -2.093524205918259E-018
  -27.2900000000000        -2.100963036470458E-018
  -27.1000000000000        -2.082078888146997E-018
  -26.9100000000000        -2.054314851038889E-018
  -26.7200000000000        -2.043514841050838E-018
  -26.5300000000000        -2.060411441248615E-018
  -26.3400000000000        -2.091677184990571E-018
  -26.1500000000000        -2.113757226700891E-018
  -25.9600000000000        -2.115879181672534E-018
  -25.7700000000000        -2.109942891963485E-018
  -25.5800000000000        -2.117767102981267E-018
  -25.3900000000000        -2.148096892200544E-018
  -25.2000000000000        -2.185785587408339E-018
  -25.0100000000000        -2.204053220301903E-018
  -24.8200000000000        -2.188657528821101E-018
  -24.6300000000000        -2.151236583345674E-018
  -24.4400000000000        -2.119106619594764E-018
  -24.2500000000000        -2.110990544880744E-018
  -24.0600000000000        -2.121420600912917E-018
  -23.8700000000000        -2.128254780750615E-018
  -23.6800000000000        -2.115783574197078E-018
  -23.4900000000000        -2.091180859673529E-018
  -23.3000000000000        -2.078504575635150E-018
  -23.1100000000000        -2.095877592618060E-018
  -22.9200000000000        -2.137530510034125E-018
  -22.7300000000000        -2.177848742998278E-018
  -22.5400000000000        -2.193736433939425E-018
  -22.3500000000000        -2.184282942458541E-018
  -22.1600000000000        -2.169395758219436E-018
  -21.9700000000000        -2.169162563364757E-018
  -21.7800000000000        -2.183989189897191E-018
  -21.5900000000000        -2.194589009224507E-018
  -21.4000000000000        -2.181700328575503E-018
  -21.2100000000000        -2.146396388475462E-018
  -21.0200000000000        -2.111207987500807E-018
  -20.8300000000000        -2.100631577494918E-018
  -20.6400000000000        -2.119395207731166E-018
  -20.4500000000000        -2.149090601327473E-018
  -20.2600000000000        -2.166247970441060E-018
  -20.0700000000000        -2.164450386632809E-018
  -19.8800000000000        -2.159328423614821E-018
  -19.6900000000000        -2.171817587471062E-018
  -19.5000000000000        -2.206005400727333E-018
  -19.3100000000000        -2.243179801080383E-018
  -19.1200000000000        -2.258234425792735E-018
  -18.9300000000000        -2.243103754505367E-018
  -18.7400000000000        -2.214921741541057E-018
  -18.5500000000000        -2.200895449112141E-018
  -18.3600000000000        -2.213914341684918E-018
  -18.1700000000000        -2.241690049709395E-018
  -17.9800000000000        -2.259391585314878E-018
  -17.7900000000000        -2.253539182441360E-018
  -17.6000000000000        -2.234416074878751E-018
  -17.4100000000000        -2.225340542293943E-018
  -17.2200000000000        -2.239238385076873E-018
  -17.0300000000000        -2.265081330185865E-018
  -16.8400000000000        -2.277370352841033E-018
  -16.6500000000000        -2.259858326461604E-018
  -16.4600000000000        -2.221087316019298E-018
  -16.2700000000000        -2.187061374904048E-018
  -16.0800000000000        -2.178062169110208E-018
  -15.8900000000000        -2.191539664830357E-018
  -15.7000000000000        -2.207004698391639E-018
  -15.5100000000000        -2.207728672061583E-018
  -15.3200000000000        -2.198011098397168E-018
  -15.1300000000000        -2.199152149331425E-018
  -14.9400000000000        -2.227893352386880E-018
  -14.7500000000000        -2.278164573123964E-018
  -14.5600000000000        -2.324027314040171E-018
  -14.3700000000000        -2.341498403949425E-018
  -14.1800000000000        -2.328854324330956E-018
  -13.9900000000000        -2.306387954462081E-018
  -13.8000000000000        -2.296102005755344E-018
  -13.6100000000000        -2.300853170259451E-018
  -13.4200000000000        -2.302861457190268E-018
  -13.2300000000000        -2.282870421450286E-018
  -13.0400000000000        -2.241359157048144E-018
  -12.8500000000000        -2.201104456453541E-018
  -12.6600000000000        -2.188135725927355E-018
  -12.4700000000000        -2.208779395258980E-018
  -12.2800000000000        -2.244347735841408E-018
  -12.0900000000000        -2.268436295985114E-018
  -11.9000000000000        -2.270527967605436E-018
  -11.7100000000000        -2.263799688034984E-018
  -11.5200000000000        -2.270145115648838E-018
  -11.3300000000000        -2.297097878335765E-018
  -11.1400000000000        -2.328962958936362E-018
  -10.9500000000000        -2.340786107868208E-018
  -10.7600000000000        -2.321891046067295E-018
  -10.5700000000000        -2.286522414669357E-018
  -10.3800000000000        -2.261391526460523E-018
  -10.1900000000000        -2.261880755109070E-018
  -10.0000000000000        -2.279377568266097E-018
  -9.81000000000000        -2.291498096107543E-018
  -9.62000000000000        -2.285056684345998E-018
  -9.42999999999999        -2.269480279051392E-018
  -9.23999999999999        -2.267635782410927E-018
  -9.05000000000000        -2.292880149088658E-018
  -8.86000000000000        -2.334560017263336E-018
  -8.67000000000000        -2.366239446319429E-018
  -8.48000000000000        -2.369213528421626E-018
  -8.28999999999999        -2.349168786101227E-018
  -8.09999999999999        -2.330238793746428E-018
  -7.91000000000000        -2.332117473195028E-018
  -7.72000000000000        -2.351948007256622E-018
  -7.53000000000000        -2.368080041691781E-018
  -7.34000000000000        -2.361866845008965E-018
  -7.15000000000001        -2.336445968417792E-018
  -6.95999999999999        -2.314387808574415E-018
  -6.77000000000000        -2.316362844810851E-018
  -6.58000000000000        -2.341183278458379E-018
  -6.39000000000000        -2.366373892995869E-018
  -6.20000000000000        -2.368982004148867E-018
  -6.01000000000001        -2.347109781193235E-018
  -5.81999999999999        -2.321892062595896E-018
  -5.63000000000000        -2.318099723413057E-018
  -5.44000000000000        -2.341705931618159E-018
  -5.25000000000000        -2.375447480437606E-018
  -5.06000000000000        -2.396143673251346E-018
  -4.87000000000000        -2.396848051152417E-018
  -4.67999999999999        -2.392523391589939E-018
  -4.48999999999999        -2.403924636545628E-018
  -4.30000000000000        -2.435402400468668E-018
  -4.11000000000000        -2.468295911873354E-018
  -3.92000000000000        -2.476725986005339E-018
  -3.73000000000000        -2.451078317369802E-018
  -3.53999999999999        -2.406917738306012E-018
  -3.34999999999999        -2.370826584128678E-018
  -3.16000000000000        -2.356595221344975E-018
  -2.97000000000000        -2.354305963737455E-018
  -2.78000000000000        -2.342440379779909E-018
  -2.59000000000000        -2.311096775777169E-018
  -2.40000000000001        -2.273783410188815E-018
  -2.20999999999999        -2.256196185666840E-018
  -2.02000000000000        -2.272473992029287E-018
  -1.83000000000000        -2.311544535741315E-018
  -1.64000000000000        -2.346681080337434E-018
  -1.45000000000000        -2.359321352219227E-018
  -1.26000000000001        -2.354658191893595E-018
  -1.06999999999999        -2.354416820911035E-018
 -0.879999999999995        -2.373992855353430E-018
 -0.689999999999998        -2.405995801177913E-018
 -0.500000000000000        -2.426107154844146E-018
 -0.310000000000002        -2.415865951168454E-018
 -0.120000000000005        -2.380779457303266E-018
  7.000000000000739E-002   -2.346473263400418E-018
  0.260000000000005        -2.336367708438515E-018
  0.450000000000003        -2.351809689091853E-018
  0.640000000000001        -2.373103270456339E-018
  0.829999999999998        -2.379927594898495E-018
   1.02000000000000        -2.371285062411859E-018
   1.21000000000001        -2.365825063138843E-018
   1.40000000000001        -2.382389090857532E-018
   1.59000000000000        -2.419752623863149E-018
   1.78000000000000        -2.455471439794810E-018
   1.97000000000000        -2.465485997601889E-018
   2.16000000000000        -2.446124976473608E-018
   2.34999999999999        -2.417603452713762E-018
   2.54000000000001        -2.405555372072544E-018
   2.73000000000000        -2.417933693968273E-018
   2.92000000000000        -2.438926620345846E-018
   3.11000000000000        -2.445298316333056E-018
   3.30000000000000        -2.429259400695203E-018
   3.48999999999999        -2.405897775595303E-018
   3.68000000000001        -2.398137827185811E-018
   3.87000000000000        -2.413852123801442E-018
   4.06000000000000        -2.437355192353196E-018
   4.25000000000000        -2.443746994216851E-018
   4.44000000000000        -2.422635616768370E-018
   4.63000000000000        -2.388658564580904E-018
   4.82000000000001        -2.368634719646285E-018
   5.01000000000001        -2.377294941553592E-018
   5.20000000000000        -2.404351377872750E-018
   5.39000000000000        -2.424910754795623E-018
   5.58000000000000        -2.423128733883487E-018
   5.77000000000000        -2.406571644158815E-018
   5.96000000000001        -2.397816930058691E-018
   6.15000000000001        -2.411662137707331E-018
   6.34000000000000        -2.440021304819644E-018
   6.53000000000000        -2.459120835802515E-018