  -105.000000000000        -7.562435290211145E-020
  -104.810000000000        -1.687859117824724E-019
  -104.620000000000        -1.426241125266059E-019
  -104.430000000000        -4.664940559072671E-020
  -104.240000000000         8.920800045218723E-021
  -104.050000000000        -4.091163675365652E-020
  -103.860000000000        -1.542103890960573E-019
  -103.670000000000        -2.232425021768668E-019
  -103.480000000000        -1.788731471980615E-019
  -103.290000000000        -5.825230834678571E-020
  -103.100000000000         2.913583280107414E-020
  -102.910000000000         4.859399306500077E-021
  -102.720000000000        -1.043109720143155E-019
  -102.530000000000        -1.922965705470162E-019
  -102.340000000000        -1.749007611883604E-019
  -102.150000000000        -6.974744975021947E-020
  -101.960000000000         2.114421722287441E-020
  -101.770000000000         9.333283269119345E-021
  -101.580000000000        -9.512123175289270E-020
  -101.390000000000        -1.929313430709248E-019
  -101.200000000000        -1.902741042075829E-019
  -101.010000000000        -8.845318660128012E-020
  -100.820000000000         1.723598181254155E-020
  -100.630000000000         2.843894521123438E-020
  -100.440000000000        -6.236924617411637E-020
  -100.250000000000        -1.647097906390682E-019
  -100.060000000000        -1.765495866016846E-019
  -99.8700000000000        -8.196977579353508E-020
  -99.6800000000000         3.315088492813207E-020
  -99.4900000000000         6.259113963687570E-020
  -99.3000000000000        -1.914320187776247E-020
  -99.1100000000000        -1.325195297825862E-019
  -98.9200000000000        -1.686326441366013E-019
  -98.7300000000000        -9.260850018805059E-020
  -98.5400000000000         2.379186925992739E-020
  -98.3500000000000         7.117963138759288E-020
  -98.1600000000000         7.047504642849054E-021
  -97.9700000000000        -1.040044522413290E-019
  -97.7800000000000        -1.526233683098162E-019
  -97.5900000000000        -8.993218066431728E-020
  -97.4000000000000         2.511880534463510E-020
  -97.2100000000000         8.176674088655445E-020
  -97.0200000000000         2.342512181429835E-020
  -96.8300000000000        -9.760437121347256E-020
  -96.6400000000000        -1.689875247279481E-019
  -96.4500000000000        -1.242540058632026E-019
  -96.2600000000000        -4.935891855228351E-021
  -96.0700000000000         8.000832389806313E-020
  -95.8800000000000         5.849330604229299E-020
  -95.6900000000000        -3.640597826981646E-020
  -95.5000000000000        -9.946627442440049E-020
  -95.3100000000000        -5.597753833101649E-020
  -95.1200000000000         6.438407688982603E-020
  -94.9300000000000         1.535340926788052E-019
  -94.7400000000000         1.264919721419570E-019
  -94.5500000000000         1.927376011810128E-021
  -94.3600000000000        -1.149399049224134E-019
  -94.1700000000000        -1.309330095296832E-019
  -93.9800000000000        -5.135397985939671E-020
  -93.7900000000000         2.777436153991127E-020
  -93.6000000000000         1.387268511853696E-020
  -93.4100000000000        -9.186504152403715E-020
  -93.2200000000000        -1.944423129897420E-019
  -93.0300000000000        -1.953580753652864E-019
  -92.8400000000000        -8.690702782771375E-020
  -92.6500000000000         3.961404736097066E-020
  -92.4600000000000         7.970024814907335E-020
  -92.2700000000000         1.368743089423754E-020
  -92.0800000000000        -7.638691776747422E-020
  -91.8900000000000        -8.708447999034597E-020
  -91.7000000000000         5.840526863761692E-021
  -91.5100000000000         1.228768513613643E-019
  -91.3200000000000         1.558316150079282E-019
  -91.1300000000000         7.085852735063619E-020
  -90.9400000000000        -5.892590364730603E-020
  -90.7500000000000        -1.223317215677051E-019
  -90.5600000000000        -7.478220593471875E-020
  -90.3700000000000         2.096177611447050E-020
  -90.1800000000000         5.672832330159083E-020
  -89.9900000000000        -1.583530945864794E-020
  -89.8000000000000        -1.375393294008494E-019
  -89.6100000000000        -1.973353128740277E-019
  -89.4200000000000        -1.383860777583847E-019
  -89.2300000000000        -1.321156732087745E-020
  -89.0400000000000         6.491789880539034E-020
  -88.8500000000000         2.833984001171019E-020
  -88.6600000000000        -8.185395615731858E-020
  -88.4700000000000        -1.557454966830800E-019
  -88.2800000000000        -1.194238034834400E-019
  -88.0900000000000        -4.846865925868039E-021
  -87.9000000000000         8.164328739409175E-020
  -87.7100000000000         6.166612954288177E-020
  -87.5200000000000        -4.011581973420091E-020
  -87.3300000000000        -1.200216736260735E-019
  -87.1400000000000        -9.541582269141887E-020
  -86.9500000000000         1.498572937019461E-020
  -86.7600000000000         1.075821373573164E-019
  -86.5700000000000         9.183998458518954E-020
  -86.3800000000000        -2.343871035213886E-020
  -86.1900000000000        -1.378071547367239E-019
  -86.0000000000000        -1.535633473736066E-019
  -85.8100000000000        -6.686122464507322E-020
  -85.6200000000000         3.112005159487580E-020
  -85.4300000000000         4.346943748965884E-020
  -85.2400000000000        -3.858999743898372E-020
  -85.0500000000000        -1.272867359444875E-019
  -84.8600000000000        -1.234935590057592E-019
  -84.6700000000000        -1.400967618431752E-020
  -84.4800000000000         1.125009913494123E-019
  -84.2900000000000         1.469246908939507E-019
  -84.1000000000000         6.143105390547690E-020
  -83.9100000000000        -6.518191777463549E-020
  -83.7200000000000        -1.225566220068834E-019
  -83.5300000000000        -7.270997732727448E-020
  -83.3400000000000         1.595172958164760E-020
  -83.1500000000000         3.649596872346445E-020
  -82.9600000000000        -5.187700028195695E-020
  -82.7700000000000        -1.824142356078388E-019
  -82.5800000000000        -2.423259593649068E-019
  -82.3900000000000        -1.787009516569534E-019
  -82.2000000000000        -4.785200198392093E-020
  -82.0100000000000         3.885038301534644E-020
  -81.8200000000000         2.071887207365113E-020
  -81.6300000000000        -5.601608711693217E-020
  -81.4400000000000        -8.510785485400648E-020
  -81.2500000000000        -5.382433402921530E-021
  -81.0600000000000         1.366273861685355E-019
  -80.8700000000000         2.268900652328882E-019
  -80.6800000000000         1.893093584253288E-019
  -80.4900000000000         5.637563396357087E-020
  -80.3000000000000        -6.200134560717712E-020
  -80.1100000000000        -8.148720376062572E-020
  -79.9200000000000        -1.988583991995520E-020
  -79.7300000000000         2.524088814786603E-020
  -79.5400000000000        -2.447393354313316E-020
  -79.3500000000000        -1.482527814372993E-019
  -79.1600000000000        -2.425408345438466E-019
  -78.9700000000000        -2.187553415428603E-019
  -78.7800000000000        -8.923771932406095E-020
  -78.5900000000000         4.114736854462487E-020
  -78.4000000000000         7.064816627599812E-020
  -78.2100000000000        -6.762843511651208E-021
  -78.0200000000000        -9.917543806537368E-020
  -77.8300000000000        -1.062720354343083E-019
  -77.6400000000000        -1.501753679225421E-020
  -77.4500000000000         8.927324634446069E-020
  -77.2600000000000         1.062065919118652E-019
  -77.0700000000000         1.766652814948200E-020
  -76.8800000000000        -9.419834070578320E-020
  -76.6900000000000        -1.256527760535733E-019
  -76.5000000000000        -5.124968756615196E-020
  -76.3100000000000         5.107323312751391E-020
  -76.1200000000000         7.418612644393535E-020
  -75.9300000000000        -1.525282291008616E-020
  -75.7400000000000        -1.432757383984511E-019
  -75.5500000000000        -1.968425138766231E-019
  -75.3600000000000        -1.293082584666155E-019
  -75.1700000000000        -3.051785412769870E-021
  -74.9800000000000         7.101827126179811E-020
  -74.7900000000000         3.902951358571806E-020
  -74.6000000000000        -4.619582698297851E-020
  -74.4100000000000        -7.865245829732674E-020
  -74.2200000000000        -4.141499395203317E-021
  -74.0300000000000         1.243319272328749E-019
  -73.8400000000000         1.944257496798058E-019
  -73.6500000000000         1.404422958927348E-019
  -73.4600000000000         6.346685102624665E-021
  -73.2700000000000        -9.477860962125073E-020
  -73.0800000000000        -8.683303780974274E-020
  -72.8900000000000        -1.591982787916510E-021
  -72.7000000000000         5.308175721827268E-020
  -72.5100000000000        -2.538152580588386E-021
  -72.3200000000000        -1.424682368541803E-019
  -72.1300000000000        -2.575922319645078E-019
  -71.9400000000000        -2.566213018341102E-019
  -71.7500000000000        -1.495286511544046E-019
  -71.5600000000000        -3.478349882797533E-020
  -71.3700000000000        -3.623423652483126E-021
  -71.1800000000000        -5.357753686379812E-020
  -70.9900000000000        -9.415254992006504E-020
  -70.8000000000000        -3.893260517308902E-020
  -70.6100000000000         1.047654535964064E-019
  -70.4200000000000         2.355278110421527E-019
  -70.2300000000000         2.484972715377953E-019
  -70.0400000000000         1.318470879475461E-019
  -69.8500000000000        -2.209913718809129E-020
  -69.6600000000000        -1.016148802786316E-019
  -69.4700000000000        -7.599345010959881E-020
  -69.2800000000000        -1.701626562098623E-020
  -69.0900000000000        -2.253919286464209E-020
  -68.9000000000000        -1.168098926418960E-019
  -68.7100000000000        -2.239421056393026E-019
  -68.5200000000000        -2.402741132247171E-019
  -68.3300000000000        -1.360524377368631E-019
  -68.1400000000000         1.172269755246553E-020
  -67.9500000000000         8.800394152986649E-020
  -67.7600000000000         4.554488530590324E-020
  -67.5700000000000        -5.257805807555291E-020
  -67.3800000000000        -9.441682200505542E-020
  -67.1900000000000        -2.629529138482194E-020
  -67.0000000000000         9.612122348422702E-020
  -66.8100000000000         1.609973040651682E-019
  -66.6200000000000         1.065975082314256E-019
  -66.4300000000000        -2.062886800017784E-020
  -66.2400000000000        -1.109490290927840E-019
  -66.0500000000000        -9.566221085253273E-020
  -65.8600000000000        -1.081662492987254E-020
  -65.6700000000000         4.049303449470962E-020
  -65.4800000000000        -9.301899884934690E-021
  -65.2900000000000        -1.237480097710887E-019
  -65.1000000000000        -1.944392761709464E-019
  -64.9100000000000        -1.438192485047997E-019
  -64.7200000000000        -8.865266540195594E-022
  -64.5300000000000         1.227374404394164E-019
  -64.3400000000000         1.344550438467043E-019
  -64.1500000000000         4.430474224360663E-020
  -63.9600000000000        -4.820907994410151E-020
  -63.7700000000000        -5.094044987796376E-020
  -63.5800000000000         3.300278477362043E-020
  -63.3900000000000         1.100310558792766E-019
  -63.2000000000000         8.839358841554513E-020
  -63.0100000000000        -3.094988222982485E-020
  -62.8200000000000        -1.525194371833825E-019
  -62.6300000000000        -1.759109384140938E-019
  -62.4400000000000        -9.145815641921577E-020
  -62.2500000000000         9.760103267839107E-021
  -62.0600000000000         2.200419923265848E-020
  -61.8700000000000        -7.425862070938957E-020
  -61.6800000000000        -1.925850168039165E-019
  -61.4900000000000        -2.208851211760954E-019
  -61.3000000000000        -1.257838260794913E-019
  -61.1100000000000         1.753328653492655E-020
  -60.9200000000000         9.727851864953437E-020
  -60.7300000000000         6.947228407360683E-020
  -60.5400000000000        -4.576295557239766E-021
  -60.3500000000000        -2.243428542691107E-020
  -60.1600000000000         5.629027032677109E-020
  -59.9700000000000         1.675632974913804E-019
  -59.7800000000000         2.025820259603474E-019
  -59.5900000000000         1.126215239494083E-019
  -59.4000000000000        -4.145981625441291E-020
  -59.2100000000000        -1.430276834562032E-019
  -59.0200000000000        -1.263492384255351E-019
  -58.8300000000000        -3.533726966398954E-020
  -58.6400000000000         2.096278143065721E-020
  -58.4500000000000        -2.651204140539454E-020
  -58.2600000000000        -1.411599428788492E-019
  -58.0700000000000        -2.166497057911735E-019
  -57.8800000000000        -1.795351805856679E-019
  -57.6900000000000        -5.997359654555038E-020
  -57.5000000000000         3.722949243370080E-020
  -57.3100000000000         3.332791305993099E-020
  -57.1200000000000        -4.871605388503320E-020
  -56.9300000000000        -1.066313204307515E-019
  -56.7400000000000        -5.846507529288981E-020
  -56.5500000000000         7.568540288875889E-020
  -56.3600000000000         1.886004471087798E-019
  -56.1700000000000         1.843827998260555E-019
  -55.9800000000000         6.740526802309906E-020
  -55.7900000000000        -6.248716002529118E-020
  -55.6000000000000        -1.035517795102357E-019
  -55.4100000000000        -4.525547780732292E-020
  -55.2200000000000         2.719357375877066E-020
  -55.0300000000000         1.993379585517327E-020
  -54.8400000000000        -7.533242218187382E-020
  -54.6500000000000        -1.710078790421202E-019
  -54.4600000000000        -1.675303268754701E-019
  -54.2700000000000        -5.117689516693912E-020
  -54.0800000000000         8.855103462544073E-020
  -53.8900000000000         1.397255561991717E-019
  -53.7000000000000         7.090091038013502E-020
  -53.5100000000000        -4.134067017687598E-020
  -53.3200000000000        -8.627441383503888E-020
  -53.1300000000000        -2.424147424554261E-020
  -52.9400000000000         7.655739199044319E-020
  -52.7500000000000         1.064109092164620E-019
  -52.5600000000000         2.027064827101607E-020
  -52.3700000000000        -1.174958026085400E-019
  -52.1800000000000        -1.925338548733150E-019
  -51.9900000000000        -1.475878516178497E-019
  -51.8000000000000        -3.535862755503445E-020
  -51.6100000000000         3.297224344561648E-020
  -51.4200000000000        -5.737924757919162E-021
  -51.2300000000000        -1.066405021063903E-019
  -51.0400000000000        -1.606691709280117E-019
  -50.8500000000000        -1.002589779891905E-019
  -50.6600000000000         3.399971362289121E-020
  -50.4700000000000         1.296449268099679E-019
  -50.2800000000000         1.072158967968750E-019
  -50.0900000000000        -5.989435798522335E-021
  -49.9000000000000        -1.029844435263702E-019
  -49.7100000000000        -9.840612305679480E-020
  -49.5200000000000        -7.168067409968453E-021
  -49.3300000000000         7.393073946219005E-020
  -49.1400000000000         6.271690527369788E-020
  -48.9500000000000        -2.737421002889788E-020
  -48.7600000000000        -1.001915080357146E-019
  -48.5700000000000        -7.136859248649033E-020
  -48.3800000000000         4.675098601725371E-020
  -48.1900000000000         1.522397954712181E-019
  -48.0000000000000         1.472135155903396E-019
  -47.8100000000000         2.947203791474647E-020
  -47.6200000000000        -1.048992268459479E-019
  -47.4300000000000        -1.506483220370780E-019
  -47.2400000000000        -8.984033989895025E-020
  -47.0500000000000        -4.423688385872758E-021
  -46.8600000000000         6.425640361208513E-021
  -46.6700000000000        -7.540481444235934E-020
  -46.4800000000000        -1.676123396240873E-019
  -46.2900000000000        -1.661570285153834E-019
  -46.1000000000000        -4.711579121303280E-020
  -45.9100000000000         1.058082723938304E-019
  -45.7200000000000         1.753372952997179E-019
  -45.5300000000000         1.169693047330901E-019
  -45.3400000000000        -2.585300277970327E-021
  -45.1500000000000        -7.085913085292438E-020
  -44.9600000000000        -3.634173211354964E-020
  -44.7700000000000         4.518891134588340E-020
  -44.5800000000000         6.831825551826225E-020
  -44.3900000000000        -1.637720998309228E-020
  -44.2000000000000        -1.505119597419278E-019
  -44.0100000000000        -2.199728210834902E-019
  -43.8200000000000        -1.615292291217235E-019
  -43.6300000000000        -2.242757626362846E-020
  -43.4400000000000         8.378465146824461E-020
  -43.2500000000000         8.299484776635051E-020
  -43.0600000000000         7.007391736147729E-021
  -42.8700000000000        -4.217160593595888E-020
  -42.6800000000000         4.876696197408271E-021
  -42.4900000000000         1.144422623264075E-019
  -42.3000000000000         1.796298852185638E-019
  -42.1100000000000         1.226740679070171E-019
  -41.9200000000000        -2.798310478340810E-020
  -41.7300000000000        -1.599507046939753E-019
  -41.5400000000000        -1.784181877522942E-019
  -41.3500000000000        -9.147717181483249E-020
  -41.1600000000000         1.098875193938127E-021
  -40.9700000000000         4.413846503083953E-021
  -40.7800000000000        -8.170336534012273E-020
  -40.5900000000000        -1.647467077615050E-019
  -40.4000000000000        -1.508100796623896E-019
  -40.2100000000000        -3.743330223049458E-020
  -40.0200000000000         8.101042143325672E-020
  -39.8300000000000         1.010328739842419E-019
  -39.6400000000000         7.666385774083631E-021
  -39.4500000000000        -1.108884484228844E-019
  -39.2600000000000        -1.456122757522926E-019
  -39.0700000000000        -6.768413871399602E-020
  -38.8800000000000         4.760016779450181E-020
  -38.6900000000000         9.569512830001579E-020
  -38.5000000000000         4.374564569779621E-020
  -38.3100000000000        -3.944471504495372E-020
  -38.1200000000000        -5.280065320029433E-020
  -37.9300000000000         3.556345515172920E-020
  -37.7400000000000         1.531274315754318E-019
  -37.5500000000000         1.888785468349654E-019
  -37.3600000000000         9.798644886730277E-020
  -37.1700000000000        -5.477805127838697E-020
  -36.9800000000000        -1.545689768001934E-019
  -36.7900000000000        -1.422570038095841E-019
  -36.6000000000000        -6.574602716180423E-020
  -36.4100000000000        -2.834754869536358E-020
  -36.2200000000000        -8.425851073003901E-020
  -36.0300000000000        -1.819672889330665E-019
  -35.8400000000000        -2.109484875953520E-019
  -35.6500000000000        -1.082779194800154E-019
  -35.4600000000000         7.620921780566074E-020
  -35.2700000000000         2.191955680113782E-019
  -35.0800000000000         2.319140198371717E-019
  -34.8900000000000         1.361436124308988E-019
  -34.7000000000000         3.768186432217722E-020
  -34.5100000000000         2.362670328923335E-020
  -34.3200000000000         8.133366927281142E-020
  -34.1300000000000         1.155412864267781E-019
  -33.9400000000000         4.625676262737229E-020
  -33.7500000000000        -1.072007514962558E-019
  -33.5600000000000        -2.374376239721564E-019
  -33.3700000000000        -2.458080400971856E-019
  -33.1800000000000        -1.331502047813697E-019
  -32.9900000000000         1.607273687434292E-021
  -32.8000000000000         5.333856006028513E-020
  -32.6100000000000         5.675743602385381E-021
  -32.4200000000000        -6.061019696485242E-020
  -32.2300000000000        -5.223831317788467E-020
  -32.0400000000000         4.149845121436081E-020
  -31.8500000000000         1.353740421221617E-019
  -31.6600000000000         1.297881041645959E-019
  -31.4700000000000         8.746356639403442E-021
  -31.2800000000000        -1.404047678208157E-019
  -31.0900000000000        -2.053292048406831E-019
  -30.9000000000000        -1.510832223403856E-019
  -30.7100000000000        -4.936269161054181E-020
  -30.5200000000000        -7.054056073691838E-021
  -30.3300000000000        -6.246671899507184E-020
  -30.1400000000000        -1.484974768853819E-019
  -29.9500000000000        -1.581604777624190E-019
  -29.7600000000000        -5.003774362852292E-020
  -29.5700000000000         1.072989028074779E-019
  -29.3800000000000         1.950707418657250E-019
  -29.1900000000000         1.524562693616931E-019
  -29.0000000000000         3.130165621722655E-020
  -28.8100000000000        -5.392533458263764E-020
  -28.6200000000000        -3.322583003612270E-020
  -28.4300000000000         5.615910251565848E-020
  -28.2400000000000         1.100586285625739E-019
  -28.0500000000000         6.111266954503042E-020
  -27.8600000000000        -5.410025520307657E-020
  -27.6700000000000        -1.291646656612236E-019
  -27.4800000000000        -9.047796496100643E-020
  -27.2900000000000         3.011925729279436E-020
  -27.1000000000000         1.227583827146561E-019
  -26.9100000000000         1.014843344635753E-019
  -26.7200000000000        -1.604365844664704E-020
  -26.5300000000000        -1.267430103677169E-019
  -26.3400000000000        -1.403836459270421E-019
  -26.1500000000000        -6.368946495253452E-020
  -25.9600000000000         1.003772299317312E-020
  -25.7700000000000        -4.968213970351295E-021
  -25.5800000000000        -1.004052637817344E-019
  -25.3900000000000        -1.789960116501868E-019
  -25.2000000000000        -1.472534950035763E-019
  -25.0100000000000        -7.557740559901019E-021
  -24.8200000000000         1.389911498848124E-019
  -24.6300000000000         1.830287084903587E-019
  -24.4400000000000         1.059106275392908E-019
  -24.2500000000000        -6.089424521454366E-021
  -24.0600000000000        -4.543219965755723E-020
  -23.8700000000000         1.483428083115436E-020
  -23.6800000000000         9.756295020285749E-020
  -23.4900000000000         9.810262779454662E-020
  -23.3000000000000        -1.235982353823980E-020
  -23.1100000000000        -1.553314063130911E-019
  -22.9200000000000        -2.157135536321506E-019
  -22.7300000000000        -1.479103260665793E-019
  -22.5400000000000        -1.693210384279898E-020
  -22.3500000000000         6.405440978944313E-020
  -22.1600000000000         3.979047129943200E-020
  -21.9700000000000        -3.840376757303805E-020
  -21.7800000000000        -6.691169963092226E-020
  -21.5900000000000         6.023319267599916E-021
  -21.4000000000000         1.268226861816970E-019
  -21.2100000000000         1.855061607228820E-019
  -21.0200000000000         1.204337131066943E-019
  -20.8300000000000        -2.154531639568200E-020
  -20.6400000000000        -1.275237469277756E-019
  -20.4500000000000        -1.232967439734026E-019
  -20.2600000000000        -4.042048764562140E-020
  -20.0700000000000         1.820933375325962E-020
  -19.8800000000000        -1.938737062698300E-020
  -19.6900000000000        -1.228341502960852E-019
  -19.5000000000000        -1.877952989718970E-019
  -19.3100000000000        -1.374448028036904E-019
  -19.1200000000000         2.001225658315808E-022
  -18.9300000000000         1.139807480307303E-019
  -18.7400000000000         1.110744878769082E-019
  -18.5500000000000         2.651052252997752E-021
  -18.3600000000000        -1.073542120980352E-019
  -18.1700000000000        -1.196769569209465E-019
  -17.9800000000000        -3.118192824201194E-020
  -17.7900000000000         6.572502746349151E-020
  -17.6000000000000         7.420694775636002E-020
  -17.4100000000000        -1.269028999505825E-020
  -17.2200000000000        -1.045810207682181E-019
  -17.0300000000000        -1.003472835898943E-019
  -16.8400000000000         1.374474664279231E-020
  -16.6500000000000         1.481132547940392E-019
  -16.4600000000000         1.915709251514653E-019
  -16.2700000000000         1.132240708133971E-019
  -16.0800000000000        -1.178497349028892E-020
  -15.8900000000000        -7.616455074060768E-020
  -15.7000000000000        -4.260265060848572E-020
  -15.5100000000000         2.366736840650155E-020
  -15.3200000000000         2.256979665830936E-020
  -15.1300000000000        -7.863751049924283E-020
  -14.9400000000000        -2.079274310329982E-019
  -14.7500000000000        -2.529841096139249E-019
  -14.5600000000000        -1.666679758564762E-019
  -14.3700000000000        -1.270265865996026E-020
  -14.1800000000000         9.239591970353471E-020
  -13.9900000000000         8.619031204108486E-020
  -13.8000000000000         1.456522158587123E-020
  -13.6100000000000        -1.778803009190612E-020
  -13.4200000000000         4.732302318201100E-020
  -13.2300000000000         1.618481582687493E-019
  -13.0400000000000         2.151735920966974E-019
  -12.8500000000000         1.400616608441804E-019
  -12.6600000000000        -2.019720738273237E-020
  -12.4700000000000        -1.479263418790857E-019
  -12.2800000000000        -1.569918440161438E-019
  -12.0900000000000        -6.889534674744090E-020
  -11.9000000000000         1.220159986876446E-020
  -11.7100000000000         1.007505148940249E-021
  -11.5200000000000        -8.762681658100347E-020
  -11.3300000000000        -1.547837981250627E-019
  -11.1400000000000        -1.149690250853753E-019
  -10.9500000000000         1.861029702385981E-020
  -10.7600000000000         1.427991926285531E-019
  -10.5700000000000         1.592092621230817E-019
  -10.3800000000000         6.484647252706993E-020
  -10.1900000000000        -4.733168896203499E-020
  -10.0000000000000        -7.794037104861200E-020
  -9.81000000000000        -1.494504231552921E-020
  -9.62000000000000         5.794162383197737E-020
  -9.42999999999999         4.584447877650338E-020
  -9.23999999999999        -6.157860536122686E-020
  -9.05000000000000        -1.761164075063401E-019
  -8.86000000000000        -1.930507821862390E-019
  -8.67000000000000        -9.119345041655303E-020
  -8.48000000000000         4.492279004789953E-020
  -8.28999999999999         1.025650912505198E-019
  -8.09999999999999         4.487187606894562E-020
  -7.91000000000000        -5.712950923735232E-020
  -7.72000000000000        -9.463833814935137E-020
  -7.53000000000000        -2.610220461143047E-020
  -7.34000000000000         8.324756124733852E-020
  -7.15000000000001         1.249448327225036E-019
  -6.95999999999999         5.285032528142401E-020
  -6.77000000000000        -7.051439443148407E-020
  -6.58000000000000        -1.316080215395207E-019
  -6.39000000000000        -7.315454129075857E-020
  -6.20000000000000         5.069503105956211E-020
  -6.01000000000001         1.239208988236061E-019
  -5.81999999999999         7.634225731625910E-020
  -5.63000000000000        -5.214176058490199E-020
  -5.44000000000000        -1.509151500646027E-019
  -5.25000000000000        -1.432572148241757E-019
  -5.06000000000000        -5.631729135476664E-020
  -4.87000000000000         9.527057003701993E-021
  -4.67999999999999        -1.862259314002904E-020
  -4.48999999999999        -1.128394970492881E-019
  -4.30000000000000        -1.693980929676999E-019
  -4.11000000000000        -1.087462777280811E-019
  -3.92000000000000         4.530945921987304E-020
  -3.73000000000000         1.837059149982301E-019
  -3.53999999999999         2.111887716871688E-019
  -3.34999999999999         1.324276762132551E-019
  -3.16000000000000         4.347531681900845E-020
  -2.97000000000000         3.724958306596181E-020
  -2.78000000000000         1.137083893691724E-019
  -2.59000000000000         1.806762357660379E-019
  -2.40000000000001         1.444752371324445E-019
  -2.20999999999999         3.445837261915757E-021
  -2.02000000000000        -1.456535528275647E-019
  -1.83000000000000        -1.952818113372279E-019
  -1.64000000000000        -1.257284644155579E-019
  -1.45000000000000        -2.099239883200446E-020
  -1.26000000000001         1.290666133734653E-020
  -1.06999999999999        -5.088069331535476E-020
 -0.879999999999995        -1.357341585970469E-019
 -0.689999999999998        -1.371428933966222E-019
 -0.500000000000000        -2.597407892247465E-020
 -0.310000000000002         1.192834145812658E-019
 -0.120000000000005         1.826123362316718E-019
  7.000000000000739E-002    1.168730233282907E-019
  0.260000000000005        -1.404322550377416E-020
  0.450000000000003        -9.667253162585105E-020
  0.640000000000001        -7.399448896484907E-020
  0.829999999999998         4.784758011787430E-021
   1.02000000000000         3.711192568329589E-020
   1.21000000000001        -2.922112748861291E-020
   1.40000000000001        -1.419146334850165E-019
   1.59000000000000        -1.923219708875728E-019
   1.78000000000000        -1.203509835229987E-019
   1.97000000000000         2.459595610842613E-020
   2.16000000000000         1.260066970740160E-019
   2.34999999999999         1.067621168449039E-019
   2.54000000000001        -8.690559329219721E-022
   2.73000000000000        -8.781907440342692E-020
   2.92000000000000        -7.201216411784903E-020
   3.11000000000000         2.544005171222029E-020
   3.30000000000000         1.036856335204004E-019
   3.48999999999999         8.189887765629569E-020
   3.68000000000001        -2.093249527931246E-020
   3.87000000000000        -1.032035925457497E-019
   4.06000000000000        -7.867071161949584E-020
   4.25000000000000         3.873572522322601E-020
   4.44000000000000         1.449695516735442E-019
   4.63000000000000         1.421076240054869E-019
   4.82000000000001         2.990427112450581E-020
   5.01000000000001        -9.399120585911888E-020
   5.20000000000000        -1.253047716895566E-019
   5.39000000000000        -4.941409476509594E-020
   5.58000000000000         4.826081746528435E-020
   5.77000000000000         6.661001006525209E-020
   5.96000000000001        -1.339603565398954E-020
   6.15000000000001        -1.110641441077722E-019
   6.34000000000000        -1.248913107767985E-019
   6.53000000000000        -3.198637975377295E-020