  -105.000000000000         3.781217645105543E-020
  -104.810000000000         1.042645219979234E-019
  -104.620000000000         1.462838960477976E-019
  -104.430000000000         1.559687049917130E-019
  -104.240000000000         1.344468098325393E-019
  -104.050000000000         9.146019294947255E-020
  -103.860000000000         4.247122647576212E-020
  -103.670000000000         4.132124241268116E-021
  -103.480000000000        -1.056499331459996E-020
  -103.290000000000         3.951898665689157E-021
  -103.100000000000         4.425426083250706E-020
  -102.910000000000         9.896463789558366E-020
  -102.720000000000         1.521267012354814E-019
  -102.530000000000         1.879086089782631E-019
  -102.340000000000         1.952715487792712E-019
  -102.150000000000         1.712481697820897E-019
  -101.960000000000         1.218784256924555E-019
  -101.770000000000         6.052738254989427E-020
  -101.580000000000         4.067510102709255E-021
  -101.390000000000        -3.197081061753216E-020
  -101.200000000000        -3.787332882640795E-020
  -101.010000000000        -1.253875847296359E-020
  -100.820000000000         3.621660219713042E-020
  -100.630000000000         9.393498949819858E-020
  -100.440000000000         1.437105652068382E-019
  -100.250000000000         1.710806040286847E-019
  -100.060000000000         1.681963166507635E-019
  -99.8700000000000         1.360683163722668E-019
  -99.6800000000000         8.424156179188302E-020
  -99.4900000000000         2.799789277794403E-020
  -99.3000000000000        -1.610226331137363E-020
  -99.1100000000000        -3.504737859217014E-020
  -98.9200000000000        -2.317117201096537E-020
  -98.7300000000000         1.618622200700273E-020
  -98.5400000000000         7.163762549494974E-020
  -98.3500000000000         1.270513304739019E-019
  -98.1600000000000         1.662358208979302E-019
  -97.9700000000000         1.776428683411530E-019
  -97.7800000000000         1.577211524976104E-019
  -97.5900000000000         1.119472101947312E-019
  -97.4000000000000         5.323653548300447E-020
  -97.2100000000000        -1.802736196634456E-021
  -97.0200000000000        -3.768718328557430E-020
  -96.8300000000000        -4.455015070517989E-020
  -96.6400000000000        -2.100479483448463E-020
  -96.4500000000000         2.545563974538931E-020
  -96.2600000000000         8.064038147686102E-020
  -96.0700000000000         1.277950497492283E-019
  -95.8800000000000         1.524855807700186E-019
  -95.6900000000000         1.468107904098936E-019
  -95.5000000000000         1.117175730872560E-019
  -95.3100000000000         5.674580565760896E-020
  -95.1200000000000        -2.722558298002694E-021
  -94.9300000000000        -4.991265674043613E-020
  -94.7400000000000        -7.151642985357798E-020
  -94.5500000000000        -6.155696979233677E-020
  -94.3600000000000        -2.313795380276281E-020
  -94.1700000000000         3.243222562900254E-020
  -93.9800000000000         8.889351684571367E-020
  -93.7900000000000         1.297262375940692E-019
  -93.6000000000000         1.429230430984852E-019
  -93.4100000000000         1.244555791615385E-019
  -93.2200000000000         7.942945013760683E-020
  -93.0300000000000         2.059484120644552E-020
  -92.8400000000000        -3.535020128070466E-020
  -92.6500000000000        -7.258762470920249E-020
  -92.4600000000000        -8.073869589755992E-020
  -92.2700000000000        -5.783803841695108E-020
  -92.0800000000000        -1.086736751294445E-020
  -91.8900000000000         4.630035651733111E-020
  -91.7000000000000         9.694826846109257E-020
  -91.5100000000000         1.263806118017817E-019
  -91.3200000000000         1.261931554228460E-019
  -91.1300000000000         9.670685795801910E-020
  -90.9400000000000         4.685526901060748E-020
  -90.7500000000000        -8.442100773099303E-021
  -90.5600000000000        -5.265464149369730E-020
  -90.3700000000000        -7.248851043865044E-020
  -90.1800000000000        -6.179616921583822E-020
  -89.9900000000000        -2.341145484325710E-020
  -89.8000000000000         3.162234318254280E-020
  -89.6100000000000         8.720879157803159E-020
  -89.4200000000000         1.268275317276993E-019
  -89.2300000000000         1.382991877993987E-019
  -89.0400000000000         1.173080647148073E-019
  -88.8500000000000         6.866221236876526E-020
  -88.6600000000000         4.924887544339175E-021
  -88.4700000000000        -5.718579301096114E-020
  -88.2800000000000        -1.015835872262603E-019
  -88.0900000000000        -1.173978929938633E-019
  -87.9000000000000        -1.020270756021972E-019
  -87.7100000000000        -6.178238008631745E-020
  -87.5200000000000        -9.945378385259998E-021
  -87.3300000000000         3.718832723963789E-020
  -87.1400000000000         6.512521299382242E-020
  -86.9500000000000         6.544880683749411E-020
  -86.7600000000000         3.830955437940967E-020
  -86.5700000000000        -7.598008306718924E-021
  -86.3800000000000        -5.756952311177203E-020
  -86.1900000000000        -9.520329710092180E-020
  -86.0000000000000        -1.072358950574742E-019
  -85.8100000000000        -8.748894334000418E-020
  -85.6200000000000        -3.877234779864305E-020
  -85.4300000000000         2.781474592448966E-020
  -85.2400000000000         9.598529645963536E-020
  -85.0500000000000         1.488704206240753E-019
  -84.8600000000000         1.737984362401950E-019
  -84.6700000000000         1.658675927942605E-019
  -84.4800000000000         1.292828311852103E-019
  -84.2900000000000         7.607186298989516E-020
  -84.1000000000000         2.255172280739084E-020
  -83.9100000000000        -1.543207851468493E-020
  -83.7200000000000        -2.711355607173525E-020
  -83.5300000000000        -9.922369418010945E-021
  -83.3400000000000         2.979901204439929E-020
  -83.1500000000000         7.868573221153500E-020
  -82.9600000000000         1.202968993965463E-019
  -82.7700000000000         1.399675898363815E-019
  -82.5800000000000         1.291544127693649E-019
  -82.3900000000000         8.801223864026658E-020
  -82.2000000000000         2.545454154729124E-020
  -82.0100000000000        -4.332145828204440E-020
  -81.8200000000000        -1.011314316329465E-019
  -81.6300000000000        -1.336827058760363E-019
  -81.4400000000000        -1.336260948153282E-019
  -81.2500000000000        -1.026091605082340E-019
  -81.0600000000000        -5.073712332628904E-020
  -80.8700000000000         6.400181473820896E-021
  -80.6800000000000         5.226944949956283E-020
  -80.4900000000000         7.418234926700153E-020
  -80.3000000000000         6.694162057914957E-020
  -80.1100000000000         3.429108095085552E-020
  -79.9200000000000        -1.224444328987958E-020
  -79.7300000000000        -5.678720295584871E-020
  -79.5400000000000        -8.380603110995473E-020
  -79.3500000000000        -8.272399766586505E-020
  -79.1600000000000        -5.109641921624508E-020
  -78.9700000000000         4.567272353210682E-021
  -78.7800000000000         7.058343679040161E-020
  -78.5900000000000         1.299663669946711E-019
  -78.4000000000000         1.672733390950811E-019
  -78.2100000000000         1.730187137068064E-019
  -78.0200000000000         1.463787943227492E-019
  -77.8300000000000         9.540754261775218E-020
  -77.6400000000000         3.470667899039841E-020
  -77.4500000000000        -1.877019511549862E-020
  -77.2600000000000        -5.056409470545343E-020
  -77.0700000000000        -5.280940176462012E-020
  -76.8800000000000        -2.640596074545127E-020
  -76.6900000000000         1.935703172187432E-020
  -76.5000000000000         6.961084706540236E-020
  -76.3100000000000         1.083313054623321E-019
  -76.1200000000000         1.230869429409906E-019
  -75.9300000000000         1.087235961689565E-019
  -75.7400000000000         6.890566100354660E-020
  -75.5500000000000         1.506005488774469E-020
  -75.3600000000000        -3.697079193603959E-020
  -75.1700000000000        -7.158999221882995E-020
  -74.9800000000000        -7.806045350220950E-020
  -74.7900000000000        -5.372492726662900E-020
  -74.6000000000000        -4.888724641592316E-021
  -74.4100000000000         5.490167346602130E-020
  -74.2200000000000         1.086970809510008E-019
  -74.0300000000000         1.409987479950346E-019
  -73.8400000000000         1.422245670209111E-019
  -73.6500000000000         1.114926633157109E-019
  -73.4600000000000         5.691027871711483E-020
  -73.2700000000000        -6.721537781103180E-021
  -73.0800000000000        -6.212599823397982E-020
  -72.8900000000000        -9.447131274691154E-020
  -72.7000000000000        -9.557156276914946E-020
  -72.5100000000000        -6.615689289344427E-020
  -72.3200000000000        -1.556408418352186E-020
  -72.1300000000000         4.105399889290127E-020
  -71.9400000000000         8.718454158641946E-020
  -71.7500000000000         1.097799721673261E-019
  -71.5600000000000         1.030489347155581E-019
  -71.3700000000000         7.010905340536955E-020
  -71.1800000000000         2.201856633258473E-020
  -70.9900000000000        -2.553150782708588E-020
  -70.8000000000000        -5.689773242280741E-020
  -70.6100000000000        -6.116675444407698E-020
  -70.4200000000000        -3.546810921128386E-020
  -70.2300000000000         1.405401792460064E-020
  -70.0400000000000         7.389881530868422E-020
  -69.8500000000000         1.270220333931661E-019
  -69.6600000000000         1.577070883409950E-019
  -69.4700000000000         1.560922924620212E-019
  -69.2800000000000         1.210505417089613E-019
  -69.0900000000000         6.058923831092889E-020
  -68.9000000000000        -1.035069850864322E-020
  -68.7100000000000        -7.406915502692866E-020
  -68.5200000000000        -1.150560267206790E-019
  -68.3300000000000        -1.242913496190188E-019
  -68.1400000000000        -1.016606701183881E-019
  -67.9500000000000        -5.579839286816583E-020
  -67.7600000000000        -1.419682552209581E-021
  -67.5700000000000         4.507083569369470E-020
  -67.3800000000000         7.041002117315495E-020
  -67.1900000000000         6.834225906066980E-020
  -67.0000000000000         4.140125224255645E-020
  -66.8100000000000         9.514902102755461E-023
  -66.6200000000000        -4.026354316662251E-020
  -66.4300000000000        -6.415711423942118E-020
  -66.2400000000000        -6.054684201616574E-020
  -66.0500000000000        -2.626999899491695E-020
  -65.8600000000000         3.284993886429423E-020
  -65.6700000000000         1.035126337810177E-019
  -65.4800000000000         1.686363522999245E-019
  -65.2900000000000         2.121667468911639E-019
  -65.1000000000000         2.236022133996825E-019
  -64.9100000000000         2.009243891793792E-019
  -64.7200000000000         1.510890897650409E-019
  -64.5300000000000         8.794285258007218E-020
  -64.3400000000000         2.817682620386942E-020
  -64.1500000000000        -1.350217105853844E-020
  -63.9600000000000        -2.857757051367136E-020
  -63.7700000000000        -1.708217231626305E-020
  -63.5800000000000         1.257412367240270E-020
  -63.3900000000000         4.625171853370853E-020
  -63.2000000000000         6.842198438206188E-020
  -63.0100000000000         6.692358360124063E-020
  -62.8200000000000         3.673744023650472E-020
  -62.6300000000000        -1.832632206523195E-020
  -62.4400000000000        -8.652469594612634E-020
  -62.2500000000000        -1.514051067977059E-019
  -62.0600000000000        -1.964264228683872E-019
  -61.8700000000000        -2.096460447954016E-019
  -61.6800000000000        -1.871229017224087E-019
  -61.4900000000000        -1.340554510406705E-019
  -61.3000000000000        -6.332578899016534E-020
  -61.1100000000000         8.130398181573995E-021
  -60.9200000000000         6.407934773128998E-020
  -60.7300000000000         9.349631143411004E-020
  -60.5400000000000         9.352515803402411E-020
  -60.3500000000000         7.004443249039905E-020
  -60.1600000000000         3.569131909829085E-020
  -59.9700000000000         5.932070519127545E-021
  -59.7800000000000        -5.669875367687298E-021
  -59.5900000000000         8.391174628845681E-021
  -59.4000000000000         4.719593858574636E-020
  -59.2100000000000         1.015166313788657E-019
  -59.0200000000000         1.563983952122071E-019
  -58.8300000000000         1.954741482683781E-019
  -58.6400000000000         2.057737234000376E-019
  -58.4500000000000         1.816338913867254E-019
  -58.2600000000000         1.265641071360993E-019
  -58.0700000000000         5.250638773933051E-020
  -57.8800000000000        -2.332074763098546E-020
  -57.6900000000000        -8.310438776338810E-020
  -57.5000000000000        -1.133124125695560E-019
  -57.3100000000000        -1.083713511172901E-019
  -57.1200000000000        -7.209995485013795E-020
  -56.9300000000000        -1.649546914740672E-020
  -56.7400000000000         4.177133082415172E-020
  -56.5500000000000         8.613964635231787E-020
  -56.3600000000000         1.048426233772377E-019
  -56.1700000000000         9.414601869108682E-020
  -55.9800000000000         5.921836969059517E-020
  -55.7900000000000         1.240075751104860E-020
  -55.6000000000000        -3.059788703642527E-020
  -55.4100000000000        -5.545257204865349E-020
  -55.2200000000000        -5.352485429139454E-020
  -55.0300000000000        -2.445973654403284E-020
  -54.8400000000000         2.367589578350077E-020
  -54.6500000000000         7.674770622118971E-020
  -54.4600000000000         1.187115308984458E-019
  -54.2700000000000         1.363621863983670E-019
  -54.0800000000000         1.232891142760037E-019
  -53.8900000000000         8.188121541381098E-020
  -53.7000000000000         2.278553076357279E-020
  -53.5100000000000        -3.803766376795205E-020
  -53.3200000000000        -8.382072133305818E-020
  -53.1300000000000        -1.017562091004274E-019
  -52.9400000000000        -8.664935782865333E-020
  -52.7500000000000        -4.240302293144377E-020
  -52.5600000000000         1.908742683088785E-020
  -52.3700000000000         8.130339698857034E-020
  -52.1800000000000         1.277618500638683E-019
  -51.9900000000000         1.466248493293798E-019
  -51.8000000000000         1.339421410582297E-019
  -51.6100000000000         9.460617677415609E-020
  -51.4200000000000         4.075871009487321E-020
  -51.2300000000000        -1.187675002162944E-020
  -51.0400000000000        -4.866209198022986E-020
  -50.8500000000000        -6.034594268682147E-020
  -50.6600000000000        -4.573962943053818E-020
  -50.4700000000000        -1.198305780505718E-020
  -50.2800000000000         2.767753829605285E-020
  -50.0900000000000         5.794667454530503E-020
  -49.9000000000000         6.617704092355550E-020
  -49.7100000000000         4.632018488660250E-020
  -49.5200000000000         9.556559466648129E-022
  -49.3300000000000        -5.921975041382258E-020
  -49.1400000000000        -1.183203787245394E-019
  -48.9500000000000        -1.597845582498869E-019
  -48.7600000000000        -1.711650220035354E-019
  -48.5700000000000        -1.477950052294967E-019
  -48.3800000000000        -9.424493536722534E-020
  -48.1900000000000        -2.312485572254902E-020
  -48.0000000000000         4.843574412146808E-020
  -47.8100000000000         1.036168163965465E-019
  -47.6200000000000         1.306466222962803E-019
  -47.4300000000000         1.260772430554277E-019
  -47.2400000000000         9.564916696487878E-020
  -47.0500000000000         5.249659787863256E-020
  -46.8600000000000         1.321392249907567E-020
  -46.6700000000000        -7.078635014070157E-021
  -46.4800000000000         7.582504569076858E-022
  -46.2900000000000         3.711187732105856E-020
  -46.1000000000000         9.339097093332564E-020
  -45.9100000000000         1.544165535428604E-019
  -45.7200000000000         2.027427560637900E-019
  -45.5300000000000         2.236584756700367E-019
  -45.3400000000000         2.094235020616666E-019
  -45.1500000000000         1.615175319610139E-019
  -44.9600000000000         9.025967939802948E-020
  -44.7700000000000         1.191798283658887E-020
  -44.5800000000000        -5.584964560658691E-020
  -44.3900000000000        -9.890680948889416E-020
  -44.2000000000000        -1.104918431375572E-019
  -44.0100000000000        -9.291279067032103E-020
  -43.8200000000000        -5.660939120902898E-020
  -43.6300000000000        -1.686848231902090E-020
  -43.4400000000000         1.084227400228327E-020
  -43.2500000000000         1.555799162200097E-020
  -43.0600000000000        -5.850204426631891E-021
  -42.8700000000000        -4.766531807005888E-020
  -42.6800000000000        -9.693383406008259E-020
  -42.4900000000000        -1.372291724996538E-019
  -42.3000000000000        -1.534808918739845E-019
  -42.1100000000000        -1.364742030882459E-019
  -41.9200000000000        -8.571890818513773E-020
  -41.7300000000000        -9.853966201680695E-021
  -41.5400000000000         7.554021665804672E-020
  -41.3500000000000         1.521058625069510E-019
  -41.1600000000000         2.036633671769318E-019
  -40.9700000000000         2.205444920473758E-019
  -40.7800000000000         2.020697666362509E-019
  -40.5900000000000         1.564762524800366E-019
  -40.4000000000000         9.834285233045872E-020
  -40.2100000000000         4.428402348114741E-020
  -40.0200000000000         8.176217561713862E-021
  -39.8300000000000        -2.697826184697164E-021
  -39.6400000000000         1.051541530767339E-020
  -39.4500000000000         3.892797722653090E-020
  -39.2600000000000         6.888528411625118E-020
  -39.0700000000000         8.632709707305959E-020
  -38.8800000000000         8.123324435387719E-020
  -38.6900000000000         5.083248754619380E-020
  -38.5000000000000         6.192637227442583E-022
  -38.3100000000000        -5.712923628928909E-020
  -38.1200000000000        -1.069036980869887E-019
  -37.9300000000000        -1.345363672794989E-019
  -37.7400000000000        -1.314489115479984E-019
  -37.5500000000000        -9.731919123400474E-020
  -37.3600000000000        -4.037335168882140E-020
  -37.1700000000000         2.479865811979544E-020
  -36.9800000000000         8.128697938144014E-020
  -36.7900000000000         1.146083209452997E-019
  -36.6000000000000         1.167910904385643E-019
  -36.4100000000000         8.861966904901834E-020
  -36.2200000000000         3.938325230647430E-020
  -36.0300000000000        -1.580804448199411E-020
  -35.8400000000000        -6.037299006366502E-020
  -35.6500000000000        -8.102219066858868E-020
  -35.4600000000000        -7.155804699504129E-020
  -35.2700000000000        -3.461356416805818E-020
  -35.0800000000000         1.916930627780114E-020
  -34.8900000000000         7.427755795007476E-020
  -34.7000000000000         1.148663629484702E-019
  -34.5100000000000         1.293809395525217E-019
  -34.3200000000000         1.139201999820288E-019
  -34.1300000000000         7.336567000348256E-020
  -33.9400000000000         1.994512782995796E-020
  -33.7500000000000        -3.035651869720647E-020
  -33.5600000000000        -6.249933218292323E-020
  -33.3700000000000        -6.683439063867029E-020
  -33.1800000000000        -4.199234057556818E-020
  -32.9900000000000         4.638616941112490E-021
  -32.8000000000000         5.899844475636362E-020
  -32.6100000000000         1.044110261486203E-019
  -32.4200000000000         1.264410605789438E-019
  -32.2300000000000         1.171465499431448E-019
  -32.0400000000000         7.749076288826872E-020
  -31.8500000000000         1.720342196557743E-020
  -31.6600000000000        -4.788752839470247E-020
  -31.4700000000000        -1.003031727403186E-019
  -31.2800000000000        -1.258715115646501E-019
  -31.0900000000000        -1.177717264263804E-019
  -30.9000000000000        -7.849614273405447E-020
  -30.7100000000000        -1.915810781917700E-020
  -30.5200000000000         4.365997740756865E-020
  -30.3300000000000         9.261333073571545E-020
  -30.1400000000000         1.145039735760017E-019
  -29.9500000000000         1.039869139870222E-019
  -29.7600000000000         6.502059528492020E-020
  -29.5700000000000         9.661265522341251E-021
  -29.3800000000000        -4.543766371255870E-020
  -29.1900000000000        -8.380734970146558E-020
  -29.0000000000000        -9.385195834415281E-020
  -28.8100000000000        -7.210221602077009E-020
  -28.6200000000000        -2.410927329013582E-020
  -28.4300000000000         3.726300720060642E-020
  -28.2400000000000         9.563562582333075E-020
  -28.0500000000000         1.358846792467505E-019
  -27.8600000000000         1.484880687543574E-019
  -27.6700000000000         1.321831387483113E-019
  -27.4800000000000         9.417076300987839E-020
  -27.2900000000000         4.782341960596814E-020
  -27.1000000000000         8.584803865698517E-021
  -26.9100000000000        -1.072580580257770E-020
  -26.7200000000000        -3.820575104026304E-021
  -26.5300000000000         2.709039160366666E-020
  -26.3400000000000         7.185825170643381E-020
  -26.1500000000000         1.153273632722957E-019
  -25.9600000000000         1.417911566491773E-019
  -25.7700000000000         1.396730698140286E-019
  -25.5800000000000         1.050630592821384E-019
  -25.3900000000000         4.307119287030658E-020
  -25.2000000000000        -3.340510730948311E-020
  -25.0100000000000        -1.071521227042840E-019
  -24.8200000000000        -1.613536451647181E-019
  -24.6300000000000        -1.841958139656326E-019
  -24.4400000000000        -1.720467795642751E-019
  -24.2500000000000        -1.303087034010639E-019
  -24.0600000000000        -7.171083259942654E-020
  -23.8700000000000        -1.254892612319883E-020
  -23.6800000000000         3.203234829726579E-020
  -23.4900000000000         5.234224859813055E-020
  -23.3000000000000         4.678344902504110E-020
  -23.1100000000000         2.206817935994984E-020
  -22.9200000000000        -9.036737069699163E-021
  -22.7300000000000        -3.175747536570774E-020
  -22.5400000000000        -3.394963549719975E-020
  -22.3500000000000        -9.949663591819006E-021
  -22.1600000000000         3.749990107868771E-020
  -21.9700000000000         9.782847372525444E-020
  -21.7800000000000         1.555659586849806E-019
  -21.5900000000000         1.947831809501191E-019
  -21.4000000000000         2.037599715501185E-019
  -21.2100000000000         1.785197483274103E-019
  -21.0200000000000         1.241863456456915E-019
  -20.8300000000000         5.374207681350889E-020
  -20.6400000000000        -1.548224527523847E-020
  -20.4500000000000        -6.659294227809820E-020
  -20.2600000000000        -8.782600451736221E-020
  -20.0700000000000        -7.579880571454435E-020
  -19.8800000000000        -3.638591466818858E-020
  -19.6900000000000         1.703297051017754E-020
  -19.5000000000000         6.745003605679300E-020
  -19.3100000000000         9.911905553171625E-020
  -19.1200000000000         1.020558685507049E-019
  -18.9300000000000         7.486014014158902E-020
  -18.7400000000000         2.505168492125366E-020
  -18.5500000000000        -3.316918081140771E-020
  -18.3600000000000        -8.308318428054732E-020
  -18.1700000000000        -1.103245360963944E-019
  -17.9800000000000        -1.070483137570767E-019
  -17.7900000000000        -7.418553933958543E-020
  -17.6000000000000        -2.113961840534024E-020
  -17.4100000000000         3.697524402413501E-020
  -17.2200000000000         8.373993524940128E-020
  -17.0300000000000         1.061948071782905E-019
  -16.8400000000000         9.857943670655997E-020
  -16.6500000000000         6.396643518071701E-020
  -16.4600000000000         1.331969557484466E-020
  -16.2700000000000        -3.774624812840607E-020
  -16.0800000000000        -7.356183119700814E-020
  -15.8900000000000        -8.301400542687369E-020
  -15.7000000000000        -6.282846455712435E-020
  -15.5100000000000        -1.856393803723725E-020
  -15.3200000000000         3.697280547812867E-020
  -15.1300000000000         8.743081196567941E-020
  -14.9400000000000         1.176617917885465E-019
  -14.7500000000000         1.181339916476053E-019
  -14.5600000000000         8.773656616311343E-020
  -14.3700000000000         3.416445085106898E-020
  -14.1800000000000        -2.822894061920581E-020
  -13.9900000000000        -8.249537189002741E-020
  -13.8000000000000        -1.139038104367065E-019
  -13.6100000000000        -1.141153736858457E-019
  -13.4200000000000        -8.351739756575294E-020
  -13.2300000000000        -3.104419703104530E-020
  -13.0400000000000         2.845857653634204E-020
  -12.8500000000000         7.855418916717331E-020
  -12.6600000000000         1.059583686627188E-019
  -12.4700000000000         1.043254580675875E-019
  -12.2800000000000         7.598125803672278E-020
  -12.0900000000000         3.110954991476866E-020
  -11.9000000000000        -1.535752592180931E-020
  -11.7100000000000        -4.822765413171298E-020
  -11.5200000000000        -5.659775107789635E-020
  -11.3300000000000        -3.712937464151005E-020
  -11.1400000000000         4.915443644234496E-021
  -10.9500000000000         5.719100369081532E-020
  -10.7600000000000         1.039024239964283E-019
  -10.5700000000000         1.304978592681336E-019
  -10.3800000000000         1.280420545597924E-019
  -10.1900000000000         9.598222938286975E-020
  -10.0000000000000         4.248344271225877E-020
  -9.81000000000000        -1.778200107760745E-020
  -9.62000000000000        -6.776554710600842E-020
  -9.42999999999999        -9.290911159337307E-020
  -9.23999999999999        -8.534616071549486E-020
  -9.05000000000000        -4.622257851540829E-020
  -8.86000000000000         1.454049689776549E-020
  -8.67000000000000         8.098554015941219E-020
  -8.48000000000000         1.355813735455266E-019
  -8.28999999999999         1.641321889801016E-019
  -8.09999999999999         1.597244691032835E-019
  -7.91000000000000         1.245817181078192E-019
  -7.72000000000000         6.930375052201841E-020
  -7.53000000000000         9.724457354162291E-021
  -7.34000000000000        -3.769272927582079E-020
  -7.15000000000001        -6.058774144695573E-020
  -6.95999999999999        -5.420359381900548E-020
  -6.77000000000000        -2.265397536724338E-020
  -6.58000000000000         2.239435228817779E-020
  -6.39000000000000         6.523301848459017E-020
  -6.20000000000000         9.079441418730766E-020
  -6.01000000000001         8.914338900848959E-020
  -5.81999999999999         5.846996074120175E-020
  -5.63000000000000         5.707843599137117E-021
  -5.44000000000000        -5.540621493765545E-020
  -5.25000000000000        -1.082708335404987E-019
  -5.06000000000000        -1.382117831049395E-019
  -4.87000000000000        -1.367350124962795E-019
  -4.67999999999999        -1.040070670310310E-019
  -4.48999999999999        -4.884452988184375E-020
  -4.30000000000000         1.378485937734279E-020
  -4.11000000000000         6.702874981813954E-020
  -3.92000000000000         9.695433780436466E-020
  -3.73000000000000         9.650465374011999E-020
  -3.53999999999999         6.746524078719148E-020
  -3.34999999999999         1.987432005161190E-020
  -3.16000000000000        -3.094905348123078E-020
  -2.97000000000000        -6.889201929143525E-020
  -2.78000000000000        -8.174361867794587E-020
  -2.59000000000000        -6.473515493893044E-020
  -2.40000000000001        -2.190188238384021E-020
  -2.20999999999999         3.511994524188174E-020
  -2.02000000000000         9.050037831932729E-020
  -1.83000000000000         1.288292978731893E-019
  -1.64000000000000         1.395918322886729E-019
  -1.45000000000000         1.202046260294316E-019
  -1.26000000000001         7.673153827374225E-020
  -1.06999999999999         2.207322165137749E-020
 -0.879999999999995        -2.783743477012407E-020
 -0.689999999999998        -5.871777291084654E-020
 -0.500000000000000        -6.212124501607772E-020
 -0.310000000000002        -3.789785501611187E-020
 -0.120000000000005         5.792048015541660E-021
  7.000000000000739E-002    5.491268905141717E-020
  0.260000000000005         9.372116376510451E-020
  0.450000000000003         1.094484690630502E-019
  0.640000000000001         9.612419910716062E-020
  0.829999999999998         5.642405128338544E-020
   1.02000000000000         9.911234984016331E-022
   1.21000000000001        -5.458618103057055E-020
   1.40000000000001        -9.427414721401078E-020
   1.59000000000000        -1.062697682907717E-019
   1.78000000000000        -8.649011250719562E-020
   1.97000000000000        -3.984939006981010E-020
   2.16000000000000         2.106184638767007E-020
   2.34999999999999         7.952457583782001E-020
   2.54000000000001         1.194459272028317E-019
   2.73000000000000         1.299484617556941E-019
   2.92000000000000         1.084695584338991E-019
   3.11000000000000         6.147702174785800E-020
   3.30000000000000         2.594440876969238E-021
   3.48999999999999        -5.132455144712735E-020
   3.68000000000001        -8.504350154697510E-020
   3.87000000000000        -8.931544743178898E-020
   4.06000000000000        -6.351827982057506E-020
   4.25000000000000        -1.579061718227606E-020
   4.44000000000000         3.937140970466476E-020
   4.63000000000000         8.535890971811512E-020
   4.82000000000001         1.083034447037145E-019
   5.01000000000001         1.011292818352208E-019
   5.20000000000000         6.562947968044719E-020
   5.39000000000000         1.196546366145189E-020
   5.58000000000000        -4.426386300739254E-020
   5.77000000000000        -8.653609925676599E-020
   5.96000000000001        -1.021992946579426E-019
   6.15000000000001        -8.616149475804490E-020
   6.34000000000000        -4.240803111710366E-020
   6.53000000000000         1.709601116798259E-020