  -105.000000000000         7.785655001459202E-021
  -104.810000000000         2.146841785717492E-020
  -104.620000000000         3.012034961504650E-020
  -104.430000000000         3.211448520395469E-020
  -104.240000000000         2.768305454301443E-020
  -104.050000000000         1.883196423711055E-020
  -103.860000000000         8.744969146006702E-021
  -103.670000000000         8.508175461271866E-022
  -103.480000000000        -2.175370721916641E-021
  -103.290000000000         8.136984949985656E-022
  -103.100000000000         9.112087373716094E-021
  -102.910000000000         2.037716493261974E-020
  -102.720000000000         3.132344458148274E-020
  -102.530000000000         3.869099103929410E-020
  -102.340000000000         4.020687521388225E-020
  -102.150000000000         3.526043040677131E-020
  -101.960000000000         2.509562658910773E-020
  -101.770000000000         1.246388758128828E-020
  -101.580000000000         8.379330902020676E-022
  -101.390000000000        -6.585122552985669E-021
  -101.200000000000        -7.802999151431712E-021
  -101.010000000000        -2.584723000032462E-021
  -100.820000000000         7.462482623937716E-021
  -100.630000000000         1.935737605824210E-020
  -100.440000000000         2.960851393410702E-020
  -100.250000000000         3.522856550980539E-020
  -100.060000000000         3.460289611483617E-020
  -99.8700000000000         2.795639774810012E-020
  -99.6800000000000         1.728042836945696E-020
  -99.4900000000000         5.741956998188668E-021
  -99.3000000000000        -3.250199851374179E-021
  -99.1100000000000        -7.047617235156743E-021
  -98.9200000000000        -4.539080550275945E-021
  -98.7300000000000         3.527170318090357E-021
  -98.5400000000000         1.477223947410274E-020
  -98.3500000000000         2.589784362430453E-020
  -98.1600000000000         3.366449914617017E-020
  -97.9700000000000         3.584114591263867E-020
  -97.7800000000000         3.184388102205219E-020
  -97.5900000000000         2.288029478027140E-020
  -97.4000000000000         1.156586938423000E-020
  -97.2100000000000         1.133617171191574E-021
  -97.0200000000000        -5.525872198259614E-021
  -96.8300000000000        -6.709986147916622E-021
  -96.6400000000000        -2.386162389258042E-021
  -96.4500000000000         5.830042423876252E-021
  -96.2600000000000         1.518980697188213E-020
  -96.0700000000000         2.266042999798639E-020
  -95.8800000000000         2.585362963609616E-020
  -95.6900000000000         2.375547699961427E-020
  -95.5000000000000         1.703657880833840E-020
  -95.3100000000000         7.841059474808478E-021
  -95.1200000000000        -8.901716667692766E-022
  -94.9300000000000        -6.356385837800661E-021
  -94.7400000000000        -6.798089673914650E-021
  -94.5500000000000        -2.071907194383217E-021
  -94.3600000000000         6.287324647090042E-021
  -94.1700000000000         1.553888539938223E-020
  -93.9800000000000         2.259535170972307E-020
  -93.7900000000000         2.500117184477793E-020
  -93.6000000000000         2.172555006248256E-020
  -93.4100000000000         1.351839230933844E-020
  -93.2200000000000         2.711230417957207E-021
  -93.0300000000000        -7.478806683158249E-021
  -92.8400000000000        -1.392392101281471E-020
  -92.6500000000000        -1.453681075963636E-020
  -92.4600000000000        -8.912431057763126E-021
  -92.2700000000000         1.523830743758301E-021
  -92.0800000000000         1.390042115936753E-020
  -91.8900000000000         2.470643609787288E-020
  -91.7000000000000         3.079285646562875E-020
  -91.5100000000000         3.028163472679969E-020
  -91.3200000000000         2.311731863381831E-020
  -91.1300000000000         1.109662351097160E-020
  -90.9400000000000        -2.635595858606753E-021
  -90.7500000000000        -1.447819574671994E-020
  -90.5600000000000        -2.139491255784220E-020
  -90.3700000000000        -2.176811773480829E-020
  -90.1800000000000        -1.583281216865772E-020
  -89.9900000000000        -5.559109481985402E-021
  -89.8000000000000         5.977073837916424E-021
  -89.6100000000000         1.552766324380744E-020
  -89.4200000000000         2.060770005033664E-020
  -89.2300000000000         2.014717993807087E-020
  -89.0400000000000         1.468898483840141E-020
  -88.8500000000000         6.117409919977605E-021
  -88.6600000000000        -2.961577887995171E-021
  -88.4700000000000        -9.984652927768177E-021
  -88.2800000000000        -1.311873322961988E-020
  -88.0900000000000        -1.169311798869110E-020
  -87.9000000000000        -6.285316750103040E-021
  -87.7100000000000         1.523595465738571E-021
  -87.5200000000000         9.620230554409484E-021
  -87.3300000000000         1.591341238976937E-020
  -87.1400000000000         1.883753093616379E-020
  -86.9500000000000         1.770230611714318E-020
  -86.7600000000000         1.282310543773683E-020
  -86.5700000000000         5.410398862656616E-021
  -86.3800000000000        -2.746358974576062E-021
  -86.1900000000000        -9.712169861335438E-021
  -86.0000000000000        -1.384497182348732E-020
  -85.8100000000000        -1.414043269551232E-020
  -85.6200000000000        -1.042186479090602E-020
  -85.4300000000000        -3.355154604105354E-021
  -85.2400000000000         5.698447108292606E-021
  -85.0500000000000         1.495450789816713E-020
  -84.8600000000000         2.254818003431807E-020
  -84.6700000000000         2.688745641496031E-020
  -84.4800000000000         2.696563488014798E-020
  -84.2900000000000         2.259329781213552E-020
  -84.1000000000000         1.450716422893867E-020
  -83.9100000000000         4.301825308136076E-021
  -83.7200000000000        -5.855802643749334E-021
  -83.5300000000000        -1.370832716685499E-020
  -83.3400000000000        -1.747946312219376E-020
  -83.1500000000000        -1.636979126258008E-020
  -82.9600000000000        -1.081394719797104E-020
  -82.7700000000000        -2.400164502849515E-021
  -82.5800000000000         6.547522405008086E-021
  -82.3900000000000         1.361986109599517E-020
  -82.2000000000000         1.702017951783582E-020
  -82.0100000000000         1.609145379276006E-020
  -81.8200000000000         1.149210852273272E-020
  -81.6300000000000         4.949747173308444E-021
  -81.4400000000000        -1.330408121559601E-021
  -81.2500000000000        -5.403034439793205E-021
  -81.0600000000000        -6.219445190460638E-021
  -80.8700000000000        -3.952436439179436E-021
  -80.6800000000000         1.038802093034446E-022
  -80.4900000000000         4.036634806248996E-021
  -80.3000000000000         6.054941054972684E-021
  -80.1100000000000         5.207226589250195E-021
  -79.9200000000000         1.808606667007169E-021
  -79.7300000000000        -2.590605987579897E-021
  -79.5400000000000        -5.702413849627485E-021
  -79.3500000000000        -5.309572490159443E-021
  -79.1600000000000        -1.227203161554100E-022
  -78.9700000000000         9.601039186351341E-021
  -78.7800000000000         2.190825707667170E-020
  -78.5900000000000         3.357029815372017E-020
  -78.4000000000000         4.099914615750795E-020
  -78.2100000000000         4.139793014809721E-020
  -78.0200000000000         3.377163223196130E-020
  -77.8300000000000         1.943766738037576E-020
  -77.6400000000000         1.821239660195810E-021
  -77.4500000000000        -1.445498046086472E-020
  -77.2600000000000        -2.494312450383694E-020
  -77.0700000000000        -2.678573062553432E-020
  -76.8800000000000        -1.970360277422214E-020
  -76.6900000000000        -6.191799855603897E-021
  -76.5000000000000         9.192138460176472E-021
  -76.3100000000000         2.125321873653029E-020
  -76.1200000000000         2.584371616968731E-020
  -75.9300000000000         2.124847922578782E-020
  -75.7400000000000         8.803050863535648E-021
  -75.5500000000000        -7.471125890219097E-021
  -75.3600000000000        -2.210944312874864E-020
  -75.1700000000000        -2.993456406871538E-020
  -74.9800000000000        -2.772365213300975E-020
  -74.7900000000000        -1.528190472164503E-020
  -74.6000000000000         4.411152910598999E-021
  -74.4100000000000         2.601973345206191E-020
  -74.2200000000000         4.338465839423187E-020
  -74.0300000000000         5.132616081069862E-020
  -73.8400000000000         4.720185261800009E-020
  -73.6500000000000         3.176587687657335E-020
  -73.4600000000000         9.056007664202220E-021
  -73.2700000000000        -1.469678530856035E-020
  -73.0800000000000        -3.284869273452546E-020
  -72.8900000000000        -4.029341529163704E-020
  -72.7000000000000        -3.498013095289557E-020
  -72.5100000000000        -1.851342739073794E-020
  -72.3200000000000         4.362278198701181E-021
  -72.1300000000000         2.722926901002675E-020
  -71.9400000000000         4.393708490060842E-020
  -71.7500000000000         5.038630852856163E-020
  -71.5600000000000         4.559186274149473E-020
  -71.3700000000000         3.173089305860584E-020
  -71.1800000000000         1.324061142155882E-020
  -70.9900000000000        -4.664545928458402E-021
  -70.8000000000000        -1.754422852430726E-020
  -70.6100000000000        -2.288149818774947E-020
  -70.4200000000000        -2.054297959084328E-020
  -70.2300000000000        -1.250739600863703E-020
  -70.0400000000000        -2.039200705349400E-021
  -69.8500000000000         7.385025065752917E-021
  -69.6600000000000         1.306774084100314E-020
  -69.4700000000000         1.374171193979889E-020
  -69.2800000000000         9.752544079572160E-021
  -69.0900000000000         2.780772541689713E-021
  -68.9000000000000        -4.778105698481542E-021
  -68.7100000000000        -1.058263186318756E-020
  -68.5200000000000        -1.303280414807396E-020
  -68.3300000000000        -1.166478389329483E-020
  -68.1400000000000        -7.137801580983270E-021
  -67.9500000000000        -8.484593612094598E-022
  -67.7600000000000         5.651869139566539E-021
  -67.5700000000000         1.119332159361730E-020
  -67.3800000000000         1.526902062880417E-020
  -67.1900000000000         1.797782867856989E-020
  -67.0000000000000         1.970556205070659E-020
  -66.8100000000000         2.074137218265528E-020
  -66.6200000000000         2.104269033096079E-020
  -66.4300000000000         2.026864869934117E-020
  -66.2400000000000         1.804762302237205E-020
  -66.0500000000000         1.431167163792416E-020
  -65.8600000000000         9.495226081585221E-021
  -65.6700000000000         4.478162479702284E-021
  -65.4800000000000         2.975528581764737E-022
  -65.2900000000000        -2.232614952944156E-021
  -65.1000000000000        -2.821865085675506E-021
  -64.9100000000000        -1.797011713150612E-021
  -64.7200000000000         4.593155382727072E-023
  -64.5300000000000         1.764757909744646E-021
  -64.3400000000000         2.630611177951964E-021
  -64.1500000000000         2.378293116910898E-021
  -63.9600000000000         1.258404257698337E-021
  -63.7700000000000        -1.095023938754107E-022
  -63.5800000000000        -1.006712281085093E-021
  -63.3900000000000        -8.977526617058659E-022
  -63.2000000000000         3.701132268103691E-022
  -63.0100000000000         2.504059393364443E-021
  -62.8200000000000         4.853269935053349E-021
  -62.6300000000000         6.627462635971686E-021
  -62.4400000000000         7.189077004428202E-021
  -62.2500000000000         6.324762581594590E-021
  -62.0600000000000         4.390072709651515E-021
  -61.8700000000000         2.248410801913474E-021
  -61.6800000000000         9.851398798118985E-022
  -61.4900000000000         1.460955743491401E-021
  -61.3000000000000         3.858277683131422E-021
  -61.1100000000000         7.427648335114122E-021
  -60.9200000000000         1.060611646651434E-020
  -60.7300000000000         1.154281611499414E-020
  -60.5400000000000         8.876520527928362E-021
  -60.3500000000000         2.456100312158042E-021
  -60.1600000000000        -6.333107562031611E-021
  -59.9700000000000        -1.484057484304193E-020
  -59.7800000000000        -1.998099498185380E-020
  -59.5900000000000        -1.934815056261019E-020
  -59.4000000000000        -1.220554348855735E-020
  -59.2100000000000         3.325279335375218E-023
  -59.0200000000000         1.405763206938069E-020
  -58.8300000000000         2.561080804487579E-020
  -58.6400000000000         3.084358642578718E-020
  -58.4500000000000         2.762214452525570E-020
  -58.2600000000000         1.634955272550711E-020
  -58.0700000000000         1.689651016094306E-023
  -57.8800000000000        -1.655817511820840E-020
  -57.6900000000000        -2.809745638726193E-020
  -57.5000000000000        -3.044093249415016E-020
  -57.3100000000000        -2.187782752671249E-020
  -57.1200000000000        -3.826077349130996E-021
  -56.9300000000000         1.937794817508694E-020
  -56.7400000000000         4.157494133832081E-020
  -56.5500000000000         5.649660783408819E-020
  -56.3600000000000         5.962663133105320E-020
  -56.1700000000000         4.965408853931454E-020
  -55.9800000000000         2.903603471309680E-020
  -55.7900000000000         3.417673557675667E-021
  -55.6000000000000        -1.998654668344433E-020
  -55.4100000000000        -3.457787549396324E-020
  -55.2200000000000        -3.641908050838493E-020
  -55.0300000000000        -2.545244572386280E-020
  -54.8400000000000        -5.472755016983717E-021
  -54.6500000000000         1.713251901757345E-020
  -54.4600000000000         3.543759868869107E-020
  -54.2700000000000         4.413069945828231E-020
  -54.0800000000000         4.106814090710454E-020
  -53.8900000000000         2.777106497289006E-020
  -53.7000000000000         8.771715353417120E-021
  -53.5100000000000        -9.919371489986899E-021
  -53.3200000000000        -2.270538075499387E-020
  -53.1300000000000        -2.606926909178736E-020
  -52.9400000000000        -1.954192704319745E-020
  -52.7500000000000        -5.729354011224878E-021
  -52.5600000000000         1.057224963936109E-020
  -52.3700000000000         2.388902042069092E-020
  -52.1800000000000         2.974777327968202E-020
  -51.9900000000000         2.601627895478958E-020
  -51.8000000000000         1.351021466921257E-020
  -51.6100000000000        -4.306221852762693E-021
  -51.4200000000000        -2.242593501151132E-020
  -51.2300000000000        -3.585911030951553E-020
  -51.0400000000000        -4.114566027671936E-020
  -50.8500000000000        -3.732926891848737E-020
  -50.6600000000000        -2.608331432786601E-020
  -50.4700000000000        -1.097464619454836E-020
  -50.2800000000000         3.839131411551367E-021
  -50.0900000000000         1.498247291649366E-020
  -49.9000000000000         2.080951020899331E-020
  -49.7100000000000         2.163221270558861E-020
  -49.5200000000000         1.923370213948900E-020
  -49.3300000000000         1.593590978324490E-020
  -49.1400000000000         1.362596433388278E-020
  -48.9500000000000         1.311257287474018E-020
  -48.7600000000000         1.400604693949039E-020
  -48.5700000000000         1.508310478215267E-020
  -48.3800000000000         1.492231568775743E-020
  -48.1900000000000         1.254015002692484E-020
  -48.0000000000000         7.808171225542178E-021
  -47.8100000000000         1.538064205236570E-021
  -47.6200000000000        -4.765435042009556E-021
  -47.4300000000000        -9.392572784739946E-021
  -47.2400000000000        -1.100469641260823E-020
  -47.0500000000000        -9.112606287996105E-021
  -46.8600000000000        -4.284160603183544E-021
  -46.6700000000000         2.010029278917481E-021
  -46.4800000000000         7.870828941648193E-021
  -46.2900000000000         1.160187779641517E-020
  -46.1000000000000         1.227991888093423E-020
  -45.9100000000000         1.006467357517308E-020
  -45.7200000000000         6.128840723420106E-021
  -45.5300000000000         2.217884790206553E-021
  -45.3400000000000        -6.678709522088271E-024
  -45.1500000000000         4.098170814941082E-022
  -44.9600000000000         3.372707037099062E-021
  -44.7700000000000         7.811559190306040E-021
  -44.5800000000000         1.213071894974011E-020
  -44.3900000000000         1.483843331689307E-020
  -44.2000000000000         1.509101983199272E-020
  -44.0100000000000         1.294417462159076E-020
  -43.8200000000000         9.238810764600507E-021
  -43.6300000000000         5.198197241249269E-021
  -43.4400000000000         1.925099888628717E-021
  -43.2500000000000         2.018184349228754E-023
  -43.0600000000000        -5.294055714235666E-022
  -42.8700000000000        -1.875150161212111E-022
  -42.6800000000000         4.424377517020000E-022
  -42.4900000000000         9.135044136196482E-022
  -42.3000000000000         1.098939573765460E-021
  -42.1100000000000         1.187123835690554E-021
  -41.9200000000000         1.536614602322215E-021
  -41.7300000000000         2.455168399948330E-021
  -41.5400000000000         3.981671439090314E-021
  -41.3500000000000         5.758948253737987E-021
  -41.1600000000000         7.077151783980226E-021
  -40.9700000000000         7.113609462686484E-021
  -40.7800000000000         5.301003205478796E-021
  -40.5900000000000         1.678220884018565E-021
  -40.4000000000000        -2.931928448403758E-021
  -40.2100000000000        -7.020899537659476E-021
  -40.0200000000000        -8.786342696058009E-021
  -39.8300000000000        -6.734910769173180E-021
  -39.6400000000000        -3.131238825776912E-022
  -39.4500000000000         9.671894183557579E-021
  -39.2600000000000         2.104550290951005E-020
  -39.0700000000000         3.074789475400074E-020
  -38.8800000000000         3.570233015208274E-020
  -38.6900000000000         3.380641469859889E-020
  -38.5000000000000         2.471289673355613E-020
  -38.3100000000000         1.011696082216365E-020
  -38.1200000000000        -6.584255969145341E-021
  -37.9300000000000        -2.119789421602219E-020
  -37.7400000000000        -2.995112467248944E-020
  -37.5500000000000        -3.062930944908122E-020
  -37.3600000000000        -2.325388298693231E-020
  -37.1700000000000        -1.007777600015946E-020
  -36.9800000000000         5.082487589766740E-021
  -36.7900000000000         1.795271341621747E-020
  -36.6000000000000         2.501466273988456E-020
  -36.4100000000000         2.449214018206016E-020
  -36.2200000000000         1.684456179784582E-020
  -36.0300000000000         4.628116558261026E-021
  -35.8400000000000        -8.252310802731247E-021
  -35.6500000000000        -1.770083486629809E-020
  -35.4600000000000        -2.065716512349470E-020
  -35.2700000000000        -1.601319420548651E-020
  -35.0800000000000        -4.939149232295133E-021
  -34.8900000000000         9.469002964406493E-021
  -34.7000000000000         2.310647258284332E-020
  -34.5100000000000         3.206903727503670E-020
  -34.3200000000000         3.379637681859778E-020
  -34.1300000000000         2.780330491610294E-020
  -33.9400000000000         1.578038019420970E-020
  -33.7500000000000         1.049644801372265E-021
  -33.5600000000000        -1.243749883459247E-020
  -33.3700000000000        -2.124352690972894E-020
  -33.1800000000000        -2.338674946996590E-020
  -32.9900000000000        -1.881778210527304E-020
  -32.8000000000000        -9.316911963172819E-021
  -32.6100000000000         2.128563222200469E-021
  -32.4200000000000         1.225807101505277E-020
  -32.2300000000000         1.848479738975635E-020
  -32.0400000000000         1.956878159634293E-020
  -31.8500000000000         1.584478156273448E-020
  -31.6600000000000         8.994826949391587E-021
  -31.4700000000000         1.478428598034229E-021
  -31.2800000000000        -4.209991778097623E-021
  -31.0900000000000        -6.268290540167111E-021
  -30.9000000000000        -4.110611880041171E-021
  -30.7100000000000         1.463654475114805E-021
  -30.5200000000000         8.520012596453576E-021
  -30.3300000000000         1.459591000643937E-020
  -30.1400000000000         1.747939147855941E-020
  -29.9500000000000         1.590932131798422E-020
  -29.7600000000000         9.977686640269220E-021
  -29.5700000000000         1.122232537858675E-021
  -29.3800000000000        -8.275912410898847E-021
  -29.1900000000000        -1.557107663272608E-020
  -29.0000000000000        -1.861656034668233E-020
  -28.8100000000000        -1.639131116752103E-020
  -28.6200000000000        -9.305837666313948E-021
  -28.4300000000000         8.980218431739704E-022
  -28.2400000000000         1.162217197951909E-020
  -28.0500000000000         2.013236256115043E-020
  -27.8600000000000         2.432660582829798E-020
  -27.6700000000000         2.333360761578411E-020
  -27.4800000000000         1.776245641004166E-020
  -27.2900000000000         9.520613897810627E-021
  -27.1000000000000         1.242999858466096E-021
  -26.9100000000000        -4.503627418348609E-021
  -26.7200000000000        -6.001603795919341E-021
  -26.5300000000000        -2.915246575628527E-021
  -26.3400000000000         3.577879494110021E-021
  -26.1500000000000         1.110229183802426E-020
  -25.9600000000000         1.678266793467157E-020
  -25.7700000000000         1.815033733387811E-020
  -25.5800000000000         1.399046531727969E-020
  -25.3900000000000         4.842436036238156E-021
  -25.2000000000000        -7.042381804242640E-021
  -25.0100000000000        -1.830419531376620E-020
  -24.8200000000000        -2.546536785488824E-020
  -24.6300000000000        -2.599863464166832E-020
  -24.4400000000000        -1.913835605690890E-020
  -24.2500000000000        -6.188405294588710E-021
  -24.0600000000000         9.766199289767396E-021
  -23.8700000000000         2.467334353919297E-020
  -23.6800000000000         3.463767884899502E-020
  -23.4900000000000         3.703633899573259E-020
  -23.3000000000000         3.129287443269247E-020
  -23.1100000000000         1.906963554375782E-020
  -22.9200000000000         3.810604405100753E-021
  -22.7300000000000        -1.024205743054461E-020
  -22.5400000000000        -1.927333048718661E-020
  -22.3500000000000        -2.099360907486673E-020
  -22.1600000000000        -1.527383825340217E-020
  -21.9700000000000        -4.129104736130719E-021
  -21.7800000000000         8.931603279247114E-021
  -21.5900000000000         1.997897583449125E-020
  -21.4000000000000         2.582743532571419E-020
  -21.2100000000000         2.494185081659227E-020
  -21.0200000000000         1.783224174730678E-020
  -20.8300000000000         6.838677738938369E-021
  -20.6400000000000        -4.623202269089766E-021
  -20.4500000000000        -1.313342798964273E-020
  -20.2600000000000        -1.632517640635476E-020
  -20.0700000000000        -1.358718851843620E-020
  -19.8800000000000        -6.186973480282261E-021
  -19.6900000000000         3.206492618808383E-021
  -19.5000000000000         1.142138404065717E-020
  -19.3100000000000         1.579821215856348E-020
  -19.1200000000000         1.500050728089076E-020
  -18.9300000000000         9.388350761283283E-021
  -18.7400000000000         8.701503503482638E-022
  -18.5500000000000        -7.703482371007290E-021
  -18.3600000000000        -1.342216997385208E-020
  -18.1700000000000        -1.421516565051995E-020
  -17.9800000000000        -9.494172986968106E-021
  -17.7900000000000        -3.407355732197738E-022
  -17.6000000000000         1.081570640966458E-020
  -17.4100000000000         2.092433732743724E-020
  -17.2200000000000         2.721665717787687E-020
  -17.0300000000000         2.800580532388364E-020
  -16.8400000000000         2.313858624310990E-020
  -16.6500000000000         1.398110552461222E-020
  -16.4600000000000         2.972694190598245E-021
  -16.2700000000000        -7.095846084646097E-021
  -16.0800000000000        -1.386146300586064E-020
  -15.8900000000000        -1.600682380982779E-020
  -15.7000000000000        -1.355669935742194E-020
  -15.5100000000000        -7.789725848729756E-021
  -15.3200000000000        -8.044684260733168E-022
  -15.1300000000000         5.133816530648833E-021
  -14.9400000000000         8.273776046971981E-021
  -14.7500000000000         7.876713401898317E-021
  -14.5600000000000         4.383671117640280E-021
  -14.3700000000000        -7.822413556818239E-022
  -14.1800000000000        -5.696045248414874E-021
  -13.9900000000000        -8.539085749224600E-021
  -13.8000000000000        -8.158560282455869E-021
  -13.6100000000000        -4.425958483405038E-021
  -13.4200000000000         1.698549535033976E-021
  -13.2300000000000         8.416549101470762E-021
  -13.0400000000000         1.360407642414496E-020
  -12.8500000000000         1.545570164719623E-020
  -12.6600000000000         1.306521868187032E-020
  -12.4700000000000         6.748115832680405E-021
  -12.2800000000000        -2.004301155428734E-021
  -12.0900000000000        -1.092127232446835E-020
  -11.9000000000000        -1.757076673572033E-020
  -11.7100000000000        -2.001187037700775E-020
  -11.5200000000000        -1.729885059100839E-020
  -11.3300000000000        -9.716573114607615E-021
  -11.1400000000000         1.289091016669922E-021
  -10.9500000000000         1.345475166962257E-020
  -10.7600000000000         2.423787938771230E-020
  -10.5700000000000         3.142842421651885E-020
  -10.3800000000000         3.368442092154809E-020
  -10.1900000000000         3.085236304366617E-020
  -10.0000000000000         2.398149108314293E-020
  -9.81000000000000         1.501600072733878E-020
  -9.62000000000000         6.243411439868738E-021
  -9.42999999999999        -3.349912771252501E-022
  -9.23999999999999        -3.515768566632887E-021
  -9.05000000000000        -3.142479644746009E-021
  -8.86000000000000        -4.495597872619219E-023
  -8.67000000000000         4.286588327334072E-021
  -8.48000000000000         8.182782617541553E-021
  -8.28999999999999         1.028978847149849E-020
  -8.09999999999999         9.942203169597639E-021
  -7.91000000000000         7.317886882414695E-021
  -7.72000000000000         3.336638603925433E-021
  -7.53000000000000        -6.612714678571357E-022
  -7.34000000000000        -3.344999699710756E-021
  -7.15000000000001        -3.786468833201055E-021
  -6.95999999999999        -1.709200996565570E-021
  -6.77000000000000         2.443731818376182E-021
  -6.58000000000000         7.610487830512645E-021
  -6.39000000000000         1.235198664575323E-020
  -6.20000000000000         1.519453483150288E-020
  -6.01000000000001         1.501228879050669E-020
  -5.81999999999999         1.136430076034589E-020
  -5.63000000000000         4.686296892949302E-021
  -5.44000000000000        -3.747566120436358E-021
  -5.25000000000000        -1.211422287358204E-020
  -5.06000000000000        -1.851130539521066E-020
  -4.87000000000000        -2.146669754878595E-020
  -4.67999999999999        -2.033472694369878E-020
  -4.48999999999999        -1.546317612691140E-020
  -4.30000000000000        -8.089507965322920E-021
  -4.11000000000000        -1.388070540971375E-023
  -3.92000000000000         6.843814163469844E-021
  -3.73000000000000         1.089513702327941E-020
  -3.53999999999999         1.126403302056889E-020
  -3.34999999999999         8.030407694380066E-021
  -3.16000000000000         2.266398672375239E-021
  -2.97000000000000        -4.180959459104343E-021
  -2.78000000000000        -9.143323451979529E-021
  -2.59000000000000        -1.072425348595257E-020
  -2.40000000000001        -7.872799224468038E-021
  -2.20999999999999        -7.619125490695478E-022
  -2.02000000000000         9.156920369948105E-021
  -1.83000000000000         1.946097566483167E-020
  -1.64000000000000         2.737017159616704E-020
  -1.45000000000000         3.052985431867379E-020
  -1.26000000000001         2.775099613719993E-020
  -1.06999999999999         1.946371350872808E-020
 -0.879999999999995         7.700403511923418E-021
 -0.689999999999998        -4.425437072260376E-021
 -0.500000000000000        -1.360678433588144E-020
 -0.310000000000002        -1.733192913372825E-020
 -0.120000000000005        -1.466390000458554E-020
  7.000000000000739E-002   -6.556787983008659E-021
  0.260000000000005         4.395509217432839E-021
  0.450000000000003         1.470225968377768E-020
  0.640000000000001         2.099405953457229E-020
  0.829999999999998         2.102948718285101E-020
   1.02000000000000         1.440645168452379E-020
   1.21000000000001         2.769497886786355E-021
   1.40000000000001        -1.056657392711999E-020
   1.59000000000000        -2.150886627004904E-020
   1.78000000000000        -2.638184760695834E-020
   1.97000000000000        -2.308969637268330E-020
   2.16000000000000        -1.186351118967957E-020
   2.34999999999999         4.688714727290967E-021
   2.54000000000001         2.228034501099786E-020
   2.73000000000000         3.618550816001650E-020
   2.92000000000000         4.263296925371966E-020
   3.11000000000000         3.991772443163462E-020
   3.30000000000000         2.888328652028386E-020
   3.48999999999999         1.262982475399900E-020
   3.68000000000001        -4.453586996590578E-021
   3.87000000000000        -1.802973835844091E-020
   4.06000000000000        -2.510721887225461E-020
   4.25000000000000        -2.487192228008252E-020
   4.44000000000000        -1.878840690799351E-020
   4.63000000000000        -9.957882765446084E-021
   4.82000000000001        -1.974834540362147E-021
   5.01000000000001         2.318816816862062E-021
   5.20000000000000         1.762899424280944E-021
   5.39000000000000        -2.811365389493102E-021
   5.58000000000000        -8.970572843297083E-021
   5.77000000000000        -1.359995782787071E-020
   5.96000000000001        -1.402607110524654E-020
   6.15000000000001        -8.978116503794142E-021
   6.34000000000000         9.074783716930795E-022
   6.53000000000000         1.320097490057904E-020