  -105.000000000000         0.000000000000000E+000
  -104.810000000000        -3.291821626615926E-020
  -104.620000000000        -7.347013207760329E-020
  -104.430000000000        -9.500048650572448E-020
  -104.240000000000        -9.377596257973713E-020
  -104.050000000000        -9.111738460277237E-020
  -103.860000000000        -1.115842139265983E-019
  -103.670000000000        -1.582429882521935E-019
  -103.480000000000        -2.087585343010563E-019
  -103.290000000000        -2.361039588550765E-019
  -103.100000000000        -2.341149349648329E-019
  -102.910000000000        -2.234215319929253E-019
  -102.720000000000        -2.319997794601331E-019
  -102.530000000000        -2.688267210635022E-019
  -102.340000000000        -3.157035117833250E-019
  -102.150000000000        -3.449579046586595E-019
  -101.960000000000        -3.460637596918632E-019
  -101.770000000000        -3.357565395182547E-019
  -101.580000000000        -3.420038319003733E-019
  -101.390000000000        -3.771581983426754E-019
  -101.200000000000        -4.259717175099255E-019
  -101.010000000000        -4.599712363816955E-019
  -100.820000000000        -4.644878909384579E-019
  -100.630000000000        -4.525157450280300E-019
  -100.440000000000        -4.521563749983405E-019
  -100.250000000000        -4.796448385803892E-019
  -100.060000000000        -5.237235286846388E-019
  -99.8700000000000        -5.563101796926981E-019
  -99.6800000000000        -5.593205205732752E-019
  -99.4900000000000        -5.420573944433359E-019
  -99.3000000000000        -5.325257439093581E-019
  -99.1100000000000        -5.508995648920513E-019
  -98.9200000000000        -5.904203509205718E-019
  -98.7300000000000        -6.239232086891094E-019
  -98.5400000000000        -6.297378193181293E-019
  -98.3500000000000        -6.122698430141431E-019
  -98.1600000000000        -5.976994830384188E-019
  -97.9700000000000        -6.089787194247722E-019
  -97.7800000000000        -6.440207899312259E-019
  -97.5900000000000        -6.778877357315005E-019
  -97.4000000000000        -6.868353638378005E-019
  -97.2100000000000        -6.711669929478522E-019
  -97.0200000000000        -6.549812619199537E-019
  -96.8300000000000        -6.630073142044187E-019
  -96.6400000000000        -6.966438208810542E-019
  -96.4500000000000        -7.321050813533609E-019
  -96.2600000000000        -7.425163718094611E-019
  -96.0700000000000        -7.229966845326207E-019
  -95.8800000000000        -6.949335042682657E-019
  -95.6900000000000        -6.854898604258078E-019
  -95.5000000000000        -7.019940979561120E-019
  -95.3100000000000        -7.256964682604985E-019
  -95.1200000000000        -7.307808097504133E-019
  -94.9300000000000        -7.102872555936512E-019
  -94.7400000000000        -6.839452285267408E-019
  -94.5500000000000        -6.801975068356400E-019
  -94.3600000000000        -7.093882708670870E-019
  -94.1700000000000        -7.536271749923301E-019
  -93.9800000000000        -7.830680172490688E-019
  -93.7900000000000        -7.832392717294561E-019
  -93.6000000000000        -7.675514792408673E-019
  -93.4100000000000        -7.632550375965108E-019
  -93.2200000000000        -7.844480281083263E-019
  -93.0300000000000        -8.180305502707132E-019
  -92.8400000000000        -8.360440955903648E-019
  -92.6500000000000        -8.225835860575932E-019
  -92.4600000000000        -7.895413453130685E-019
  -92.2700000000000        -7.660779494206003E-019
  -92.0800000000000        -7.717561526039863E-019
  -91.8900000000000        -7.988599482386339E-019
  -91.7000000000000        -8.206671879557011E-019
  -91.5100000000000        -8.176729915206853E-019
  -91.3200000000000        -7.966403542513470E-019
  -91.1300000000000        -7.842563434135282E-019
  -90.9400000000000        -8.014678033452679E-019
  -90.7500000000000        -8.430276051552098E-019
  -90.5600000000000        -8.818183036651398E-019
  -90.3700000000000        -8.939049151662043E-019
  -90.1800000000000        -8.805087411172205E-019
  -89.9900000000000        -8.660325509874636E-019
  -89.8000000000000        -8.741361380271940E-019
  -89.6100000000000        -9.048262090423055E-019
  -89.4200000000000        -9.345098428737649E-019
  -89.2300000000000        -9.389319141285967E-019
  -89.0400000000000        -9.169780957664350E-019
  -88.8500000000000        -8.924567728567515E-019
  -88.6600000000000        -8.919858927455367E-019
  -88.4700000000000        -9.199561387559864E-019
  -88.2800000000000        -9.544299135799898E-019
  -88.0900000000000        -9.679565538416051E-019
  -87.9000000000000        -9.535478454739545E-019
  -87.7100000000000        -9.311355434587038E-019
  -87.5200000000000        -9.284548706045909E-019
  -87.3300000000000        -9.546617642792849E-019
  -87.1400000000000        -9.918301435366514E-019
  -86.9500000000000        -1.012329336898853E-018
  -86.7600000000000        -1.005366854003793E-018
  -86.5700000000000        -9.872558831081977E-019
  -86.3800000000000        -9.855359346533671E-019
  -86.1900000000000        -1.012106411779906E-018
  -86.0000000000000        -1.051121182706898E-018
  -85.8100000000000        -1.073363596293399E-018
  -85.6200000000000        -1.063550010910103E-018
  -85.4300000000000        -1.034655321556170E-018
  -85.2400000000000        -1.015701634020412E-018
  -85.0500000000000        -1.024682433792864E-018
  -84.8600000000000        -1.052362776630139E-018
  -84.6700000000000        -1.072238214583672E-018
  -84.4800000000000        -1.066931746288228E-018
  -84.2900000000000        -1.045605756901194E-018
  -84.1000000000000        -1.035590108258162E-018
  -83.9100000000000        -1.056163137351759E-018
  -83.7200000000000        -1.099585810400343E-018
  -83.5300000000000        -1.137632599404552E-018
  -83.3400000000000        -1.147550314080943E-018
  -83.1500000000000        -1.132836429804576E-018
  -82.9600000000000        -1.119132788134177E-018
  -82.7700000000000        -1.129209445836356E-018
  -82.5800000000000        -1.160927654469214E-018
  -82.3900000000000        -1.189221745513887E-018
  -82.2000000000000        -1.190199877324462E-018
  -82.0100000000000        -1.164329410697570E-018
  -81.8200000000000        -1.136550252158299E-018
  -81.6300000000000        -1.133182632523874E-018
  -81.4400000000000        -1.157595737514982E-018
  -81.2500000000000        -1.187722954589290E-018
  -81.0600000000000        -1.197647158967939E-018
  -80.8700000000000        -1.182541042511674E-018
  -80.6800000000000        -1.163093665313899E-018
  -80.4900000000000        -1.165210270451529E-018
  -80.3000000000000        -1.194475897347974E-018
  -80.1100000000000        -1.229936676135610E-018
  -79.9200000000000        -1.243313226299046E-018
  -79.7300000000000        -1.225465645376991E-018
  -79.5400000000000        -1.194987737329751E-018
  -79.3500000000000        -1.180802349553485E-018
  -79.1600000000000        -1.195337334507058E-018
  -78.9700000000000        -1.223756183706750E-018
  -78.7800000000000        -1.239325530454231E-018
  -78.5900000000000        -1.229997687014896E-018
  -78.4000000000000        -1.210577767872795E-018
  -78.2100000000000        -1.208708673910886E-018
  -78.0200000000000        -1.238065976583864E-018
  -77.8300000000000        -1.284496991813417E-018
  -77.6400000000000        -1.318551573600446E-018
  -77.4500000000000        -1.322672913134705E-018
  -77.2600000000000        -1.307261104990189E-018
  -77.0700000000000        -1.300320293304443E-018
  -76.8800000000000        -1.320514563652819E-018
  -76.6900000000000        -1.359264434939934E-018
  -76.5000000000000        -1.388887206078311E-018
  -76.3100000000000        -1.388932719457310E-018
  -76.1200000000000        -1.365545593344256E-018
  -75.9300000000000        -1.345417183955777E-018
  -75.7400000000000        -1.350180539361994E-018
  -75.5500000000000        -1.375752736539093E-018
  -75.3600000000000        -1.396390531393748E-018
  -75.1700000000000        -1.389624486324914E-018
  -74.9800000000000        -1.358263393500047E-018
  -74.7900000000000        -1.328398008347793E-018
  -74.6000000000000        -1.325215169472642E-018
  -74.4100000000000        -1.349608198543317E-018
  -74.2200000000000        -1.377803026411437E-018
  -74.0300000000000        -1.384278509709056E-018
  -73.8400000000000        -1.366104228071081E-018
  -73.6500000000000        -1.345534121214347E-018
  -73.4600000000000        -1.348460157643357E-018
  -73.2700000000000        -1.379361632360749E-018
  -73.0800000000000        -1.416722280753759E-018
  -72.8900000000000        -1.433311108419722E-018
  -72.7000000000000        -1.421930109265209E-018
  -72.5100000000000        -1.402005619655860E-018
  -72.3200000000000        -1.400740314054797E-018
  -72.1300000000000        -1.426875141334651E-018
  -71.9400000000000        -1.462176463317632E-018
  -71.7500000000000        -1.478839814793112E-018
  -71.5600000000000        -1.466234750077524E-018
  -71.3700000000000        -1.441429865018354E-018
  -71.1800000000000        -1.433355302427141E-018
  -70.9900000000000        -1.455610061125099E-018
  -70.8000000000000        -1.493765767506055E-018
  -70.6100000000000        -1.519178556149988E-018
  -70.4200000000000        -1.516055677529549E-018
  -70.2300000000000        -1.495975202365823E-018
  -70.0400000000000        -1.486132839781285E-018
  -69.8500000000000        -1.502702866302493E-018
  -69.6600000000000        -1.534904202303390E-018
  -69.4700000000000        -1.555119204987370E-018
  -69.2800000000000        -1.545470271316210E-018
  -69.0900000000000        -1.515439211934712E-018
  -68.9000000000000        -1.493585718246153E-018
  -68.7100000000000        -1.501117984312085E-018
  -68.5200000000000        -1.532384466198551E-018
  -68.3300000000000        -1.560768199023221E-018
  -68.1400000000000        -1.564284795414208E-018
  -67.9500000000000        -1.546453167191259E-018
  -67.7600000000000        -1.532558581458940E-018
  -67.5700000000000        -1.544947653090821E-018
  -67.3800000000000        -1.581061529062167E-018
  -67.1900000000000        -1.615315773192373E-018
  -67.0000000000000        -1.623110419177112E-018
  -66.8100000000000        -1.604049696523421E-018
  -66.6200000000000        -1.582173720156519E-018
  -66.4300000000000        -1.582945693049440E-018
  -66.2400000000000        -1.608929052662805E-018
  -66.0500000000000        -1.637368231748825E-018
  -65.8600000000000        -1.642023544460144E-018
  -65.6700000000000        -1.618466413836910E-018
  -65.4800000000000        -1.588703801769216E-018
  -65.2900000000000        -1.580697706313760E-018
  -65.1000000000000        -1.602272245373521E-018
  -64.9100000000000        -1.634199690978333E-018
  -64.7200000000000        -1.648922361280223E-018
  -64.5300000000000        -1.636955448955125E-018
  -64.3400000000000        -1.615778133214197E-018
  -64.1500000000000        -1.612785763619050E-018
  -63.9600000000000        -1.638651526161483E-018
  -63.7700000000000        -1.676621502313084E-018
  -63.5800000000000        -1.698059216616418E-018
  -63.3900000000000        -1.689458682538284E-018
  -63.2000000000000        -1.665158438714875E-018
  -63.0100000000000        -1.653627306520603E-018
  -62.8200000000000        -1.670401102424899E-018
  -62.6300000000000        -1.703454643935314E-018
  -62.4400000000000        -1.724908003759194E-018
  -62.2500000000000        -1.717839012971820E-018
  -62.0600000000000        -1.692558847336109E-018
  -61.8700000000000        -1.676785057631763E-018
  -61.6800000000000        -1.689131201210443E-018
  -61.4900000000000        -1.721318807653522E-018
  -61.3000000000000        -1.746165811101839E-018
  -61.1100000000000        -1.743717639452570E-018
  -60.9200000000000        -1.720514647728325E-018
  -60.7300000000000        -1.703527577646953E-018
  -60.5400000000000        -1.714472511662447E-018
  -60.3500000000000        -1.748974673870821E-018
  -60.1600000000000        -1.780490157732974E-018
  -59.9700000000000        -1.785316518047082E-018
  -59.7800000000000        -1.764900839474102E-018
  -59.5900000000000        -1.744226483747654E-018
  -59.4000000000000        -1.747880561991850E-018
  -59.2100000000000        -1.776657809600246E-018
  -59.0200000000000        -1.806978729168616E-018
  -58.8300000000000        -1.813609225519605E-018
  -58.6400000000000        -1.793956728807803E-018
  -58.4500000000000        -1.770720885295776E-018
  -58.2600000000000        -1.770328684767398E-018
  -58.0700000000000        -1.797723569367681E-018
  -57.8800000000000        -1.831600101413922E-018
  -57.6900000000000        -1.844664434864461E-018
  -57.5000000000000        -1.829596497979201E-018
  -57.3100000000000        -1.805951495541001E-018
  -57.1200000000000        -1.801436034122788E-018
  -56.9300000000000        -1.825429996823275E-018
  -56.7400000000000        -1.860005593760086E-018
  -56.5500000000000        -1.876995043710730E-018
  -56.3600000000000        -1.864788567071097E-018
  -56.1700000000000        -1.839249780732067E-018
  -55.9800000000000        -1.828339736609110E-018
  -55.7900000000000        -1.845212050782329E-018
  -55.6000000000000        -1.875565718537678E-018
  -55.4100000000000        -1.891381090268017E-018
  -55.2200000000000        -1.877925500943417E-018
  -55.0300000000000        -1.848211911768182E-018
  -54.8400000000000        -1.831023510364473E-018
  -54.6500000000000        -1.843814000627614E-018
  -54.4600000000000        -1.876253416736892E-018
  -54.2700000000000        -1.900088548650349E-018
  -54.0800000000000        -1.895919292405956E-018
  -53.8900000000000        -1.871392960226391E-018
  -53.7000000000000        -1.853561387580519E-018
  -53.5100000000000        -1.862813471241581E-018
  -53.3200000000000        -1.893326784388745E-018
  -53.1300000000000        -1.918706039464513E-018
  -52.9400000000000        -1.917416658779439E-018
  -52.7500000000000        -1.893700723040111E-018
  -52.5600000000000        -1.873932049284041E-018
  -52.3700000000000        -1.881805557205245E-018
  -52.1800000000000        -1.915992709248182E-018
  -51.9900000000000        -1.951553696254193E-018
  -51.8000000000000        -1.963710932428407E-018
  -51.6100000000000        -1.951266453512589E-018
  -51.4200000000000        -1.937338248946293E-018
  -51.2300000000000        -1.946774222226359E-018
  -51.0400000000000        -1.981877804550854E-018
  -50.8500000000000        -2.019699957451902E-018
  -50.6600000000000        -2.033541832664313E-018
  -50.4700000000000        -2.018137964518838E-018
  -50.2800000000000        -1.994443491233584E-018
  -50.0900000000000        -1.989454739298618E-018
  -49.9000000000000        -2.010367969753656E-018
  -49.7100000000000        -2.037783098892159E-018
  -49.5200000000000        -2.044461912027444E-018
  -49.3300000000000        -2.021742409893250E-018
  -49.1400000000000        -1.988356304494946E-018
  -48.9500000000000        -1.973127033215070E-018
  -48.7600000000000        -1.987940323100017E-018
  -48.5700000000000        -2.016708614308138E-018
  -48.3800000000000        -2.030838034044832E-018
  -48.1900000000000        -2.016459858271242E-018
  -48.0000000000000        -1.987519465042919E-018
  -47.8100000000000        -1.972345053861818E-018
  -47.6200000000000        -1.986592184827047E-018
  -47.4300000000000        -2.018402029364699E-018
  -47.2400000000000        -2.039925807182222E-018
  -47.0500000000000        -2.034183559488604E-018
  -46.8600000000000        -2.011550552520919E-018
  -46.6700000000000        -2.000047757964503E-018
  -46.4800000000000        -2.018644564559135E-018
  -46.2900000000000        -2.059019209436265E-018
  -46.1000000000000        -2.093146389736617E-018
  -45.9100000000000        -2.099455129647770E-018
  -45.7200000000000        -2.082647662369494E-018
  -45.5300000000000        -2.068385873090272E-018
  -45.3400000000000        -2.078068505965923E-018
  -45.1500000000000        -2.107928472083897E-018
  -44.9600000000000        -2.132511626577728E-018
  -44.7700000000000        -2.129213269411719E-018
  -44.5800000000000        -2.100336177059972E-018
  -44.3900000000000        -2.071472578582016E-018
  -44.2000000000000        -2.067649265153951E-018
  -44.0100000000000        -2.089936050544106E-018
  -43.8200000000000        -2.114809108456306E-018
  -43.6300000000000        -2.116888043084215E-018
  -43.4400000000000        -2.093374315391595E-018
  -43.2500000000000        -2.066866092133899E-018
  -43.0600000000000        -2.063844939923939E-018
  -42.8700000000000        -2.089373402022205E-018
  -42.6800000000000        -2.122179527489325E-018
  -42.4900000000000        -2.134842220583598E-018
  -42.3000000000000        -2.119840249983260E-018
  -42.1100000000000        -2.096643151401546E-018
  -41.9200000000000        -2.093090142628754E-018
  -41.7300000000000        -2.118798961977959E-018
  -41.5400000000000        -2.155950301830223E-018
  -41.3500000000000        -2.176233981615804E-018
  -41.1600000000000        -2.167773356533729E-018
  -40.9700000000000        -2.146315472296165E-018
  -40.7800000000000        -2.140020940250639E-018
  -40.5900000000000        -2.162412037595235E-018
  -40.4000000000000        -2.199319731537701E-018
  -40.2100000000000        -2.222279674729774E-018
  -40.0200000000000        -2.215589494650055E-018
  -39.8300000000000        -2.191216988603715E-018
  -39.6400000000000        -2.177346684126569E-018
  -39.4500000000000        -2.191524931834597E-018
  -39.2600000000000        -2.224074018115640E-018
  -39.0700000000000        -2.247600053359080E-018
  -38.8800000000000        -2.243433579722497E-018
  -38.6900000000000        -2.219649703010996E-018
  -38.5000000000000        -2.203388070442095E-018
  -38.3100000000000        -2.214770033953036E-018
  -38.1200000000000        -2.247321457261219E-018
  -37.9300000000000        -2.273669389320981E-018
  -37.7400000000000        -2.271212539280417E-018
  -37.5500000000000        -2.243387875802311E-018
  -37.3600000000000        -2.216306229096674E-018
  -37.1700000000000        -2.213999051605900E-018
  -36.9800000000000        -2.235891051530786E-018
  -36.7900000000000        -2.257927137826836E-018
  -36.6000000000000        -2.256168551691745E-018
  -36.4100000000000        -2.230237532178900E-018
  -36.2200000000000        -2.204143201411924E-018
  -36.0300000000000        -2.203601933930314E-018
  -35.8400000000000        -2.231427851602891E-018
  -35.6500000000000        -2.264481851924343E-018
  -35.4600000000000        -2.275148763547646E-018
  -35.2700000000000        -2.256938342096542E-018
  -35.0800000000000        -2.229925690672390E-018
  -34.8900000000000        -2.221035522404890E-018
  -34.7000000000000        -2.238149779822628E-018
  -34.5100000000000        -2.262806070642612E-018
  -34.3200000000000        -2.268402833346320E-018
  -34.1300000000000        -2.246401280564245E-018
  -33.9400000000000        -2.215330372842712E-018
  -33.7500000000000        -2.203831094538770E-018
  -33.5600000000000        -2.223839505093884E-018
  -33.3700000000000        -2.259490612867922E-018
  -33.1800000000000        -2.282326676226592E-018
  -32.9900000000000        -2.278283121413905E-018
  -32.8000000000000        -2.260713361948987E-018
  -32.6100000000000        -2.257068478022813E-018
  -32.4200000000000        -2.282007638787577E-018
  -32.2300000000000        -2.322700249097386E-018
  -32.0400000000000        -2.350480006884549E-018
  -31.8500000000000        -2.347831580221627E-018
  -31.6600000000000        -2.324973883904042E-018
  -31.4700000000000        -2.310170849143673E-018
  -31.2800000000000        -2.322952958388498E-018
  -31.0900000000000        -2.355731439294646E-018
  -30.9000000000000        -2.381288657324978E-018
  -30.7100000000000        -2.378980154005003E-018
  -30.5200000000000        -2.354655227439020E-018
  -30.3300000000000        -2.335268993350011E-018
  -30.1400000000000        -2.343278093238976E-018
  -29.9500000000000        -2.375215108479192E-018
  -29.7600000000000        -2.404869778903045E-018
  -29.5700000000000        -2.408034378394493E-018
  -29.3800000000000        -2.385237071316227E-018
  -29.1900000000000        -2.360881963280107E-018
  -29.0000000000000        -2.359751745576630E-018
  -28.8100000000000        -2.383369396396229E-018
  -28.6200000000000        -2.408762825981205E-018
  -28.4300000000000        -2.410728964837057E-018
  -28.2400000000000        -2.386221824407690E-018
  -28.0500000000000        -2.357470073882933E-018
  -27.8600000000000        -2.350813636676819E-018
  -27.6700000000000        -2.371514587151106E-018
  -27.4800000000000        -2.398662345861262E-018
  -27.2900000000000        -2.405093403438109E-018
  -27.1000000000000        -2.383363707824761E-018
  -26.9100000000000        -2.353024730014224E-018
  -26.7200000000000        -2.342259980294666E-018
  -26.5300000000000        -2.361380927735992E-018
  -26.3400000000000        -2.393448408115206E-018
  -26.1500000000000        -2.410912043328912E-018
  -25.9600000000000        -2.402262574842751E-018
  -25.7700000000000        -2.383107934979371E-018
  -25.5800000000000        -2.381000103849393E-018
  -25.3900000000000        -2.408477958217803E-018
  -25.2000000000000        -2.450131542077880E-018
  -25.0100000000000        -2.476213293178674E-018
  -24.8200000000000        -2.470046560370042E-018
  -24.6300000000000        -2.443274861978862E-018
  -24.4400000000000        -2.424497526626992E-018
  -24.2500000000000        -2.432146170908159E-018
  -24.0600000000000        -2.457418157669879E-018
  -23.8700000000000        -2.473400647185353E-018
  -23.6800000000000        -2.461487139549158E-018
  -23.4900000000000        -2.429739826468260E-018
  -23.3000000000000        -2.405624123076907E-018
  -23.1100000000000        -2.410049531554036E-018
  -22.9200000000000        -2.437516904102036E-018
  -22.7300000000000        -2.461364773611146E-018
  -22.5400000000000        -2.459144051916474E-018
  -22.3500000000000        -2.433912176194027E-018
  -22.1600000000000        -2.411140483493946E-018
  -21.9700000000000        -2.414238705721541E-018
  -21.7800000000000        -2.442106224582249E-018
  -21.5900000000000        -2.470148387343728E-018
  -21.4000000000000        -2.473786347178901E-018
  -21.2100000000000        -2.452024244240919E-018
  -21.0200000000000        -2.428564468665149E-018
  -20.8300000000000        -2.429375001452022E-018
  -20.6400000000000        -2.458110796099208E-018
  -20.4500000000000        -2.492853955169982E-018
  -20.2600000000000        -2.507246479584695E-018
  -20.0700000000000        -2.495753779788734E-018
  -19.8800000000000        -2.478851673489034E-018
  -19.6900000000000        -2.483125802533350E-018
  -19.5000000000000        -2.515266422206446E-018
  -19.3100000000000        -2.554850959889392E-018
  -19.1200000000000        -2.572968074455514E-018
  -18.9300000000000        -2.559100696572887E-018
  -18.7400000000000        -2.530754053005062E-018
  -18.5500000000000        -2.516717075785851E-018
  -18.3600000000000        -2.529938400248714E-018
  -18.1700000000000        -2.555805241959095E-018
  -17.9800000000000        -2.566821876405577E-018
  -17.7900000000000        -2.549492276043171E-018
  -17.6000000000000        -2.517645783830723E-018
  -17.4100000000000        -2.499466275290135E-018
  -17.2200000000000        -2.510647155658435E-018
  -17.0300000000000        -2.539390902623333E-018
  -16.8400000000000        -2.557675082974977E-018
  -16.6500000000000        -2.548082298291419E-018
  -16.4600000000000        -2.520579997806589E-018
  -16.2700000000000        -2.503208976639667E-018
  -16.0800000000000        -2.515520515890939E-018
  -15.8900000000000        -2.550029822953130E-018
  -15.7000000000000        -2.579300676555387E-018
  -15.5100000000000        -2.581858172443340E-018
  -15.3200000000000        -2.562199089390068E-018
  -15.1300000000000        -2.545842286362603E-018
  -14.9400000000000        -2.554259638463923E-018
  -14.7500000000000        -2.583803137698555E-018
  -14.5600000000000        -2.608913080579738E-018
  -14.3700000000000        -2.606616593711288E-018
  -14.1800000000000        -2.578895505749250E-018
  -13.9900000000000        -2.551446295763371E-018
  -13.8000000000000        -2.549821151572483E-018
  -13.6100000000000        -2.575531126687187E-018
  -13.4200000000000        -2.604819520487872E-018
  -13.2300000000000        -2.611283627123195E-018
  -13.0400000000000        -2.590826227539512E-018
  -12.8500000000000        -2.565237595019891E-018
  -12.6600000000000        -2.561128400581264E-018
  -12.4700000000000        -2.584413357864469E-018
  -12.2800000000000        -2.614686805064658E-018
  -12.0900000000000        -2.624776222268456E-018
  -11.9000000000000        -2.606732280416096E-018
  -11.7100000000000        -2.579396845255361E-018
  -11.5200000000000        -2.570301767672630E-018
  -11.3300000000000        -2.589204512187321E-018
  -11.1400000000000        -2.618598372579350E-018
  -10.9500000000000        -2.630330139499056E-018
  -10.7600000000000        -2.612509251340701E-018
  -10.5700000000000        -2.581058244736607E-018
  -10.3800000000000        -2.564892859018809E-018
  -10.1900000000000        -2.578826823332426E-018
  -10.0000000000000        -2.609954369880685E-018
  -9.81000000000000        -2.630388494780045E-018
  -9.62000000000000        -2.624084619125484E-018
  -9.42999999999999        -2.602052926772436E-018
  -9.23999999999999        -2.591425713216894E-018
  -9.05000000000000        -2.608934442391429E-018
  -8.86000000000000        -2.644315691559417E-018
  -8.67000000000000        -2.669668635064429E-018
  -8.48000000000000        -2.665939768539138E-018
  -8.28999999999999        -2.641267234066319E-018
  -8.09999999999999        -2.623577090579386E-018
  -7.91000000000000        -2.634325120338546E-018
  -7.72000000000000        -2.668291001317383E-018
  -7.53000000000000        -2.698630080898101E-018
  -7.34000000000000        -2.702347263179748E-018
  -7.15000000000001        -2.681928404357283E-018
  -6.95999999999999        -2.662604289411657E-018
  -6.77000000000000        -2.668001706540097E-018
  -6.58000000000000        -2.697498809368245E-018
  -6.39000000000000        -2.726888199017543E-018
  -6.20000000000000        -2.731659123788163E-018
  -6.01000000000001        -2.710592718376344E-018
  -5.81999999999999        -2.687039807004187E-018
  -5.63000000000000        -2.686575588645451E-018
  -5.44000000000000        -2.712350501265745E-018
  -5.25000000000000        -2.741723360002358E-018
  -5.06000000000000        -2.747485645896063E-018
  -4.87000000000000        -2.723547097917361E-018
  -4.67999999999999        -2.690702381267698E-018
  -4.48999999999999        -2.677045479339051E-018
  -4.30000000000000        -2.691690383285576E-018
  -4.11000000000000        -2.716766368790457E-018
  -3.92000000000000        -2.725160426339925E-018
  -3.73000000000000        -2.706865127522933E-018
  -3.53999999999999        -2.678609406156068E-018
  -3.34999999999999        -2.667543183162000E-018
  -3.16000000000000        -2.684668407251335E-018
  -2.97000000000000        -2.713579026437394E-018
  -2.78000000000000        -2.725475325955734E-018
  -2.59000000000000        -2.706310875793480E-018
  -2.40000000000001        -2.670259019665124E-018
  -2.20999999999999        -2.646611786464219E-018
  -2.02000000000000        -2.652487439806769E-018
  -1.83000000000000        -2.677233953372027E-018
  -1.64000000000000        -2.693241976708107E-018
  -1.45000000000000        -2.682698375177022E-018
  -1.26000000000001        -2.654692756690871E-018
  -1.06999999999999        -2.636415301062138E-018
 -0.879999999999995        -2.646966923395492E-018
 -0.689999999999998        -2.678891871231240E-018
 -0.500000000000000        -2.705152746716626E-018
 -0.310000000000002        -2.704937701296358E-018
 -0.120000000000005        -2.683625336712205E-018
  7.000000000000739E-002   -2.667742084092168E-018
  0.260000000000005        -2.679626474570137E-018
  0.450000000000003        -2.715931577788814E-018
  0.640000000000001        -2.750473870803638E-018
  0.829999999999998        -2.758752276561981E-018
   1.02000000000000        -2.740839922679765E-018
   1.21000000000001        -2.720916752776165E-018
   1.40000000000001        -2.723962184769333E-018
   1.59000000000000        -2.751880698855538E-018
   1.78000000000000        -2.781831319436125E-018
   1.97000000000000        -2.788266811919796E-018
   2.16000000000000        -2.767500785088906E-018
   2.34999999999999        -2.741240817628588E-018
   2.54000000000001        -2.735699327945244E-018
   2.73000000000000        -2.756284028442488E-018
   2.92000000000000        -2.782138879740135E-018
   3.11000000000000        -2.785896851914460E-018
   3.30000000000000        -2.759925571116623E-018
   3.48999999999999        -2.724054529423095E-018
   3.68000000000001        -2.707337269180057E-018
   3.87000000000000        -2.721116239373156E-018
   4.06000000000000        -2.748917109842526E-018
   4.25000000000000        -2.762623955045287E-018
   4.44000000000000        -2.749374118113072E-018
   4.63000000000000        -2.723521865409007E-018
   4.82000000000001        -2.712387349131320E-018
   5.01000000000001        -2.729575235123418E-018
   5.20000000000000        -2.761518398564403E-018
   5.39000000000000        -2.780238102636535E-018
   5.58000000000000        -2.770172551017808E-018
   5.77000000000000        -2.743363427622986E-018
   5.96000000000001        -2.728339238846186E-018
   6.15000000000001        -2.743144436470719E-018
   6.34000000000000        -2.778120020747637E-018
   6.53000000000000        -2.804793795596347E-018