  -105.000000000000        -9.118619464310049E-019
  -104.810000000000        -2.114598211990236E-019
  -104.620000000000         5.269130577097732E-019
  -104.430000000000         6.303290402800148E-019
  -104.240000000000         3.972448894674436E-020
  -104.050000000000        -6.405930000219037E-019
  -103.860000000000        -7.255386427082915E-019
  -103.670000000000        -1.068357818079656E-019
  -103.480000000000         6.418316203557499E-019
  -103.290000000000         8.125885995640975E-019
  -103.100000000000         2.411185341181104E-019
  -102.910000000000        -5.338407323854623E-019
  -102.720000000000        -7.825123029407608E-019
  -102.530000000000        -2.783891722009306E-019
  -102.340000000000         4.881550649442714E-019
  -102.150000000000         7.797378903637388E-019
  -101.960000000000         3.161516677787282E-019
  -101.770000000000        -4.585737550062919E-019
  -101.580000000000        -8.007499739662968E-019
  -101.390000000000        -3.783698815775122E-019
  -101.200000000000         4.103601189883668E-019
  -101.010000000000         8.166998425209876E-019
  -100.820000000000         4.567534755454402E-019
  -100.630000000000        -3.216835424027285E-019
  -100.440000000000        -7.714081332891384E-019
  -100.250000000000        -4.595630615568202E-019
  -100.060000000000         3.183390331354637E-019
  -99.8700000000000         8.192883691823327E-019
  -99.6800000000000         5.615918839478311E-019
  -99.4900000000000        -2.141682990571071E-019
  -99.3000000000000        -7.730047511543226E-019
  -99.1100000000000        -5.857885054245802E-019
  -98.9200000000000         1.667016138499403E-019
  -98.7300000000000         7.669874553883042E-019
  -98.5400000000000         6.449470064544586E-019
  -98.3500000000000        -8.026638028426308E-020
  -98.1600000000000        -7.160553008885733E-019
  -97.9700000000000        -6.582502526343609E-019
  -97.7800000000000         3.255193091909281E-020
  -97.5900000000000         6.902858086973489E-019
  -97.4000000000000         6.818836287049502E-019
  -97.2100000000000         1.433130576038856E-020
  -97.0200000000000        -6.706865183480217E-019
  -96.8300000000000        -7.094308695892103E-019
  -96.6400000000000        -5.054719655598898E-020
  -96.4500000000000         6.939049865985155E-019
  -96.2600000000000         8.291129565911542E-019
  -96.0700000000000         2.366618556098346E-019
  -95.8800000000000        -5.157766321855303E-019
  -95.6900000000000        -7.187778773618290E-019
  -95.5000000000000        -1.993942596698644E-019
  -95.3100000000000         5.157348702069630E-019
  -95.1200000000000         7.085289652819136E-019
  -94.9300000000000         1.620075598379083E-019
  -94.7400000000000        -6.258810353409855E-019
  -94.5500000000000        -9.124234272174015E-019
  -94.3600000000000        -4.168459859777230E-019
  -94.1700000000000         4.099186113159110E-019
  -93.9800000000000         8.107919051620870E-019
  -93.7900000000000         4.393087803040504E-019
  -93.6000000000000        -3.155498848817845E-019
  -93.4100000000000        -7.060784530795571E-019
  -93.2200000000000        -3.432003227305021E-019
  -93.0300000000000         4.312735967516598E-019
  -92.8400000000000         8.718574751363759E-019
  -92.6500000000000         5.424302274724030E-019
  -92.4600000000000        -2.653419626608608E-019
  -92.2700000000000        -8.072465117965170E-019
  -92.0800000000000        -5.935067161014262E-019
  -91.8900000000000         1.467190004869967E-019
  -91.7000000000000         6.870203920244597E-019
  -91.5100000000000         4.996798015047722E-019
  -91.3200000000000        -2.395741393772648E-019
  -91.1300000000000        -8.198191348908245E-019
  -90.9400000000000        -6.744693041053180E-019
  -90.7500000000000         7.670646260420718E-020
  -90.5600000000000         7.397254019076249E-019
  -90.3700000000000         7.058943365664367E-019
  -90.1800000000000         2.991734295770830E-020
  -89.9900000000000        -6.254785919525576E-019
  -89.8000000000000        -6.256643760493360E-019
  -89.6100000000000         2.787914636154605E-020
  -89.4200000000000         6.997662763608905E-019
  -89.2300000000000         7.306340614125400E-019
  -89.0400000000000         7.112200962665734E-020
  -88.8500000000000        -6.662172520351442E-019
  -88.6600000000000        -7.878428288549777E-019
  -88.4700000000000        -1.801531527300138E-019
  -88.2800000000000         5.802530349691914E-019
  -88.0900000000000         7.738323720018351E-019
  -87.9000000000000         2.217061952243692E-019
  -87.7100000000000        -5.465825252392705E-019
  -87.5200000000000        -8.002095991359235E-019
  -87.3300000000000        -3.036422599078218E-019
  -87.1400000000000         4.617503018051197E-019
  -86.9500000000000         7.607112536637569E-019
  -86.7600000000000         3.088223822862970E-019
  -86.5700000000000        -4.540449429574749E-019
  -86.3800000000000        -7.836682986529091E-019
  -86.1900000000000        -3.447172797909221E-019
  -86.0000000000000         4.646082365786846E-019
  -85.8100000000000         8.879778107977300E-019
  -85.6200000000000         5.285624368597201E-019
  -85.4300000000000        -2.753740115837827E-019
  -85.2400000000000        -7.738085126928030E-019
  -85.0500000000000        -5.179928826820925E-019
  -84.8600000000000         2.162023513502160E-019
  -84.6700000000000         6.975597298885546E-019
  -84.4800000000000         4.437540468584703E-019
  -84.2900000000000        -3.133058377840320E-019
  -84.1000000000000        -8.473317932583885E-019
  -83.9100000000000        -6.329541261769288E-019
  -83.7200000000000         1.489164555228404E-019
  -83.5300000000000         7.791987348425964E-019
  -83.3400000000000         6.823157604642252E-019
  -83.1500000000000        -2.798455972208405E-020
  -82.9600000000000        -6.587340546420927E-019
  -82.7700000000000        -5.994889454481439E-019
  -82.5800000000000         9.485090271979082E-020
  -82.3900000000000         7.566747710276761E-019
  -82.2000000000000         7.437284885724467E-019
  -82.0100000000000         5.287235214348347E-020
  -81.8200000000000        -6.762199142616467E-019
  -81.6300000000000        -7.695491586020378E-019
  -81.4400000000000        -1.582856532742266E-019
  -81.2500000000000         5.596402408769744E-019
  -81.0600000000000         6.933606879477486E-019
  -80.8700000000000         1.202565302357305E-019
  -80.6800000000000        -5.973402308976423E-019
  -80.4900000000000        -7.520504642330993E-019
  -80.3000000000000        -1.716108557116630E-019
  -80.1100000000000         6.117514854349149E-019
  -79.9200000000000         8.649343790994647E-019
  -79.7300000000000         3.498705574843471E-019
  -79.5400000000000        -4.513163509965191E-019
  -79.3500000000000        -7.955781919622734E-019
  -79.1600000000000        -3.845945774548438E-019
  -78.9700000000000         3.559418961831475E-019
  -78.7800000000000         6.896728583605444E-019
  -78.5900000000000         2.795588837331415E-019
  -78.4000000000000        -4.861724426646340E-019
  -78.2100000000000        -8.649971367004357E-019
  -78.0200000000000        -4.729560264979310E-019
  -77.8300000000000         3.428374914826865E-019
  -77.6400000000000         8.291756856722465E-019
  -77.4500000000000         5.410844232348016E-019
  -77.2600000000000        -2.346536415171918E-019
  -77.0700000000000        -7.516643222748429E-019
  -76.8800000000000        -5.140055661700645E-019
  -76.6900000000000         2.528282589678449E-019
  -76.5000000000000         8.193146193733174E-019
  -76.3100000000000         6.491035870374957E-019
  -76.1200000000000        -9.026916134558525E-020
  -75.9300000000000        -6.895225704901740E-019
  -75.7400000000000        -5.764222097197367E-019
  -75.5500000000000         1.366870449430502E-019
  -75.3600000000000         7.591091391548168E-019
  -75.1700000000000         6.813032619399761E-019
  -74.9800000000000        -4.143234550173560E-020
  -74.7900000000000        -7.391287057369227E-019
  -74.6000000000000        -7.638744583331462E-019
  -74.4100000000000        -1.053129860787885E-019
  -74.2200000000000         6.016438939196521E-019
  -74.0300000000000         6.828189732851858E-019
  -73.8400000000000         6.636634955010240E-020
  -73.6500000000000        -6.508626948959377E-019
  -73.4600000000000        -7.749428888748558E-019
  -73.2700000000000        -1.789244785489975E-019
  -73.0800000000000         5.753966960401110E-019
  -72.8900000000000         7.747874465505676E-019
  -72.7000000000000         2.366617854525259E-019
  -72.5100000000000        -5.168749032766290E-019
  -72.3200000000000        -7.590064509949224E-019
  -72.1300000000000        -2.539195208622341E-019
  -71.9400000000000         5.162872716758980E-019
  -71.7500000000000         8.107594512761292E-019
  -71.5600000000000         3.379451618721203E-019
  -71.3700000000000        -4.634438356775267E-019
  -71.1800000000000        -8.401474041321516E-019
  -70.9900000000000        -4.404694649029712E-019
  -70.8000000000000         3.529894109978296E-019
  -70.6100000000000         7.904616970740542E-019
  -70.4200000000000         4.697395164345526E-019
  -70.2300000000000        -2.836042265703514E-019
  -70.0400000000000        -7.316451275829811E-019
  -69.8500000000000        -4.330002625952383E-019
  -69.6600000000000         3.320313938204230E-019
  -69.4700000000000         8.272558547129864E-019
  -69.2800000000000         5.646018202309745E-019
  -69.0900000000000        -2.265253654553525E-019
  -68.9000000000000        -8.140099654983826E-019
  -68.7100000000000        -6.574575019538429E-019
  -68.5200000000000         7.985454464810086E-020
  -68.3300000000000         6.888403444233157E-019
  -68.1400000000000         5.913635627129354E-019
  -67.9500000000000        -1.090593487709260E-019
  -67.7600000000000        -7.280791513628565E-019
  -67.5700000000000        -6.571967961070909E-019
  -67.3800000000000         5.151334740000934E-020
  -67.1900000000000         7.329528572151698E-019
  -67.0000000000000         7.439160287653409E-019
  -66.8100000000000         7.798486740197011E-020
  -66.6200000000000        -6.273670155075404E-019
  -66.4300000000000        -6.983763634472083E-019
  -66.2400000000000        -6.802824023977552E-020
  -66.0500000000000         6.588328635651641E-019
  -65.8600000000000         7.815081256108552E-019
  -65.6700000000000         1.718969929213439E-019
  -65.4800000000000        -6.026735903667169E-019
  -65.2900000000000        -8.194081583162502E-019
  -65.1000000000000        -2.867841148213570E-019
  -64.9100000000000         4.765865734881381E-019
  -64.7200000000000         7.393236184761252E-019
  -64.5300000000000         2.551358286933561E-019
  -64.3400000000000        -5.037381203817495E-019
  -64.1500000000000        -7.993942420382452E-019
  -63.9600000000000        -3.352967758771878E-019
  -63.7700000000000         4.579573919187228E-019
  -63.5800000000000         8.320844426999609E-019
  -63.3900000000000         4.348950067943122E-019
  -63.2000000000000        -3.537150035771980E-019
  -63.0100000000000        -7.840700304312438E-019
  -62.8200000000000        -4.509624821639748E-019
  -62.6300000000000         3.213346727572346E-019
  -62.4400000000000         7.900928147161402E-019
  -62.2500000000000         5.044646772392506E-019
  -62.0600000000000        -2.633345133341959E-019
  -61.8700000000000        -7.789455203054268E-019
  -61.6800000000000        -5.496250100941539E-019
  -61.4900000000000         2.033408031789870E-019
  -61.3000000000000         7.560990331741383E-019
  -61.1100000000000         5.749257638497390E-019
  -60.9200000000000        -1.721861950934119E-019
  -60.7300000000000        -7.737397256749508E-019
  -60.5400000000000        -6.525547975867349E-019
  -60.3500000000000         8.273347219450494E-020
  -60.1600000000000         7.393109016078893E-019
  -59.9700000000000         6.992254539359504E-019
  -59.7800000000000         7.165572118255238E-021
  -59.5900000000000        -6.739178385220393E-019
  -59.4000000000000        -6.959326693683753E-019
  -59.2100000000000        -4.276099612119266E-020
  -59.0200000000000         6.562444104537803E-019
  -58.8300000000000         7.280607496617871E-019
  -58.6400000000000         9.926168421678128E-020
  -58.4500000000000        -6.327878942839504E-019
  -58.2600000000000        -7.697253498243553E-019
  -58.0700000000000        -1.795470206636816E-019
  -57.8800000000000         5.765151965568460E-019
  -57.6900000000000         7.792872669196670E-019
  -57.5000000000000         2.375918435717103E-019
  -57.3100000000000        -5.299041833791513E-019
  -57.1200000000000        -7.897347401301627E-019
  -56.9300000000000        -2.931200619480337E-019
  -56.7400000000000         4.871508860433838E-019
  -56.5500000000000         8.087514290935780E-019
  -56.3600000000000         3.693160581549994E-019
  -56.1700000000000        -4.052283162346650E-019
  -55.9800000000000        -7.695944126364988E-019
  -55.7900000000000        -3.734446975659091E-019
  -55.6000000000000         4.027228815792652E-019
  -55.4100000000000         8.108299461201390E-019
  -55.2200000000000         4.503601066658042E-019
  -55.0300000000000        -3.469581100145802E-019
  -54.8400000000000        -8.304402123781177E-019
  -54.6500000000000        -5.442915746852018E-019
  -54.4600000000000         2.383458225988881E-019
  -54.2700000000000         7.757448243171806E-019
  -54.0800000000000         5.639079206419013E-019
  -53.8900000000000        -1.854504025953820E-019
  -53.7000000000000        -7.502397868956967E-019
  -53.5100000000000        -5.889537253767634E-019
  -53.3200000000000         1.422176751079121E-019
  -53.1300000000000         7.387433728765069E-019
  -52.9400000000000         6.212342120291892E-019
  -52.7500000000000        -1.093424372093522E-019
  -52.5600000000000        -7.657114038025831E-019
  -52.3700000000000        -7.289098094663031E-019
  -52.1800000000000        -3.805637016827227E-020
  -51.9900000000000         6.483033471412008E-019
  -51.8000000000000         6.814879526324578E-019
  -51.6100000000000         4.110043353127557E-020
  -51.4200000000000        -6.472071425585226E-019
  -51.2300000000000        -7.110141009537393E-019
  -51.0400000000000        -7.530666417038612E-020
  -50.8500000000000         6.642736201838066E-019
  -50.6600000000000         8.101313949553201E-019
  -50.4700000000000         2.296566520714175E-019
  -50.2800000000000        -5.181640263237575E-019
  -50.0900000000000        -7.175064373962429E-019
  -49.9000000000000        -1.801079967718658E-019
  -49.7100000000000         5.744131856846938E-019
  -49.5200000000000         8.143577636974776E-019
  -49.3300000000000         2.954737746290795E-019
  -49.1400000000000        -5.029593938622574E-019
  -48.9500000000000        -8.322039103828746E-019
  -48.7600000000000        -3.865651336059961E-019
  -48.5700000000000         4.055089050257468E-019
  -48.3800000000000         7.896840861573840E-019
  -48.1900000000000         4.033855250618956E-019
  -48.0000000000000        -3.813291425823208E-019
  -47.8100000000000        -8.150011674883853E-019
  -47.6200000000000        -4.865017610089383E-019
  -47.4300000000000         2.849325961254602E-019
  -47.2400000000000         7.552915654055801E-019
  -47.0500000000000         4.678880685336908E-019
  -46.8600000000000        -3.083161332761552E-019
  -46.6700000000000        -8.337839654029906E-019
  -46.4800000000000        -6.032642183517214E-019
  -46.2900000000000         1.730599605755425E-019
  -46.1000000000000         7.705939165983141E-019
  -45.9100000000000         6.403381492916752E-019
  -45.7200000000000        -7.051739609568567E-020
  -45.5300000000000        -6.632803921017463E-019
  -45.3400000000000        -5.589288986793289E-019
  -45.1500000000000         1.461720671508212E-019
  -44.9600000000000         7.723410432088260E-019
  -44.7700000000000         7.085522212115855E-019
  -44.5800000000000        -3.737915177233755E-022
  -44.3900000000000        -6.936367049831594E-019
  -44.2000000000000        -7.232714354077592E-019
  -44.0100000000000        -7.164189811759148E-020
  -43.8200000000000         6.314161574596187E-019
  -43.6300000000000         7.089380144190511E-019
  -43.4400000000000         8.295001565308943E-020
  -43.2500000000000        -6.506113863638827E-019
  -43.0600000000000        -7.908480417791204E-019
  -42.8700000000000        -2.015973232369448E-019
  -42.6800000000000         5.579898164223310E-019
  -42.4900000000000         7.663341743659941E-019
  -42.3000000000000         2.270118554397554E-019
  -42.1100000000000        -5.441576124354978E-019
  -41.9200000000000        -8.105769562880201E-019
  -41.7300000000000        -3.169673269545402E-019
  -41.5400000000000         4.672482012931710E-019
  -41.3500000000000         7.962411320680064E-019
  -41.1600000000000         3.600348796534525E-019
  -40.9700000000000        -4.200374568431453E-019
  -40.7800000000000        -7.946157725795545E-019
  -40.5900000000000        -4.021217894147080E-019
  -40.4000000000000         3.863642867144894E-019
  -40.2100000000000         8.213330546202979E-019
  -40.0200000000000         4.898151237291011E-019
  -39.8300000000000        -2.909197110579887E-019
  -39.6400000000000        -7.769682045754973E-019
  -39.4500000000000        -5.088874950973244E-019
  -39.2600000000000         2.499460121219280E-019
  -39.0700000000000         7.671055091419448E-019
  -38.8800000000000         5.434183677262548E-019
  -38.6900000000000        -2.083724139224468E-019
  -38.5000000000000        -7.657505839291677E-019
  -38.3100000000000        -5.864116287324131E-019
  -38.1200000000000         1.718418628371132E-019
  -37.9300000000000         7.979164016711094E-019
  -37.7400000000000         7.027095135052941E-019
  -37.5500000000000        -2.058218206284715E-020
  -37.3600000000000        -6.862733854532836E-019
  -37.1700000000000        -6.703373245335030E-019
  -36.9800000000000        -3.991312220585990E-021
  -36.7900000000000         6.591322003085711E-019
  -36.6000000000000         6.695964924585838E-019
  -36.4100000000000         4.523857455145593E-021
  -36.2200000000000        -7.078410882372879E-019
  -36.0300000000000        -7.857946026090620E-019
  -35.8400000000000        -1.448222340408324E-019
  -35.6500000000000         6.201409611675327E-019
  -35.4600000000000         7.999261239448105E-019
  -35.2700000000000         2.438290851259608E-019
  -35.0800000000000        -5.020078436745295E-019
  -34.8900000000000        -7.203442018072042E-019
  -34.7000000000000        -2.089205928599729E-019
  -34.5100000000000         5.279647677638892E-019
  -34.3200000000000         7.644962738444218E-019
  -34.1300000000000         2.512286686830027E-019
  -33.9400000000000        -5.421503993792329E-019
  -33.7500000000000        -8.727891650708035E-019
  -33.5600000000000        -4.333157124355450E-019
  -33.3700000000000         3.549873799270808E-019
  -33.1800000000000         7.445877609793875E-019
  -32.9900000000000         3.746871094801135E-019
  -32.8000000000000        -3.857306243419590E-019
  -32.6100000000000        -7.918017919927503E-019
  -32.4200000000000        -4.363836439070193E-019
  -32.2300000000000         3.576967457796109E-019
  -32.0400000000000         8.428859958473060E-019
  -31.8500000000000         5.598135638410063E-019
  -31.6600000000000        -2.231208187594148E-019
  -31.4700000000000        -7.641314128862645E-019
  -31.2800000000000        -5.539161125020115E-019
  -31.0900000000000         2.000349827095712E-019
  -30.9000000000000         7.719036385126575E-019
  -30.7100000000000         6.098732201110278E-019
  -30.5200000000000        -1.368058857887507E-019
  -30.3300000000000        -7.588735173953948E-019
  -30.1400000000000        -6.628231399238692E-019
  -29.9500000000000         6.322284809870364E-020
  -29.7600000000000         7.337969787369946E-019
  -29.5700000000000         7.191663869726662E-019
  -29.3800000000000         4.315238110402437E-020
  -29.1900000000000        -6.433487626771337E-019
  -29.0000000000000        -6.855365241849132E-019
  -28.8100000000000        -4.919054751735259E-020
  -28.6200000000000         6.489554218593826E-019
  -28.4300000000000         7.333318361556374E-019
  -28.2400000000000         1.175792270191256E-019
  -28.0500000000000        -6.120585406826331E-019
  -27.8600000000000        -7.578223734183319E-019
  -27.6700000000000        -1.785819455918984E-019
  -27.4800000000000         5.738698374877668E-019
  -27.2900000000000         7.800762656563667E-019
  -27.1000000000000         2.384842713902547E-019
  -26.9100000000000        -5.422223847916349E-019
  -26.7200000000000        -8.278586471159149E-019
  -26.5300000000000        -3.586297212711287E-019
  -26.3400000000000         4.045386472440172E-019
  -26.1500000000000         7.233546731264885E-019
  -25.9600000000000         2.910019772082710E-019
  -25.7700000000000        -4.722107682382719E-019
  -25.5800000000000        -8.195480747476209E-019
  -25.3900000000000        -3.926794873037420E-019
  -25.2000000000000         4.313527080133488E-019
  -25.0100000000000         8.933098035852110E-019
  -24.8200000000000         5.707746698766550E-019
  -24.6300000000000        -2.214504997038551E-019
  -24.4400000000000        -7.320215964830072E-019
  -24.2500000000000        -4.881812321482998E-019
  -24.0600000000000         2.573267935248408E-019
  -23.8700000000000         7.727423033703330E-019
  -23.6800000000000         5.494128932050398E-019
  -23.4900000000000        -2.114019304583117E-019
  -23.3000000000000        -7.906125171324419E-019
  -23.1100000000000        -6.382815532097424E-019
  -22.9200000000000         1.002632420745130E-019
  -22.7300000000000         7.221216399940101E-019
  -22.5400000000000         6.374280894120193E-019
  -22.3500000000000        -6.814911419296717E-020
  -22.1600000000000        -7.166181420409269E-019
  -21.9700000000000        -6.861301006401971E-019
  -21.7800000000000        -4.837781184805231E-021
  -21.5900000000000         6.760167015597149E-019
  -21.4000000000000         7.036028469018166E-019
  -21.2100000000000         4.702694287498975E-020
  -21.0200000000000        -6.723077108765128E-019
  -20.8300000000000        -7.735529601195011E-019
  -20.6400000000000        -1.664089868029761E-019
  -20.4500000000000         5.637294918576712E-019
  -20.2600000000000         7.170422219022898E-019
  -20.0700000000000         1.498450555052527E-019
  -19.8800000000000        -5.865993170087608E-019
  -19.6900000000000        -7.719249481656412E-019
  -19.5000000000000        -2.062027149542940E-019
  -19.3100000000000         5.946654602998007E-019
  -19.1200000000000         8.859970207410222E-019
  -18.9300000000000         4.010876921106984E-019
  -18.7400000000000        -3.963896495460491E-019
  -18.5500000000000        -7.550776089217418E-019
  -18.3600000000000        -3.502913364963485E-019
  -18.1700000000000         4.113630821024798E-019
  -17.9800000000000         7.852142606340151E-019
  -17.7900000000000         4.021299681452066E-019
  -17.6000000000000        -3.785868053146967E-019
  -17.4100000000000        -8.133071719913336E-019
  -17.2200000000000        -4.865059999058030E-019
  -17.0300000000000         2.897386873477965E-019
  -16.8400000000000         7.722150979280323E-019
  -16.6500000000000         4.961084709493263E-019
  -16.4600000000000        -2.806448564517028E-019
  -16.2700000000000        -8.222315905316994E-019
  -16.0800000000000        -6.148966152609362E-019
  -15.8900000000000         1.451095141255904E-019
  -15.7000000000000         7.399822081524929E-019
  -15.5100000000000         6.154176992029215E-019
  -15.3200000000000        -9.147590099193155E-020
  -15.1300000000000        -6.862646850078709E-019
  -14.9400000000000        -5.852118319476890E-019
  -14.7500000000000         1.228131953864142E-019
  -14.5600000000000         7.591808794911790E-019
  -14.3700000000000         7.042825787697679E-019
  -14.1800000000000        -7.531245876990452E-021
  -13.9900000000000        -7.153480829637301E-019
  -13.8000000000000        -7.572055209305220E-019
  -13.6100000000000        -9.912517135681997E-020
  -13.4200000000000         6.322517220321721E-019
  -13.2300000000000         7.457480947093103E-019
  -13.0400000000000         1.421394165080377E-019
  -12.8500000000000        -5.949982847921397E-019
  -12.6600000000000        -7.588407679177988E-019
  -12.4700000000000        -1.935869783097255E-019
  -12.2800000000000         5.591144043320884E-019
  -12.0900000000000         7.793174253783765E-019
  -11.9000000000000         2.573820861045444E-019
  -11.7100000000000        -5.052730631025947E-019
  -11.5200000000000        -7.755629389867600E-019
  -11.3300000000000        -2.906126281810938E-019
  -11.1400000000000         4.892546668233215E-019
  -10.9500000000000         8.186331046554487E-019
  -10.7600000000000         3.775656079151934E-019
  -10.5700000000000        -4.234244012824152E-019
  -10.3800000000000        -8.337770091804867E-019
  -10.1900000000000        -4.762765161950643E-019
  -10.0000000000000         2.962166661744952E-019
  -9.81000000000000         7.406648352886759E-019
  -9.62000000000000         4.356735927558192E-019
  -9.42999999999999        -3.159135400970528E-019
  -9.23999999999999        -7.793889952930150E-019
  -9.05000000000000        -4.950836563283540E-019
  -8.86000000000000         2.777924006364735E-019
  -8.67000000000000         8.055903055485509E-019
  -8.48000000000000         5.801570068567536E-019
  -8.28999999999999        -1.934180328500571E-019
  -8.09999999999999        -7.877610317476991E-019
  -7.91000000000000        -6.431537733982583E-019
  -7.72000000000000         1.004654126902346E-019
  -7.53000000000000         7.374486786446712E-019
  -7.34000000000000         6.685883962357458E-019
  -7.15000000000001        -3.032531514786092E-020
  -6.95999999999999        -6.848069826611101E-019
  -6.77000000000000        -6.675813213215426E-019
  -6.58000000000000         2.983744566452742E-021
  -6.39000000000000         6.819519356974960E-019
  -6.20000000000000         7.157155175190466E-019
  -6.01000000000001         6.887828144978945E-020
  -5.81999999999999        -6.395759837512075E-019
  -5.63000000000000        -7.268457334911841E-019
  -5.44000000000000        -9.966609740496662E-020
  -5.25000000000000         6.540324887232303E-019
  -5.06000000000000         8.227377803990766E-019
  -4.87000000000000         2.467082734338472E-019
  -4.67999999999999        -5.315184133245500E-019
  -4.48999999999999        -7.839835422485621E-019
  -4.30000000000000        -2.889496276552811E-019
  -4.11000000000000         4.621032674629743E-019
  -3.92000000000000         7.393173508714876E-019
  -3.73000000000000         2.759119819909086E-019
  -3.53999999999999        -4.761633898281345E-019
  -3.34999999999999        -7.809265120056710E-019
  -3.16000000000000        -3.264652381363494E-019
  -2.97000000000000         4.713107941196173E-019
  -2.78000000000000         8.604085784097795E-019
  -2.59000000000000         4.677951791164572E-019
  -2.40000000000001        -3.436183636413620E-019
  -2.20999999999999        -8.178084915084116E-019
  -2.02000000000000        -5.227385103243380E-019
  -1.83000000000000         2.420634412515048E-019
  -1.64000000000000         7.355020738826432E-019
  -1.45000000000000         4.837123810267680E-019
  -1.26000000000001        -2.694781954963188E-019
  -1.06999999999999        -7.985894172323579E-019
 -0.879999999999995        -5.920588781826198E-019
 -0.689999999999998         1.568995110903110E-019
 -0.500000000000000         7.334050112369559E-019
 -0.310000000000002         5.844132732378193E-019
 -0.120000000000005        -1.503909131333824E-019
  7.000000000000739E-002   -7.691867894184607E-019
  0.260000000000005        -6.764740371387558E-019
  0.450000000000003         4.883130758598241E-020
  0.640000000000001         7.275315029496441E-019
  0.829999999999998         7.255058072176286E-019
   1.02000000000000         5.570127483067586E-020
   1.21000000000001        -6.362493600213609E-019
   1.40000000000001        -6.890050441283999E-019
   1.59000000000000        -5.629103862558115E-020
   1.78000000000000         6.513885899422920E-019
   1.97000000000000         7.535046901540520E-019
   2.16000000000000         1.521867210367731E-019
   2.34999999999999        -5.739190519936952E-019
   2.54000000000001        -7.237171795177047E-019
   2.73000000000000        -1.459875567978623E-019
   2.92000000000000         6.121019147734508E-019
   3.11000000000000         8.235250130792874E-019
   3.30000000000000         2.742316037587472E-019
   3.48999999999999        -5.305756634484734E-019
   3.68000000000001        -8.447709262087690E-019
   3.87000000000000        -3.884182902014144E-019
   4.06000000000000         3.904162123714419E-019
   4.25000000000000         7.467224968137341E-019
   4.44000000000000         3.490973898019245E-019
   4.63000000000000        -4.076935298165603E-019
   4.82000000000001        -7.845540794954113E-019
   5.01000000000001        -4.087334473376094E-019
   5.20000000000000         3.663008135416405E-019
   5.39000000000000         7.973755039019182E-019
   5.58000000000000         4.638108525233844E-019
   5.77000000000000        -3.264524824936822E-019
   5.96000000000001        -8.262987922806785E-019
   6.15000000000001        -5.587364723652110E-019
   6.34000000000000         2.299670201719353E-019
   6.53000000000000         8.043530195104145E-019