  -105.000000000000         8.195426317325476E-020
  -104.810000000000         6.207481951848991E-020
  -104.620000000000         2.899814635384213E-020
  -104.430000000000        -8.007245417966265E-021
  -104.240000000000        -3.863939311824696E-020
  -104.050000000000        -5.452997852284667E-020
  -103.860000000000        -5.164891717298327E-020
  -103.670000000000        -3.144741545732741E-020
  -103.480000000000        -4.071978905025780E-022
  -103.290000000000         3.187108438434705E-020
  -103.100000000000         5.548037749689005E-020
  -102.910000000000         6.309938628104293E-020
  -102.720000000000         5.212461002277808E-020
  -102.530000000000         2.542851058576260E-020
  -102.340000000000        -9.471835063782499E-021
  -102.150000000000        -4.259600501106932E-020
  -101.960000000000        -6.440192991170536E-020
  -101.770000000000        -6.856374385481509E-020
  -101.580000000000        -5.381472447240812E-020
  -101.390000000000        -2.432270335062073E-020
  -101.200000000000         1.150294968276779E-020
  -101.010000000000         4.342627296354017E-020
  -100.820000000000         6.233378623614603E-020
  -100.630000000000         6.287561833547905E-020
  -100.440000000000         4.503109614730951E-020
  -100.250000000000         1.412734149162064E-020
  -100.060000000000        -2.071333512287567E-020
  -99.8700000000000        -4.924980557960907E-020
  -99.6800000000000        -6.312881945874000E-020
  -99.4900000000000        -5.832877392303147E-020
  -99.3000000000000        -3.632550870394595E-020
  -99.1100000000000        -3.647305862186520E-021
  -98.9200000000000         3.005295517672081E-020
  -98.7300000000000         5.485494870081939E-020
  -98.5400000000000         6.351420030983733E-020
  -98.3500000000000         5.359742232386559E-020
  -98.1600000000000         2.815684632735181E-020
  -97.9700000000000        -5.244775101367525E-021
  -97.7800000000000        -3.683169743112160E-020
  -97.5900000000000        -5.752184195604479E-020
  -97.4000000000000        -6.157737273912796E-020
  -97.2100000000000        -4.823580845075024E-020
  -97.0200000000000        -2.186407964873592E-020
  -96.8300000000000         9.399722283925337E-021
  -96.6400000000000         3.611421201774395E-020
  -96.4500000000000         5.037215443630131E-020
  -96.2600000000000         4.815168291112906E-020
  -96.0700000000000         3.048645420575783E-020
  -95.8800000000000         3.126173563818821E-021
  -95.6900000000000        -2.521199078994408E-020
  -95.5000000000000        -4.551325332874925E-020
  -95.3100000000000        -5.128168702419732E-020
  -95.1200000000000        -4.062600920293696E-020
  -94.9300000000000        -1.691308733423554E-020
  -94.7400000000000         1.226357326987778E-020
  -94.5500000000000         3.748571598834781E-020
  -94.3600000000000         5.050619813242353E-020
  -94.1700000000000         4.687865189170477E-020
  -93.9800000000000         2.739994084872518E-020
  -93.7900000000000        -2.075518374463646E-021
  -93.6000000000000        -3.240471091285593E-020
  -93.4100000000000        -5.398642333076639E-020
  -93.2200000000000        -5.977317552587843E-020
  -93.0300000000000        -4.749037290691588E-020
  -92.8400000000000        -2.035293582631011E-020
  -92.6500000000000         1.390146480713478E-020
  -92.4600000000000         4.530253205468870E-020
  -92.2700000000000         6.455285532974740E-020
  -92.0800000000000         6.572704378192865E-020
  -91.8900000000000         4.802048188654878E-020
  -91.7000000000000         1.604710093193411E-020
  -91.5100000000000        -2.142838239329250E-020
  -91.3200000000000        -5.398547121703775E-020
  -91.1300000000000        -7.254816165503304E-020
  -90.9400000000000        -7.200151591947598E-020
  -90.7500000000000        -5.265743027118925E-020
  -90.5600000000000        -2.015011510904486E-020
  -90.3700000000000         1.622163956203329E-020
  -90.1800000000000         4.625526113428851E-020
  -89.9900000000000         6.188897767278848E-020
  -89.8000000000000         5.954453095775716E-020
  -89.6100000000000         4.098798910425355E-020
  -89.4200000000000         1.248608254342237E-020
  -89.2300000000000        -1.733366267253574E-020
  -89.0400000000000        -4.012102258714280E-020
  -88.8500000000000        -5.010608181731819E-020
  -88.6600000000000        -4.546221089818471E-020
  -88.4700000000000        -2.846489478363641E-020
  -88.2800000000000        -4.525424183223443E-021
  -88.0900000000000         1.953190040352615E-020
  -87.9000000000000         3.739232316055859E-020
  -87.7100000000000         4.480675279566898E-020
  -87.5200000000000         4.042098497981428E-020
  -87.3300000000000         2.582303433976361E-020
  -87.1400000000000         4.957160885440659E-021
  -86.9500000000000        -1.690689582249977E-020
  -86.7600000000000        -3.445311132914595E-020
  -86.5700000000000        -4.357537893485629E-020
  -86.3800000000000        -4.228522987811927E-020
  -86.1900000000000        -3.103909524566376E-020
  -86.0000000000000        -1.246408330330320E-020
  -85.8100000000000         9.353968860934586E-021
  -85.6200000000000         2.978885118755279E-020
  -85.4300000000000         4.459757183140153E-020
  -85.2400000000000         5.070349882541915E-020
  -85.0500000000000         4.672872001536538E-020
  -84.8600000000000         3.320467089148650E-020
  -84.6700000000000         1.247192258895828E-020
  -84.4800000000000        -1.164899137645635E-020
  -84.2900000000000        -3.437560933946429E-020
  -84.1000000000000        -5.074158627313414E-020
  -83.9100000000000        -5.668303394584049E-020
  -83.7200000000000        -5.023936554769036E-020
  -83.5300000000000        -3.241878732710599E-020
  -83.3400000000000        -7.277380623828273E-021
  -83.1500000000000         1.895813704081424E-020
  -82.9600000000000         3.952443206033364E-020
  -82.7700000000000         4.904170157252434E-020
  -82.5800000000000         4.514447640492414E-020
  -82.3900000000000         2.930119402651901E-020
  -82.2000000000000         6.491631466540548E-021
  -82.0100000000000        -1.626769173049605E-020
  -81.8200000000000        -3.214646900663361E-020
  -81.6300000000000        -3.672049256625359E-020
  -81.4400000000000        -2.938640527446277E-020
  -81.2500000000000        -1.348334544378564E-020
  -81.0600000000000         4.889548068338996E-021
  -80.8700000000000         1.897370194514729E-020
  -80.6800000000000         2.372436803888299E-020
  -80.4900000000000         1.767304877107008E-020
  -80.3000000000000         3.572280162863675E-021
  -80.1100000000000        -1.249559032836376E-020
  -79.9200000000000        -2.327935622156270E-020
  -79.7300000000000        -2.302814540566950E-020
  -79.5400000000000        -9.727726826410412E-021
  -79.3500000000000         1.386289903133708E-020
  -79.1600000000000         4.073554490554736E-020
  -78.9700000000000         6.161981827873428E-020
  -78.7800000000000         6.792984372463792E-020
  -78.5900000000000         5.482848340218802E-020
  -78.4000000000000         2.336991663768328E-020
  -78.2100000000000        -1.917219042095417E-020
  -78.0200000000000        -6.110462974889747E-020
  -77.8300000000000        -8.977921079410827E-020
  -77.6400000000000        -9.565687047094347E-020
  -77.4500000000000        -7.567176238232541E-020
  -77.2600000000000        -3.472975385948746E-020
  -77.0700000000000         1.533389994688346E-020
  -76.8800000000000         5.921481427745530E-020
  -76.6900000000000         8.301469012905265E-020
  -76.5000000000000         7.892150266863516E-020
  -76.3100000000000         4.803723708245751E-020
  -76.1200000000000         2.837885297216108E-022
  -75.9300000000000        -4.865470372866343E-020
  -75.7400000000000        -8.234980534767524E-020
  -75.5500000000000        -8.895731837605877E-020
  -75.3600000000000        -6.513023150319969E-020
  -75.1700000000000        -1.723946260171320E-020
  -74.9800000000000         4.051221981966711E-020
  -74.7900000000000         9.045354240522465E-020
  -74.6000000000000         1.168418010920809E-019
  -74.4100000000000         1.106169414496341E-019
  -74.2200000000000         7.217174215215488E-020
  -74.0300000000000         1.142302012644231E-020
  -73.8400000000000        -5.483679057590057E-020
  -73.6500000000000        -1.076471645970126E-019
  -73.4600000000000        -1.314040902700519E-019
  -73.2700000000000        -1.186253094432383E-019
  -73.0800000000000        -7.244740030376299E-020
  -72.8900000000000        -5.918100297411567E-021
  -72.7000000000000         6.184740912626901E-020
  -72.5100000000000         1.114863125806534E-019
  -72.3200000000000         1.293105883608112E-019
  -72.1300000000000         1.113945780741949E-019
  -71.9400000000000         6.447716814245416E-020
  -71.7500000000000         3.409396362316410E-021
  -71.5600000000000        -5.387724675249433E-020
  -71.3700000000000        -9.202769727791508E-020
  -71.1800000000000        -1.026068462699484E-019
  -70.9900000000000        -8.586849425654858E-020
  -70.8000000000000        -4.970711201554463E-020
  -70.6100000000000        -6.474673915425902E-021
  -70.4200000000000         3.109065914601729E-020
  -70.2300000000000         5.349443119299579E-020
  -70.0400000000000         5.669709831529510E-020
  -69.8500000000000         4.250527822262419E-020
  -69.6600000000000         1.731278256948342E-020
  -69.4700000000000        -1.021834995058079E-020
  -69.2800000000000        -3.177289068338485E-020
  -69.0900000000000        -4.161417813643073E-020
  -68.9000000000000        -3.795296123379295E-020
  -68.7100000000000        -2.314731418416525E-020
  -68.5200000000000        -2.643973025165053E-021
  -68.3300000000000         1.704418623336627E-020
  -68.1400000000000         3.060825915938698E-020
  -67.9500000000000         3.559534315402148E-020
  -67.7600000000000         3.282916738046278E-020
  -67.5700000000000         2.550191108322945E-020
  -67.3800000000000         1.740018402400088E-020
  -67.1900000000000         1.111358492090125E-020
  -67.0000000000000         7.073082154221813E-021
  -66.8100000000000         3.830182392606732E-021
  -66.6200000000000        -6.584124104435419E-022
  -66.4300000000000        -7.489394238183888E-021
  -66.2400000000000        -1.588982341412251E-020
  -66.0500000000000        -2.343598063269746E-020
  -65.8600000000000        -2.726344627613350E-020
  -65.6700000000000        -2.554774953316068E-020
  -65.4800000000000        -1.845866753553187E-020
  -65.2900000000000        -8.174677844685319E-021
  -65.1000000000000         1.972044868565766E-021
  -64.9100000000000         8.815885368538168E-021
  -64.7200000000000         1.058351744175542E-020
  -64.5300000000000         7.509391567901204E-021
  -64.3400000000000         1.604853360596884E-021
  -64.1500000000000        -4.260832950502838E-021
  -63.9600000000000        -7.527470830681899E-021
  -63.7700000000000        -6.871546554305066E-021
  -63.5800000000000        -2.572768047902158E-021
  -63.3900000000000         3.719711409788711E-021
  -63.2000000000000         9.626245311434822E-021
  -63.0100000000000         1.283634591545030E-020
  -62.8200000000000         1.189218610232772E-020
  -62.6300000000000         6.783526538917779E-021
  -62.4400000000000        -8.717963446385952E-022
  -62.2500000000000        -8.226250211504692E-021
  -62.0600000000000        -1.213890633526459E-020
  -61.8700000000000        -1.040490321987254E-020
  -61.6800000000000        -2.892685433828200E-021
  -61.4900000000000         7.901273472559981E-021
  -61.3000000000000         1.733369431312437E-020
  -61.1100000000000         2.023862833932509E-020
  -60.9200000000000         1.321893093857197E-020
  -60.7300000000000        -3.358934638784706E-021
  -60.5400000000000        -2.470733469874988E-020
  -60.3500000000000        -4.287603599356909E-020
  -60.1600000000000        -4.964194162947970E-020
  -59.9700000000000        -3.991034553905007E-020
  -59.7800000000000        -1.419934013265381E-020
  -59.5900000000000         2.086086033521821E-020
  -59.4000000000000         5.432447728639049E-020
  -59.2100000000000         7.450495726004226E-020
  -59.0200000000000         7.312008775076774E-020
  -58.8300000000000         4.849229093865433E-020
  -58.6400000000000         6.589586755149642E-021
  -58.4500000000000        -4.049950149758617E-020
  -58.2600000000000        -7.815935955239888E-020
  -58.0700000000000        -9.376333745124495E-020
  -57.8800000000000        -8.071110074211655E-020
  -57.6900000000000        -4.075501787949966E-020
  -57.5000000000000         1.608684833330785E-020
  -57.3100000000000         7.405109869235185E-020
  -57.1200000000000         1.159673242295587E-019
  -56.9300000000000         1.282855760253670E-019
  -56.7400000000000         1.053669835876210E-019
  -56.5500000000000         5.170319005203565E-020
  -56.3600000000000        -1.875557429450904E-020
  -56.1700000000000        -8.621856035537197E-020
  -55.9800000000000        -1.308135851837621E-019
  -55.7900000000000        -1.388533743469868E-019
  -55.6000000000000        -1.075068387174344E-019
  -55.4100000000000        -4.608609613013296E-020
  -55.2200000000000         2.670499071516785E-020
  -55.0300000000000         8.873327017453887E-020
  -54.8400000000000         1.215792635820830E-019
  -54.6500000000000         1.163709894132558E-019
  -54.4600000000000         7.631405975640326E-020
  -54.2700000000000         1.519226413403073E-020
  -54.0800000000000        -4.742972256748096E-020
  -53.8900000000000        -9.253949779267151E-020
  -53.7000000000000        -1.074536560965172E-019
  -53.5100000000000        -8.929462646563025E-020
  -53.3200000000000        -4.529494474496944E-020
  -53.1300000000000         9.885593831353807E-021
  -52.9400000000000         5.882326983801355E-020
  -52.7500000000000         8.657223576169786E-020
  -52.5600000000000         8.502359213920705E-020
  -52.3700000000000         5.515294240110694E-020
  -52.1800000000000         6.518140325115029E-021
  -51.9900000000000        -4.579702795556172E-020
  -51.8000000000000        -8.584575399788044E-020
  -51.6100000000000        -1.016956830755434E-019
  -51.4200000000000        -8.903813964812634E-020
  -51.2300000000000        -5.236370559402317E-020
  -51.0400000000000        -3.284188797596315E-021
  -50.8500000000000         4.345672941056488E-020
  -50.6600000000000         7.492173996439674E-020
  -50.4700000000000         8.411687196526271E-020
  -50.2800000000000         7.181762915157649E-020
  -50.0900000000000         4.548070247939496E-020
  -49.9000000000000         1.585653217849597E-020
  -49.7100000000000        -7.196505898545363E-021
  -49.5200000000000        -1.805097374460845E-020
  -49.3300000000000        -1.666263000532931E-020
  -49.1400000000000        -7.652585251113996E-021
  -48.9500000000000         2.248464628560297E-021
  -48.7600000000000         7.156525526705000E-021
  -48.5700000000000         4.180925448687491E-021
  -48.3800000000000        -5.873442231795406E-021
  -48.1900000000000        -1.920198577696877E-020
  -48.0000000000000        -3.060831739548022E-020
  -47.8100000000000        -3.539280913405259E-020
  -47.6200000000000        -3.095981452117004E-020
  -47.4300000000000        -1.774689856020250E-020
  -47.2400000000000         7.771761615891541E-022
  -47.0500000000000         1.913956199222268E-020
  -46.8600000000000         3.168618205843592E-020
  -46.6700000000000         3.456844827946962E-020
  -46.4800000000000         2.712417974927456E-020
  -46.2900000000000         1.215001872195707E-020
  -46.1000000000000        -5.012744148072278E-021
  -45.9100000000000        -1.830562749151872E-020
  -45.7200000000000        -2.312419200061787E-020
  -45.5300000000000        -1.804376519110372E-020
  -45.3400000000000        -5.372692700776824E-021
  -45.1500000000000         9.756858921999841E-021
  -44.9600000000000         2.143145640015756E-020
  -44.7700000000000         2.529330310728449E-020
  -44.5800000000000         2.017153646570585E-020
  -44.3900000000000         8.330720030641113E-021
  -44.2000000000000        -5.671914608539634E-021
  -44.0100000000000        -1.692645602727029E-020
  -43.8200000000000        -2.207737404631132E-020
  -43.6300000000000        -2.045539988370177E-020
  -43.4400000000000        -1.399825645967258E-020
  -43.2500000000000        -6.053512436500177E-021
  -43.0600000000000         2.683817531753988E-022
  -42.8700000000000         3.330466197375812E-021
  -42.6800000000000         3.300615569184189E-021
  -42.4900000000000         1.657980872054237E-021
  -42.3000000000000         2.939681821121551E-022
  -42.1100000000000         6.342872065732186E-022
  -41.9200000000000         3.044562968496803E-021
  -41.7300000000000         6.624424374936047E-021
  -41.5400000000000         9.444028668663791E-021
  -41.3500000000000         9.264148327627384E-021
  -41.1600000000000         4.611678306501399E-021
  -40.9700000000000        -4.227913267488060E-021
  -40.7800000000000        -1.485215259785593E-020
  -40.5900000000000        -2.328239815435688E-020
  -40.4000000000000        -2.524548955535190E-020
  -40.2100000000000        -1.779631138418206E-020
  -40.0200000000000        -7.873008094866677E-022
  -39.8300000000000         2.238132109248486E-020
  -39.6400000000000         4.521643560852038E-020
  -39.4500000000000         5.988901771921929E-020
  -39.2600000000000         5.983317939606979E-020
  -39.0700000000000         4.229726107225335E-020
  -38.8800000000000         9.854690486504495E-021
  -38.6900000000000        -2.981169526001879E-020
  -38.5000000000000        -6.590954647727336E-020
  -38.3100000000000        -8.773188416896332E-020
  -38.1200000000000        -8.807039784481558E-020
  -37.9300000000000        -6.575737317494066E-020
  -37.7400000000000        -2.638189478787249E-020
  -37.5500000000000         1.924310766585390E-020
  -37.3600000000000         5.839296035676621E-020
  -37.1700000000000         8.030290266189536E-020
  -36.9800000000000         7.927881933732785E-020
  -36.7900000000000         5.619724199373234E-020
  -36.6000000000000         1.813906667644783E-020
  -36.4100000000000        -2.363930412723108E-020
  -36.2200000000000        -5.686152096976202E-020
  -36.0300000000000        -7.173263944692008E-020
  -35.8400000000000        -6.385080645826169E-020
  -35.6500000000000        -3.560734157928403E-020
  -35.4600000000000         4.488075714056377E-021
  -35.2700000000000         4.439582868602970E-020
  -35.0800000000000         7.217306576861648E-020
  -34.8900000000000         7.949169419666381E-020
  -34.7000000000000         6.406061757635554E-020
  -34.5100000000000         3.028216865725883E-020
  -34.3200000000000        -1.209964714608945E-020
  -34.1300000000000        -5.098532024859304E-020
  -33.9400000000000        -7.557178208712530E-020
  -33.7500000000000        -7.948859046905834E-020
  -33.5600000000000        -6.248134254109695E-020
  -33.3700000000000        -3.021368982876055E-020
  -33.1800000000000         7.653452352581904E-021
  -32.9900000000000         4.044094095997451E-020
  -32.8000000000000         5.956821843055419E-020
  -32.6100000000000         6.091046773126982E-020
  -32.4200000000000         4.571593008822813E-020
  -32.2300000000000         1.982855806654633E-020
  -32.0400000000000        -8.418197997213815E-021
  -31.8500000000000        -3.078180235655950E-020
  -31.6600000000000        -4.132298304704989E-020
  -31.4700000000000        -3.779699959881715E-020
  -31.2800000000000        -2.208110962362340E-020
  -31.0900000000000         4.148068649972223E-022
  -30.9000000000000         2.229760008369707E-020
  -30.7100000000000         3.637888786531309E-020
  -30.5200000000000         3.789856604351597E-020
  -30.3300000000000         2.605824879843969E-020
  -30.1400000000000         4.294187750192291E-021
  -29.9500000000000        -2.082124207203646E-020
  -29.7600000000000        -4.161701769338441E-020
  -29.5700000000000        -5.159828864777924E-020
  -29.3800000000000        -4.732955291808947E-020
  -29.1900000000000        -2.946164941693410E-020
  -29.0000000000000        -2.596073887868440E-021
  -28.8100000000000         2.601974945798740E-020
  -28.6200000000000         4.856418213366607E-020
  -28.4300000000000         5.884486533462789E-020
  -28.2400000000000         5.404092557426820E-020
  -28.0500000000000         3.554002791658785E-020
  -27.8600000000000         8.609901211281237E-021
  -27.6700000000000        -1.906251397458515E-020
  -27.4800000000000        -3.958118292796705E-020
  -27.2900000000000        -4.717505404288590E-020
  -27.1000000000000        -3.995772531863541E-020
  -26.9100000000000        -2.053308812151952E-020
  -26.7200000000000         4.764915726038150E-021
  -26.5300000000000         2.772305501386507E-020
  -26.3400000000000         4.062564045706694E-020
  -26.1500000000000         3.857870000518810E-020
  -25.9600000000000         2.121473259109933E-020
  -25.7700000000000        -6.818212599451582E-021
  -25.5800000000000        -3.696991389105819E-020
  -25.3900000000000        -5.932513117253708E-020
  -25.2000000000000        -6.577821451673428E-020
  -25.0100000000000        -5.276719084667159E-020
  -24.8200000000000        -2.261357274408694E-020
  -24.6300000000000         1.700023814640203E-020
  -24.4400000000000         5.521322064053923E-020
  -24.2500000000000         8.110205054177856E-020
  -24.0600000000000         8.684115560933847E-020
  -23.8700000000000         7.007615227935174E-020
  -23.6800000000000         3.481158782382779E-020
  -23.4900000000000        -9.562533647642693E-021
  -23.3000000000000        -5.089498806856903E-020
  -23.1100000000000        -7.777068444653269E-020
  -22.9200000000000        -8.285069596038379E-020
  -22.7300000000000        -6.507206020430420E-020
  -22.5400000000000        -2.999397197087471E-020
  -22.3500000000000         1.188577631108417E-020
  -22.1600000000000         4.832233759906902E-020
  -21.9700000000000         6.899064679326208E-020
  -21.7800000000000         6.849049021071508E-020
  -21.5900000000000         4.779764194974968E-020
  -21.4000000000000         1.376508953680759E-020
  -21.2100000000000        -2.308703173809100E-020
  -21.0200000000000        -5.175095846491392E-020
  -20.8300000000000        -6.397076793896417E-020
  -20.6400000000000        -5.668060056659516E-020
  -20.4500000000000        -3.290072280764664E-020
  -20.2600000000000        -6.966289472168943E-022
  -20.0700000000000         2.951755408320183E-020
  -19.8800000000000         4.837944631841855E-020
  -19.6900000000000         5.049914419832517E-020
  -19.5000000000000         3.597339708429362E-020
  -19.3100000000000         1.009847784103580E-020
  -19.1200000000000        -1.849537129022210E-020
  -18.9300000000000        -4.057996049511986E-020
  -18.7400000000000        -4.908530698840655E-020
  -18.5500000000000        -4.116345849954680E-020
  -18.3600000000000        -1.903325310934572E-020
  -18.1700000000000         1.068593019705226E-020
  -17.9800000000000         3.900872941928293E-020
  -17.7900000000000         5.734324335701530E-020
  -17.6000000000000         6.009298804176732E-020
  -17.4100000000000         4.631365319794494E-020
  -17.2200000000000         1.992129259615664E-020
  -17.0300000000000        -1.161447000661158E-020
  -16.8400000000000        -3.961941505416468E-020
  -16.6500000000000        -5.677511882475831E-020
  -16.4600000000000        -5.910289521749394E-020
  -16.2700000000000        -4.688173925876244E-020
  -16.0800000000000        -2.433528096454855E-020
  -15.8900000000000         1.752535659631279E-021
  -15.7000000000000         2.403824804990402E-020
  -15.5100000000000         3.666673625211899E-020
  -15.3200000000000         3.686228924952775E-020
  -15.1300000000000         2.564597345281068E-020
  -14.9400000000000         7.406231982169696E-021
  -14.7500000000000        -1.158583877241882E-020
  -14.5600000000000        -2.518302737766565E-020
  -14.3700000000000        -2.919499865730393E-020
  -14.1800000000000        -2.252925284514913E-020
  -13.9900000000000        -7.397489268637507E-021
  -13.8000000000000         1.140302049778205E-020
  -13.6100000000000         2.788752475538477E-020
  -13.4200000000000         3.658098070186789E-020
  -13.2300000000000         3.413480420799302E-020
  -13.0400000000000         2.047074655699864E-020
  -12.8500000000000        -9.799547354064221E-022
  -12.6600000000000        -2.418302384697157E-020
  -12.4700000000000        -4.231279561818531E-020
  -12.2800000000000        -4.981790951980553E-020
  -12.0900000000000        -4.404494489113790E-020
  -11.9000000000000        -2.594973312204084E-020
  -11.7100000000000         2.539053190154392E-022
  -11.5200000000000         2.830419769150399E-020
  -11.3300000000000         5.150924942850424E-020
  -11.1400000000000         6.433984669020680E-020
  -10.9500000000000         6.371973913034729E-020
  -10.7600000000000         4.978686842849188E-020
  -10.5700000000000         2.590307713789310E-020
  -10.3800000000000        -2.155743400743338E-021
  -10.1900000000000        -2.765539215590852E-020
  -10.0000000000000        -4.466957584959917E-020
  -9.81000000000000        -4.970400684307612E-020
  -9.62000000000000        -4.263903828818748E-020
  -9.42999999999999        -2.660730610122287E-020
  -9.23999999999999        -6.874560104120657E-021
  -9.05000000000000         1.080391717661421E-020
  -8.86000000000000         2.180159509727848E-020
  -8.67000000000000         2.379360812440847E-020
  -8.48000000000000         1.721896335145965E-020
  -8.28999999999999         4.960045637560749E-021
  -8.09999999999999        -8.618838289148581E-021
  -7.91000000000000        -1.900554368119824E-020
  -7.72000000000000        -2.290233293447808E-020
  -7.53000000000000        -1.918093097902264E-020
  -7.34000000000000        -9.068839882594346E-021
  -7.15000000000001         4.421796372170039E-021
  -6.95999999999999         1.744418085557192E-020
  -6.77000000000000         2.627090140697290E-020
  -6.58000000000000         2.811600398393717E-020
  -6.39000000000000         2.179450986070050E-020
  -6.20000000000000         8.127049989295747E-021
  -6.01000000000001        -1.004542936820324E-020
  -5.81999999999999        -2.835444463348920E-020
  -5.63000000000000        -4.194033291805382E-020
  -5.44000000000000        -4.683717248600587E-020
  -5.25000000000000        -4.123289859973819E-020
  -5.06000000000000        -2.610481215424724E-020
  -4.87000000000000        -5.004578936018923E-021
  -4.67999999999999         1.692005898956824E-020
  -4.48999999999999         3.435942329240415E-020
  -4.30000000000000         4.325813630326407E-020
  -4.11000000000000         4.174846643266444E-020
  -3.92000000000000         3.043779534501517E-020
  -3.73000000000000         1.220770844245413E-020
  -3.53999999999999        -8.324592681512427E-021
  -3.34999999999999        -2.571356864679094E-020
  -3.16000000000000        -3.496021053220725E-020
  -2.97000000000000        -3.290671716757780E-020
  -2.78000000000000        -1.932869328373997E-020
  -2.59000000000000         2.687324505076348E-021
  -2.40000000000001         2.732798351055043E-020
  -2.20999999999999         4.752345517785471E-020
  -2.02000000000000         5.688531239075212E-020
  -1.83000000000000         5.157842755539079E-020
  -1.64000000000000         3.167626645866575E-020
  -1.45000000000000         1.583551672984005E-021
  -1.26000000000001        -3.083469042534006E-020
  -1.06999999999999        -5.639986355857437E-020
 -0.879999999999995        -6.742445219726424E-020
 -0.689999999999998        -6.021597500467052E-020
 -0.500000000000000        -3.642978566502501E-020
 -0.310000000000002        -2.782264838625573E-021
 -0.120000000000005         3.086678198749631E-020
  7.000000000000739E-002    5.447123929226025E-020
  0.260000000000005         6.081609965975562E-020
  0.450000000000003         4.767601051229519E-020
  0.640000000000001         1.855346160133223E-020
  0.829999999999998        -1.818053898787219E-020
   1.02000000000000        -5.153562415241430E-020
   1.21000000000001        -7.095862635008493E-020
   1.40000000000001        -6.942107695419237E-020
   1.59000000000000        -4.576094770821872E-020
   1.78000000000000        -5.533592680300133E-021
   1.97000000000000         4.018781619898475E-020
   2.16000000000000         7.798255414842290E-020
   2.34999999999999         9.625140287231963E-020
   2.54000000000001         8.892365274564766E-020
   2.73000000000000         5.744648566507486E-020
   2.92000000000000         1.042152584758997E-020
   3.11000000000000        -3.900305029059029E-020
   3.30000000000000        -7.714892772362830E-020
   3.48999999999999        -9.394014350042264E-020
   3.68000000000001        -8.588524334788901E-020
   3.87000000000000        -5.702161309264095E-020
   4.06000000000000        -1.747818178960844E-020
   4.25000000000000         1.995498802299870E-020
   4.44000000000000         4.408201589372770E-020
   4.63000000000000         4.887086981729786E-020
   4.82000000000001         3.516121676253305E-020
   5.01000000000001         1.003511331351129E-020
   5.20000000000000        -1.588687534068105E-020
   5.39000000000000        -3.226328059378261E-020
   5.58000000000000        -3.257048207783818E-020
   5.77000000000000        -1.615988618083174E-020
   5.96000000000001         1.167448326108624E-020
   6.15000000000001         4.146188096472853E-020
   6.34000000000000         6.259701246145277E-020
   6.53000000000000         6.680821415839939E-020