  -105.000000000000         0.000000000000000E+000
  -104.810000000000        -8.547792355630310E-021
  -104.620000000000        -2.356995995933605E-020
  -104.430000000000        -4.161662070870611E-020
  -104.240000000000        -5.882812918554599E-020
  -104.050000000000        -7.200956665621136E-020
  -103.860000000000        -7.950355274606998E-020
  -103.670000000000        -8.161058063665633E-020
  -103.480000000000        -8.043765660242510E-020
  -103.290000000000        -7.922226280903794E-020
  -103.100000000000        -8.133101381555681E-020
  -102.910000000000        -8.922633976662189E-020
  -102.720000000000        -1.037028772878521E-019
  -102.530000000000        -1.236159814173659E-019
  -102.340000000000        -1.461813541490900E-019
  -102.150000000000        -1.677589235290870E-019
  -101.960000000000        -1.848935924253615E-019
  -101.770000000000        -1.953106748137347E-019
  -101.580000000000        -1.985763711370375E-019
  -101.390000000000        -1.962301765111056E-019
  -101.200000000000        -1.913490804512416E-019
  -101.010000000000        -1.876685719016658E-019
  -100.820000000000        -1.885145874662304E-019
  -100.630000000000        -1.958556603479908E-019
  -100.440000000000        -2.097494164390952E-019
  -100.250000000000        -2.283426844003235E-019
  -100.060000000000        -2.484236865584721E-019
  -99.8700000000000        -2.663649893006085E-019
  -99.6800000000000        -2.791832844862007E-019
  -99.4900000000000        -2.854088398838304E-019
  -99.3000000000000        -2.855128777245979E-019
  -99.1100000000000        -2.817691936604194E-019
  -98.9200000000000        -2.775902698492796E-019
  -98.7300000000000        -2.765307527298725E-019
  -98.5400000000000        -2.812481150507500E-019
  -98.3500000000000        -2.927230664337216E-019
  -98.1600000000000        -3.099667838372445E-019
  -97.9700000000000        -3.303002586443555E-019
  -97.7800000000000        -3.501245102755474E-019
  -97.5900000000000        -3.659577838101071E-019
  -97.4000000000000        -3.754385694262431E-019
  -97.2100000000000        -3.780035004460754E-019
  -97.0200000000000        -3.750436206374186E-019
  -96.8300000000000        -3.694937307703581E-019
  -96.6400000000000        -3.649739279069643E-019
  -96.4500000000000        -3.647325888753539E-019
  -96.2600000000000        -3.706980931017045E-019
  -96.0700000000000        -3.829153435130054E-019
  -95.8800000000000        -3.995313832263468E-019
  -95.6900000000000        -4.173345534590286E-019
  -95.5000000000000        -4.326904106031551E-019
  -95.3100000000000        -4.426021881782019E-019
  -95.1200000000000        -4.455875362334636E-019
  -94.9300000000000        -4.421167665641525E-019
  -94.7400000000000        -4.344850001636604E-019
  -94.5500000000000        -4.261545307671316E-019
  -94.3600000000000        -4.207571671698136E-019
  -94.1700000000000        -4.210451439051648E-019
  -93.9800000000000        -4.280947574955819E-019
  -93.7900000000000        -4.409943189707706E-019
  -93.6000000000000        -4.571078901456441E-019
  -93.4100000000000        -4.728390575766443E-019
  -93.2200000000000        -4.846734950458185E-019
  -93.0300000000000        -4.901979871206852E-019
  -92.8400000000000        -4.888006706997445E-019
  -92.6500000000000        -4.818501536400835E-019
  -92.4600000000000        -4.723024270617585E-019
  -92.2700000000000        -4.638499673212473E-019
  -92.0800000000000        -4.598593474268099E-019
  -91.8900000000000        -4.624042971870719E-019
  -91.7000000000000        -4.716732761093885E-019
  -91.5100000000000        -4.859222910362854E-019
  -91.3200000000000        -5.019859119580405E-019
  -91.1300000000000        -5.161976213343720E-019
  -90.9400000000000        -5.254517523097105E-019
  -90.7500000000000        -5.280981697836642E-019
  -90.5600000000000        -5.244097371992094E-019
  -90.3700000000000        -5.164872506508454E-019
  -90.1800000000000        -5.076303993747576E-019
  -89.9900000000000        -5.013585387665307E-019
  -89.8000000000000        -5.003665702313540E-019
  -89.6100000000000        -5.057198791714269E-019
  -89.4200000000000        -5.165230327022287E-019
  -89.2300000000000        -5.301598914071739E-019
  -89.0400000000000        -5.430373577505586E-019
  -88.8500000000000        -5.516188099840804E-019
  -88.6600000000000        -5.534487431528869E-019
  -88.4700000000000        -5.478720786293899E-019
  -88.2800000000000        -5.362397609904229E-019
  -88.0900000000000        -5.215411002674967E-019
  -87.9000000000000        -5.075693887033496E-019
  -87.7100000000000        -4.978621328770671E-019
  -87.5200000000000        -4.947216811402801E-019
  -87.3300000000000        -4.985977685478402E-019
  -87.1400000000000        -5.080079976252400E-019
  -86.9500000000000        -5.200162140978308E-019
  -86.7600000000000        -5.311271284217093E-019
  -86.5700000000000        -5.383349537198964E-019
  -86.3800000000000        -5.400192269238540E-019
  -86.1900000000000        -5.364255837918017E-019
  -86.0000000000000        -5.295904899320034E-019
  -85.8100000000000        -5.227316620898894E-019
  -85.6200000000000        -5.192825014715433E-019
  -85.4300000000000        -5.218532541181086E-019
  -85.2400000000000        -5.314232277623647E-019
  -85.0500000000000        -5.470012006300166E-019
  -84.8600000000000        -5.658551562464305E-019
  -84.6700000000000        -5.842474338603264E-019
  -84.4800000000000        -5.984650442046123E-019
  -84.2900000000000        -6.058492899111840E-019
  -84.1000000000000        -6.055284733314146E-019
  -83.9100000000000        -5.986426142853583E-019
  -83.7200000000000        -5.879955362701923E-019
  -83.5300000000000        -5.772353274651469E-019
  -83.3400000000000        -5.698009265267048E-019
  -83.1500000000000        -5.679403459068174E-019
  -82.9600000000000        -5.720848319467737E-019
  -82.7700000000000        -5.807592536668855E-019
  -82.5800000000000        -5.910527312531870E-019
  -82.3900000000000        -5.995106527269889E-019
  -82.2000000000000        -6.031870682002423E-019
  -82.0100000000000        -6.005501220678384E-019
  -81.8200000000000        -5.919757922246308E-019
  -81.6300000000000        -5.796843991201174E-019
  -81.4400000000000        -5.671358855065545E-019
  -81.2500000000000        -5.580572039129194E-019
  -81.0600000000000        -5.553826367942813E-019
  -80.8700000000000        -5.604140212532669E-019
  -80.6800000000000        -5.724447092219420E-019
  -80.4900000000000        -5.889568594107384E-019
  -80.3000000000000        -6.063354808000271E-019
  -80.1100000000000        -6.208930478271088E-019
  -79.9200000000000        -6.299089301180851E-019
  -79.7300000000000        -6.323840110325168E-019
  -79.5400000000000        -6.292935085217705E-019
  -79.3500000000000        -6.232661980193843E-019
  -79.1600000000000        -6.177842076252909E-019
  -78.9700000000000        -6.161365423905119E-019
  -78.7800000000000        -6.204312404573080E-019
  -78.5900000000000        -6.309544165962493E-019
  -78.4000000000000        -6.460637675439644E-019
  -78.2100000000000        -6.626484510057888E-019
  -78.0200000000000        -6.770221115659784E-019
  -77.8300000000000        -6.859896549139358E-019
  -77.6400000000000        -6.877779862751042E-019
  -77.4500000000000        -6.825606649287476E-019
  -77.2600000000000        -6.724242547120847E-019
  -77.0700000000000        -6.607855981467915E-019
  -76.8800000000000        -6.514276336000875E-019
  -76.6900000000000        -6.474312520529682E-019
  -76.5000000000000        -6.503105913203466E-019
  -76.3100000000000        -6.596004074730252E-019
  -76.1200000000000        -6.730134367318057E-019
  -75.9300000000000        -6.871206112485281E-019
  -75.7400000000000        -6.983555835140693E-019
  -75.5500000000000        -7.040514824761268E-019
  -75.3600000000000        -7.032094840292809E-019
  -75.1700000000000        -6.967778565141267E-019
  -74.9800000000000        -6.873631888071026E-019
  -74.7900000000000        -6.784605423896509E-019
  -74.6000000000000        -6.734283437135499E-019
  -74.4100000000000        -6.745070061765216E-019
  -74.2200000000000        -6.821668056969979E-019
  -74.0300000000000        -6.949744919033630E-019
  -73.8400000000000        -7.100171597421694E-019
  -73.6500000000000        -7.237596018528349E-019
  -73.4600000000000        -7.330848348703684E-019
  -73.2700000000000        -7.362137543750868E-019
  -73.0800000000000        -7.332348327866002E-019
  -72.8900000000000        -7.260883202446425E-019
  -72.7000000000000        -7.180082717774059E-019
  -72.5100000000000        -7.125834286139862E-019
  -72.3200000000000        -7.127087105701913E-019
  -72.1300000000000        -7.197309984383372E-019
  -71.9400000000000        -7.330370431691981E-019
  -71.7500000000000        -7.502039202670099E-019
  -71.5600000000000        -7.676700825108751E-019
  -71.3700000000000        -7.817344665037532E-019
  -71.1800000000000        -7.895958557770922E-019
  -70.9900000000000        -7.901327233359856E-019
  -70.8000000000000        -7.841989998194189E-019
  -70.6100000000000        -7.743519753917517E-019
  -70.4200000000000        -7.640936794499730E-019
  -70.2300000000000        -7.568481746214211E-019
  -70.0400000000000        -7.549730952293873E-019
  -69.8500000000000        -7.590926730435820E-019
  -69.6600000000000        -7.679451135385305E-019
  -69.4700000000000        -7.787872200926723E-019
  -69.2800000000000        -7.882370466932287E-019
  -69.0900000000000        -7.933077670852215E-019
  -68.9000000000000        -7.923296828931991E-019
  -68.7100000000000        -7.854889269647936E-019
  -68.5200000000000        -7.748223089372188E-019
  -68.3300000000000        -7.636660542499339E-019
  -68.1400000000000        -7.557158088375617E-019
  -67.9500000000000        -7.539693965048964E-019
  -67.7600000000000        -7.598588553133604E-019
  -67.5700000000000        -7.728239853503435E-019
  -67.3800000000000        -7.904520522914173E-019
  -67.1900000000000        -8.091447527484129E-019
  -67.0000000000000        -8.251214755134690E-019
  -66.8100000000000        -8.354710002488429E-019
  -66.6200000000000        -8.389497836571689E-019
  -66.4300000000000        -8.362979492171645E-019
  -66.2400000000000        -8.299832162554680E-019
  -66.0500000000000        -8.234483375079228E-019
  -65.8600000000000        -8.200813692368461E-019
  -65.6700000000000        -8.222084070785965E-019
  -65.4800000000000        -8.304016847329784E-019
  -65.2900000000000        -8.433040033290233E-019
  -65.1000000000000        -8.580202241971676E-019
  -64.9100000000000        -8.709618733595554E-019
  -64.7200000000000        -8.788995327399199E-019
  -64.5300000000000        -8.799174352888153E-019
  -64.3400000000000        -8.739927353668752E-019
  -64.1500000000000        -8.630301758758887E-019
  -63.9600000000000        -8.503402567552125E-019
  -63.7700000000000        -8.397102647630378E-019
  -63.5800000000000        -8.343359669979836E-019
  -63.3900000000000        -8.359227026221572E-019
  -63.2000000000000        -8.442156800407698E-019
  -63.0100000000000        -8.570945535318290E-019
  -62.8200000000000        -8.712033318960494E-019
  -62.6300000000000        -8.829314236337465E-019
  -62.4400000000000        -8.894603805114765E-019
  -62.2500000000000        -8.895727944016909E-019
  -62.0600000000000        -8.839896126904295E-019
  -61.8700000000000        -8.751393035318389E-019
  -61.6800000000000        -8.664271536818594E-019
  -61.4900000000000        -8.612181063729905E-019
  -61.3000000000000        -8.618300778744054E-019
  -61.1100000000000        -8.688321620378839E-019
  -60.9200000000000        -8.808537931531643E-019
  -60.7300000000000        -8.949621654286590E-019
  -60.5400000000000        -9.074993959508253E-019
  -60.3500000000000        -9.151367242551039E-019
  -60.1600000000000        -9.158398472103855E-019
  -59.9700000000000        -9.094656020325172E-019
  -59.7800000000000        -8.978175533740433E-019
  -59.5900000000000        -8.841449131838188E-019
  -59.4000000000000        -8.722299789620338E-019
  -59.2100000000000        -8.653276291771042E-019
  -59.0200000000000        -8.652624989112741E-019
  -58.8300000000000        -8.719432805471884E-019
  -58.6400000000000        -8.834324348171834E-019
  -58.4500000000000        -8.965483685385529E-019
  -58.2600000000000        -9.078225414998732E-019
  -58.0700000000000        -9.145310704483785E-019
  -57.8800000000000        -9.154993418265568E-019
  -57.6900000000000        -9.114450487920708E-019
  -57.5000000000000        -9.047601868739147E-019
  -57.3100000000000        -8.987962967004467E-019
  -57.1200000000000        -8.968620236030968E-019
  -56.9300000000000        -9.012260489682752E-019
  -56.7400000000000        -9.124174645542710E-019
  -56.5500000000000        -9.290299413047071E-019
  -56.3600000000000        -9.480901244292915E-019
  -56.1700000000000        -9.658865437453856E-019
  -55.9800000000000        -9.790205741829224E-019
  -55.7900000000000        -9.853751570212217E-019
  -55.6000000000000        -9.847197612445441E-019
  -55.4100000000000        -9.787750504977888E-019
  -55.2200000000000        -9.707172473262203E-019
  -55.0300000000000        -9.642644718950015E-019
  -54.8400000000000        -9.626081570498756E-019
  -54.6500000000000        -9.674971909907472E-019
  -54.4600000000000        -9.787382033798045E-019
  -54.2700000000000        -9.942554043532822E-019
  -54.0800000000000        -1.010692118310265E-018
  -53.8900000000000        -1.024379828450339E-018
  -53.7000000000000        -1.032394162616259E-018
  -53.5100000000000        -1.033391836180134E-018
  -53.3200000000000        -1.027985985674225E-018
  -53.1300000000000        -1.018551537078029E-018
  -52.9400000000000        -1.008518241009815E-018
  -52.7500000000000        -1.001358176360613E-018
  -52.5600000000000        -9.995631898031336E-019
  -52.3700000000000        -1.003910199126167E-018
  -52.1800000000000        -1.013228276697232E-018
  -51.9900000000000        -1.024735752458935E-018
  -51.8000000000000        -1.034850492790119E-018
  -51.6100000000000        -1.040239492490157E-018
  -51.4200000000000        -1.038804265785956E-018
  -51.2300000000000        -1.030316343643802E-018
  -51.0400000000000        -1.016517613639250E-018
  -50.8500000000000        -1.000654594526400E-018
  -50.6600000000000        -9.865794842978652E-019
  -50.4700000000000        -9.776763441322254E-019
  -50.2800000000000        -9.759214248500674E-019
  -50.0900000000000        -9.813476754770313E-019
  -49.9000000000000        -9.920664145459451E-019
  -49.7100000000000        -1.004838153249251E-018
  -49.5200000000000        -1.016026256457118E-018
  -49.3300000000000        -1.022657072901353E-018
  -49.1400000000000        -1.023279898382586E-018
  -48.9500000000000        -1.018378326550228E-018
  -48.7600000000000        -1.010214568729489E-018
  -48.5700000000000        -1.002152845432419E-018
  -48.3800000000000        -9.976593509833186E-019
  -48.1900000000000        -9.992703748174459E-019
  -48.0000000000000        -1.007829276417397E-018
  -47.8100000000000        -1.022214466180307E-018
  -47.6200000000000        -1.039637489766805E-018
  -47.4300000000000        -1.056424734104835E-018
  -47.2400000000000        -1.069056400585534E-018
  -47.0500000000000        -1.075162514234000E-018
  -46.8600000000000        -1.074188730414374E-018
  -46.6700000000000        -1.067540439654217E-018
  -46.4800000000000        -1.058164518455072E-018
  -46.2900000000000        -1.049690696616915E-018
  -46.1000000000000        -1.045381989300471E-018
  -45.9100000000000        -1.047198836206385E-018
  -45.7200000000000        -1.055248111453125E-018
  -45.5300000000000        -1.067775544843084E-018
  -45.3400000000000        -1.081701270780664E-018
  -45.1500000000000        -1.093539863782554E-018
  -44.9600000000000        -1.100434738432907E-018
  -44.7700000000000        -1.101004486929258E-018
  -44.5800000000000        -1.095754462380187E-018
  -44.3900000000000        -1.086933979191773E-018
  -44.2000000000000        -1.077880859025909E-018
  -44.0100000000000        -1.072044115543178E-018
  -43.8200000000000        -1.071969404433206E-018
  -43.6300000000000        -1.078543283670923E-018
  -43.4400000000000        -1.090717713915268E-018
  -43.2500000000000        -1.105796853688357E-018
  -43.0600000000000        -1.120204450592048E-018
  -42.8700000000000        -1.130509878278120E-018
  -42.6800000000000        -1.134415294622863E-018
  -42.4900000000000        -1.131417612184940E-018
  -42.3000000000000        -1.122953507524631E-018
  -42.1100000000000        -1.111985767171006E-018
  -41.9200000000000        -1.102151172493267E-018
  -41.7300000000000        -1.096717022636182E-018
  -41.5400000000000        -1.097648696355399E-018
  -41.3500000000000        -1.105058351056402E-018
  -41.1600000000000        -1.117194092835117E-018
  -40.9700000000000        -1.130971617813984E-018
  -40.7800000000000        -1.142892137616120E-018
  -40.5900000000000        -1.150077671710400E-018
  -40.4000000000000        -1.151120675410605E-018
  -40.2100000000000        -1.146499490491712E-018
  -40.0200000000000        -1.138438126651751E-018
  -39.8300000000000        -1.130251068324504E-018
  -39.6400000000000        -1.125363832835370E-018
  -39.4500000000000        -1.126294496277412E-018
  -39.2600000000000        -1.133893276206693E-018
  -39.0700000000000        -1.147063183499108E-018
  -38.8800000000000        -1.163045905908200E-018
  -38.6900000000000        -1.178193242217768E-018
  -38.5000000000000        -1.189002867240553E-018
  -38.3100000000000        -1.193119316160238E-018
  -38.1200000000000        -1.190010030665344E-018
  -37.9300000000000        -1.181119963993689E-018
  -37.7400000000000        -1.169459385844809E-018
  -37.5500000000000        -1.158743873127682E-018
  -37.3600000000000        -1.152334964426785E-018
  -37.1700000000000        -1.152287105051660E-018
  -36.9800000000000        -1.158775201912245E-018
  -36.7900000000000        -1.170066831139552E-018
  -36.6000000000000        -1.183045838857861E-018
  -36.4100000000000        -1.194134900001390E-018
  -36.2200000000000        -1.200349219763908E-018
  -36.0300000000000        -1.200175330815562E-018
  -35.8400000000000        -1.194019291613829E-018
  -35.6500000000000        -1.184093399894398E-018
  -35.4600000000000        -1.173773792178209E-018
  -35.2700000000000        -1.166615428384150E-018
  -35.0800000000000        -1.165310862970550E-018
  -34.8900000000000        -1.170895705742576E-018
  -34.7000000000000        -1.182432124692381E-018
  -34.5100000000000        -1.197263171129466E-018
  -34.3200000000000        -1.211765417499717E-018
  -34.1300000000000        -1.222383153264364E-018
  -33.9400000000000        -1.226645736017120E-018
  -33.7500000000000        -1.223874233886948E-018
  -33.5600000000000        -1.215373108322849E-018
  -33.3700000000000        -1.204051669087094E-018
  -33.1800000000000        -1.193585240876634E-018
  -32.9900000000000        -1.187359270410434E-018
  -32.8000000000000        -1.187502048543991E-018
  -32.6100000000000        -1.194285238586901E-018
  -32.4200000000000        -1.206064057687980E-018
  -32.2300000000000        -1.219772335244711E-018
  -32.0400000000000        -1.231827300314620E-018
  -31.8500000000000        -1.239180972944140E-018
  -31.6600000000000        -1.240213118690991E-018
  -31.4700000000000        -1.235206754970270E-018
  -31.2800000000000        -1.226268038633035E-018
  -31.0900000000000        -1.216713444864730E-018
  -30.9000000000000        -1.210102021504424E-018
  -30.7100000000000        -1.209194053706530E-018
  -30.5200000000000        -1.215139186039051E-018
  -30.3300000000000        -1.227130321108590E-018
  -30.1400000000000        -1.242623972536664E-018
  -29.9500000000000        -1.258063045851576E-018
  -29.7600000000000        -1.269892420130173E-018
  -29.5700000000000        -1.275573366715006E-018
  -29.3800000000000        -1.274303753433612E-018
  -29.1900000000000        -1.267236416930441E-018
  -29.0000000000000        -1.257133225696293E-018
  -28.8100000000000        -1.247555511796157E-018
  -28.6200000000000        -1.241825853218149E-018
  -28.4300000000000        -1.242062761047201E-018
  -28.2400000000000        -1.248568987857550E-018
  -28.0500000000000        -1.259751504124793E-018
  -27.8600000000000        -1.272596330650788E-018
  -27.6700000000000        -1.283559600308152E-018
  -27.4800000000000        -1.289614880692060E-018
  -27.2900000000000        -1.289151372977141E-018
  -27.1000000000000        -1.282461135534304E-018
  -26.9100000000000        -1.271672999352302E-018
  -26.7200000000000        -1.260151506518735E-018
  -26.5300000000000        -1.251534524352150E-018
  -26.3400000000000        -1.248688310780562E-018
  -26.1500000000000        -1.252883239440259E-018
  -25.9600000000000        -1.263429788266948E-018
  -25.7700000000000        -1.277880902076392E-018
  -25.5800000000000        -1.292742143460324E-018
  -25.3900000000000        -1.304483236768158E-018
  -25.2000000000000        -1.310556982465980E-018
  -25.0100000000000        -1.310129646913754E-018
  -24.8200000000000        -1.304311123310311E-018
  -24.6300000000000        -1.295818611255102E-018
  -24.4400000000000        -1.288171925127423E-018
  -24.2500000000000        -1.284654338981726E-018
  -24.0600000000000        -1.287341059430763E-018
  -23.8700000000000        -1.296478316971146E-018
  -23.6800000000000        -1.310394909747060E-018
  -23.4900000000000        -1.325973660134873E-018
  -23.3000000000000        -1.339547198434983E-018
  -23.1100000000000        -1.347958352515486E-018
  -22.9200000000000        -1.349476795208122E-018
  -22.7300000000000        -1.344304991746176E-018
  -22.5400000000000        -1.334525807001609E-018
  -22.3500000000000        -1.323506324221008E-018
  -22.1600000000000        -1.314930077036874E-018
  -21.9700000000000        -1.311737334122013E-018
  -21.7800000000000        -1.315279575970054E-018
  -21.5900000000000        -1.324932565265498E-018
  -21.4000000000000        -1.338280269246740E-018
  -21.2100000000000        -1.351817169861345E-018
  -21.0200000000000        -1.361966475333248E-018
  -20.8300000000000        -1.366119850372229E-018
  -20.6400000000000        -1.363397512223415E-018
  -20.4500000000000        -1.354908308939787E-018
  -20.2600000000000        -1.343434439079472E-018
  -20.0700000000000        -1.332632472792354E-018
  -19.8800000000000        -1.325982471374839E-018
  -19.6900000000000        -1.325789523071362E-018
  -19.5000000000000        -1.332526186979152E-018
  -19.3100000000000        -1.344705184693857E-018
  -19.1200000000000        -1.359318123134979E-018
  -18.9300000000000        -1.372712390020007E-018
  -18.7400000000000        -1.381651717460964E-018
  -18.5500000000000        -1.384252781111958E-018
  -18.3600000000000        -1.380526121190690E-018
  -18.1700000000000        -1.372364511295233E-018
  -17.9800000000000        -1.362982477344944E-018
  -17.7900000000000        -1.355970205860745E-018
  -17.6000000000000        -1.354236996132486E-018
  -17.4100000000000        -1.359151182118283E-018
  -17.2200000000000        -1.370126136542704E-018
  -17.0300000000000        -1.384772554600583E-018
  -16.8400000000000        -1.399573354062320E-018
  -16.6500000000000        -1.410886510142236E-018
  -16.4600000000000        -1.415986352773219E-018
  -16.2700000000000        -1.413842554618879E-018
  -16.0800000000000        -1.405411689435974E-018
  -15.8900000000000        -1.393357307219305E-018
  -15.7000000000000        -1.381280225909599E-018
  -15.5100000000000        -1.372682850594279E-018
  -15.3200000000000        -1.369968141949406E-018
  -15.1300000000000        -1.373762914404959E-018
  -14.9400000000000        -1.382759938680093E-018
  -14.7500000000000        -1.394122078790630E-018
  -14.5600000000000        -1.404328730664832E-018
  -14.3700000000000        -1.410217336828382E-018
  -14.1800000000000        -1.409917161265671E-018
  -13.9900000000000        -1.403404407027714E-018
  -13.8000000000000        -1.392517800623505E-018
  -13.6100000000000        -1.380430355050673E-018
  -13.4200000000000        -1.370731071832415E-018
  -13.2300000000000        -1.366384002601990E-018
  -13.0400000000000        -1.368868036389642E-018
  -12.8500000000000        -1.377748184617063E-018
  -12.6600000000000        -1.390803211753141E-018
  -12.4700000000000        -1.404672159910749E-018
  -12.2800000000000        -1.415831291124934E-018
  -12.0900000000000        -1.421617256006171E-018
  -11.9000000000000        -1.420999385179787E-018
  -11.7100000000000        -1.414877176985004E-018
  -11.5200000000000        -1.405816858090415E-018
  -11.3300000000000        -1.397303477309341E-018
  -11.1400000000000        -1.392725502460829E-018
  -10.9500000000000        -1.394386723580739E-018
  -10.7600000000000        -1.402832660195364E-018
  -10.5700000000000        -1.416687469409629E-018
  -10.3800000000000        -1.433048860393556E-018
  -10.1900000000000        -1.448326057343436E-018
  -10.0000000000000        -1.459276945957609E-018
  -9.81000000000000        -1.463942776897508E-018
  -9.62000000000000        -1.462208818836034E-018
  -9.42999999999999        -1.455828187688697E-018
  -9.23999999999999        -1.447902016139747E-018
  -9.05000000000000        -1.441967036090171E-018
  -8.86000000000000        -1.440955933100665E-018
  -8.67000000000000        -1.446333351254499E-018
  -8.48000000000000        -1.457659939935098E-018
  -8.28999999999999        -1.472712531610492E-018
  -8.09999999999999        -1.488126372784906E-018
  -7.91000000000000        -1.500372727991487E-018
  -7.72000000000000        -1.506787002968770E-018
  -7.53000000000000        -1.506347640543422E-018
  -7.34000000000000        -1.499978651001987E-018
  -7.15000000000001        -1.490287213881764E-018
  -6.95999999999999        -1.480811716750861E-018
  -6.77000000000000        -1.474997374096267E-018
  -6.58000000000000        -1.475195525045855E-018
  -6.39000000000000        -1.481976306735535E-018
  -6.20000000000000        -1.493954381564232E-018
  -6.01000000000001        -1.508179375415095E-018
  -5.81999999999999        -1.520979150741895E-018
  -5.63000000000000        -1.529012391181823E-018
  -5.44000000000000        -1.530225794512027E-018
  -5.25000000000000        -1.524438695042649E-018
  -5.06000000000000        -1.513386308560343E-018
  -4.87000000000000        -1.500210212232729E-018
  -4.67999999999999        -1.488545000463654E-018
  -4.48999999999999        -1.481466689347730E-018
  -4.30000000000000        -1.480607891375662E-018
  -4.11000000000000        -1.485696051570152E-018
  -3.92000000000000        -1.494648438086325E-018
  -3.73000000000000        -1.504196457170885E-018
  -3.53999999999999        -1.510858504238185E-018
  -3.34999999999999        -1.511979154840058E-018
  -3.16000000000000        -1.506532584337435E-018
  -2.97000000000000        -1.495455875252648E-018
  -2.78000000000000        -1.481413945745033E-018
  -2.59000000000000        -1.468062665560201E-018
  -2.40000000000001        -1.459022270277485E-018
  -2.20999999999999        -1.456857121307987E-018
  -2.02000000000000        -1.462355958652795E-018
  -1.83000000000000        -1.474319821191977E-018
  -1.64000000000000        -1.489918077942316E-018
  -1.45000000000000        -1.505508879681831E-018
  -1.26000000000001        -1.517686047891045E-018
  -1.06999999999999        -1.524248782960043E-018
 -0.879999999999995        -1.524812925843807E-018
 -0.689999999999998        -1.520886801848210E-018
 -0.500000000000000        -1.515390789751750E-018
 -0.310000000000002        -1.511762093648573E-018
 -0.120000000000005        -1.512907153311169E-018
  7.000000000000739E-002   -1.520308315464375E-018
  0.260000000000005        -1.533546123616996E-018
  0.450000000000003        -1.550377485504717E-018
  0.640000000000001        -1.567348565140571E-018
  0.829999999999998        -1.580766256771520E-018
   1.02000000000000        -1.587748044762289E-018
   1.21000000000001        -1.587046804677293E-018
   1.40000000000001        -1.579411518391047E-018
   1.59000000000000        -1.567378692516340E-018
   1.78000000000000        -1.554554029069180E-018
   1.97000000000000        -1.544591808032663E-018
   2.16000000000000        -1.540167195180435E-018
   2.34999999999999        -1.542238362355360E-018
   2.54000000000001        -1.549810375765903E-018
   2.73000000000000        -1.560266403469321E-018
   2.92000000000000        -1.570166968969041E-018
   3.11000000000000        -1.576282705700201E-018
   3.30000000000000        -1.576559251645998E-018
   3.48999999999999        -1.570733442698975E-018
   3.68000000000001        -1.560421581693789E-018
   3.87000000000000        -1.548653933379948E-018
   4.06000000000000        -1.538990632965623E-018
   4.25000000000000        -1.534476411629463E-018
   4.44000000000000        -1.536739252619187E-018
   4.63000000000000        -1.545496984154659E-018
   4.82000000000001        -1.558617560474515E-018
   5.01000000000001        -1.572717807143843E-018
   5.20000000000000        -1.584128694659373E-018
   5.39000000000000        -1.589948404619377E-018
   5.58000000000000        -1.588878528230470E-018
   5.77000000000000        -1.581601048547751E-018
   5.96000000000001        -1.570586166100553E-018
   6.15000000000001        -1.559385359366302E-018
   6.34000000000000        -1.551613042748225E-018
   6.53000000000000        -1.549910703884762E-018