  -105.000000000000         0.000000000000000E+000
  -104.810000000000         1.871751544792511E-010
  -104.620000000000         4.112700607255322E-010
  -104.430000000000         6.580266227874155E-010
  -104.240000000000         1.062748749655193E-009
  -104.050000000000         1.660169364859600E-009
  -103.860000000000         2.248415422912238E-009
  -103.670000000000         2.728464072850588E-009
  -103.480000000000         3.056230131937222E-009
  -103.290000000000         3.575385620791669E-009
  -103.100000000000         4.128889759602535E-009
  -102.910000000000         4.743346086796092E-009
  -102.720000000000         5.317347802356600E-009
  -102.530000000000         5.841027917804409E-009
  -102.340000000000         6.370433894720227E-009
  -102.150000000000         6.832179067143146E-009
  -101.960000000000         7.299775031405564E-009
  -101.770000000000         7.315452359067276E-009
  -101.580000000000         7.474709750599575E-009
  -101.390000000000         7.603797795253274E-009
  -101.200000000000         7.683012086468514E-009
  -101.010000000000         7.694865086216182E-009
  -100.820000000000         7.621336007514357E-009
  -100.630000000000         7.633547859974547E-009
  -100.440000000000         7.640066081679158E-009
  -100.250000000000         7.584953393281434E-009
  -100.060000000000         7.447710948704527E-009
  -99.8700000000000         7.243958589157083E-009
  -99.6800000000000         6.886109986039357E-009
  -99.4900000000000         6.256593975403247E-009
  -99.3000000000000         5.714929987617761E-009
  -99.1100000000000         5.204583790633207E-009
  -98.9200000000000         4.706113711436171E-009
  -98.7300000000000         4.279483394608909E-009
  -98.5400000000000         4.132902741728663E-009
  -98.3500000000000         3.403245864758455E-009
  -98.1600000000000         3.091597576622799E-009
  -97.9700000000000         2.949551861627063E-009
  -97.7800000000000         2.740832439947979E-009
  -97.5900000000000         2.595728742543067E-009
  -97.4000000000000         2.511476829415952E-009
  -97.2100000000000         2.487153679580747E-009
  -97.0200000000000         2.494765249258768E-009
  -96.8300000000000         2.610990298849245E-009
  -96.6400000000000         2.660510311830434E-009
  -96.4500000000000         2.713741683982056E-009
  -96.2600000000000         2.847255873333904E-009
  -96.0700000000000         3.407822902754839E-009
  -95.8800000000000         3.872031453213110E-009
  -95.6900000000000         4.249175587659571E-009
  -95.5000000000000         4.534581602252343E-009
  -95.3100000000000         4.906699083625604E-009
  -95.1200000000000         5.089206541903551E-009
  -94.9300000000000         5.360102222594022E-009
  -94.7400000000000         5.557547766272672E-009
  -94.5500000000000         5.831475771748509E-009
  -94.3600000000000         6.324933493314415E-009
  -94.1700000000000         7.034909285138047E-009
  -93.9800000000000         7.082824399270654E-009
  -93.7900000000000         7.472707070892665E-009
  -93.6000000000000         7.980808872243662E-009
  -93.4100000000000         8.219101463484565E-009
  -93.2200000000000         8.314996625706073E-009
  -93.0300000000000         8.302985766609154E-009
  -92.8400000000000         8.212290802497140E-009
  -92.6500000000000         8.065807443562417E-009
  -92.4600000000000         7.849663392917992E-009
  -92.2700000000000         7.506924648219731E-009
  -92.0800000000000         6.981534649608822E-009
  -91.8900000000000         6.314920028046833E-009
  -91.7000000000000         5.992406360592656E-009
  -91.5100000000000         5.597654598405584E-009
  -91.3200000000000         5.387497827081882E-009
  -91.1300000000000         5.128442038612808E-009
  -90.9400000000000         5.254946708079103E-009
  -90.7500000000000         5.658816466170583E-009
  -90.5600000000000         6.174978110607578E-009
  -90.3700000000000         6.656181399828344E-009
  -90.1800000000000         7.043169253311523E-009
  -89.9900000000000         7.470327027204111E-009
  -89.8000000000000         8.045304088285875E-009
  -89.6100000000000         8.227006296242602E-009
  -89.4200000000000         8.844178826943351E-009
  -89.2300000000000         9.604312714703241E-009
  -89.0400000000000         1.079766731722150E-008
  -88.8500000000000         1.079191990063444E-008
  -88.6600000000000         1.107375563404477E-008
  -88.4700000000000         1.137497964848166E-008
  -88.2800000000000         1.165097650064236E-008
  -88.0900000000000         1.205031327125246E-008
  -87.9000000000000         1.248611359500535E-008
  -87.7100000000000         1.280975128073381E-008
  -87.5200000000000         1.290812199390902E-008
  -87.3300000000000         1.297173982436069E-008
  -87.1400000000000         1.300205543804332E-008
  -86.9500000000000         1.282448158146740E-008
  -86.7600000000000         1.248250463549191E-008
  -86.5700000000000         1.210929116967698E-008
  -86.3800000000000         1.176715404500163E-008
  -86.1900000000000         1.148144088611613E-008
  -86.0000000000000         1.125886773227305E-008
  -85.8100000000000         1.119506003627681E-008
  -85.6200000000000         1.145321699032242E-008
  -85.4300000000000         1.210083670566346E-008
  -85.2400000000000         1.296783631879129E-008
  -85.0500000000000         1.429404053562505E-008
  -84.8600000000000         1.573689492019470E-008
  -84.6700000000000         1.715561076124065E-008
  -84.4800000000000         1.871426578946726E-008
  -84.2900000000000         2.046387491957364E-008
  -84.1000000000000         2.210534551778524E-008
  -83.9100000000000         2.355930326405790E-008
  -83.7200000000000         2.352797593756855E-008
  -83.5300000000000         2.604878851003859E-008
  -83.3400000000000         2.584839960242707E-008
  -83.1500000000000         2.625037183138944E-008
  -82.9600000000000         2.683610757228983E-008
  -82.7700000000000         2.733193719436166E-008
  -82.5800000000000         2.766326933534091E-008
  -82.3900000000000         2.781681161135441E-008
  -82.2000000000000         2.780270599133479E-008
  -82.0100000000000         2.769324091898725E-008
  -81.8200000000000         2.734237823884217E-008
  -81.6300000000000         2.678846622024588E-008
  -81.4400000000000         2.620606837012920E-008
  -81.2500000000000         2.571046391086827E-008
  -81.0600000000000         2.514406433038974E-008
  -80.8700000000000         2.422849722697427E-008
  -80.6800000000000         2.326313164867242E-008
  -80.4900000000000         2.245985817361728E-008
  -80.3000000000000         2.188872442519797E-008
  -80.1100000000000         2.149907772398986E-008
  -79.9200000000000         2.125965390741373E-008
  -79.7300000000000         2.124884920630569E-008
  -79.5400000000000         2.148387196901195E-008
  -79.3500000000000         2.206301951838648E-008
  -79.1600000000000         2.282216023584679E-008
  -78.9700000000000         2.361118164034758E-008
  -78.7800000000000         2.448851715245523E-008
  -78.5900000000000         2.551577149930131E-008
  -78.4000000000000         2.626996474958032E-008
  -78.2100000000000         2.677924803039329E-008
  -78.0200000000000         2.717936106199383E-008
  -77.8300000000000         2.748835986042076E-008
  -77.6400000000000         2.778161589388952E-008
  -77.4500000000000         2.808672420849187E-008
  -77.2600000000000         2.837172454974471E-008
  -77.0700000000000         2.863660497419953E-008
  -76.8800000000000         2.884852787905404E-008
  -76.6900000000000         2.912961343946641E-008
  -76.5000000000000         2.957577381342289E-008
  -76.3100000000000         3.049720281690107E-008
  -76.1200000000000         3.105478273142411E-008
  -75.9300000000000         3.190641875516116E-008
  -75.7400000000000         3.262182103211971E-008
  -75.5500000000000         3.328953757757371E-008
  -75.3600000000000         3.388388541895966E-008
  -75.1700000000000         3.445526436929809E-008
  -74.9800000000000         3.542894855951829E-008
  -74.7900000000000         3.674497334161819E-008
  -74.6000000000000         3.804731500707298E-008
  -74.4100000000000         3.926036063259397E-008
  -74.2200000000000         4.036848344947603E-008
  -74.0300000000000         4.139537969776969E-008
  -73.8400000000000         4.254043979919648E-008
  -73.6500000000000         4.372612425481756E-008
  -73.4600000000000         4.473874173140899E-008
  -73.2700000000000         4.576951982941201E-008
  -73.0800000000000         4.667749248362717E-008
  -72.8900000000000         4.765513660703680E-008
  -72.7000000000000         4.837410582183158E-008
  -72.5100000000000         4.913754852925663E-008
  -72.3200000000000         4.992391929491609E-008
  -72.1300000000000         5.066485539001924E-008
  -71.9400000000000         5.108255370023616E-008
  -71.7500000000000         5.329511064819183E-008
  -71.5600000000000         5.348196221527228E-008
  -71.3700000000000         5.386806416516562E-008
  -71.1800000000000         5.469700623980594E-008
  -70.9900000000000         5.501584346303881E-008
  -70.8000000000000         5.814098117229648E-008
  -70.6100000000000         5.830319746421218E-008
  -70.4200000000000         5.867126201300272E-008
  -70.2300000000000         6.263685867006153E-008
  -70.0400000000000         6.282280123432922E-008
  -69.8500000000000         6.334483421516663E-008
  -69.6600000000000         6.660071016828363E-008
  -69.4700000000000         6.713524613746600E-008
  -69.2800000000000         6.821413094808592E-008
  -69.0900000000000         6.935111624147313E-008
  -68.9000000000000         7.026798127454818E-008
  -68.7100000000000         7.113296577708371E-008
  -68.5200000000000         7.199319457741612E-008
  -68.3300000000000         7.281917305388492E-008
  -68.1400000000000         7.357393185821392E-008
  -67.9500000000000         7.417936293906007E-008
  -67.7600000000000         7.471607292156396E-008
  -67.5700000000000         7.537882373197553E-008
  -67.3800000000000         7.633409883348172E-008
  -67.1900000000000         7.738043835120814E-008
  -67.0000000000000         7.811987651092257E-008
  -66.8100000000000         7.994978911133936E-008
  -66.6200000000000         8.038439675911514E-008
  -66.4300000000000         8.126154365560977E-008
  -66.2400000000000         8.408271237277078E-008
  -66.0500000000000         8.447357393953291E-008
  -65.8600000000000         8.499270621179207E-008
  -65.6700000000000         8.623291902276545E-008
  -65.4800000000000         8.784918693589146E-008
  -65.2900000000000         8.960995657852438E-008
  -65.1000000000000         9.154538975499535E-008
  -64.9100000000000         9.351620124146379E-008
  -64.7200000000000         9.537245522574029E-008
  -64.5300000000000         9.752057492109043E-008
  -64.3400000000000         9.953466931906990E-008
  -64.1500000000000         1.013119701553908E-007
  -63.9600000000000         1.029098218077991E-007
  -63.7700000000000         1.044246814219211E-007
  -63.5800000000000         1.061334551879568E-007
  -63.3900000000000         1.078398315265644E-007
  -63.2000000000000         1.095414561315820E-007
  -63.0100000000000         1.111055556546289E-007
  -62.8200000000000         1.125591712499953E-007
  -62.6300000000000         1.138064177296036E-007
  -62.4400000000000         1.148676015114162E-007
  -62.2500000000000         1.158177903995465E-007
  -62.0600000000000         1.166679306123160E-007
  -61.8700000000000         1.174071300123936E-007
  -61.6800000000000         1.180357602107492E-007
  -61.4900000000000         1.185791611432206E-007
  -61.3000000000000         1.192027370447652E-007
  -61.1100000000000         1.199259932436703E-007
  -60.9200000000000         1.206891885991656E-007
  -60.7300000000000         1.217423499965996E-007
  -60.5400000000000         1.229665980916067E-007
  -60.3500000000000         1.242462046138799E-007
  -60.1600000000000         1.257180017151674E-007
  -59.9700000000000         1.271878507638840E-007
  -59.7800000000000         1.286970468194138E-007
  -59.5900000000000         1.305285288207753E-007
  -59.4000000000000         1.325503527826254E-007
  -59.2100000000000         1.348841789184896E-007
  -59.0200000000000         1.374751239375564E-007
  -58.8300000000000         1.399381301324942E-007
  -58.6400000000000         1.421420285447851E-007
  -58.4500000000000         1.447612401838606E-007
  -58.2600000000000         1.478214573907608E-007
  -58.0700000000000         1.505427951270241E-007
  -57.8800000000000         1.539464214333500E-007
  -57.6900000000000         1.569480883953922E-007
  -57.5000000000000         1.594855314620274E-007
  -57.3100000000000         1.607967335480031E-007
  -57.1200000000000         1.653787066515345E-007
  -56.9300000000000         1.663334645644669E-007
  -56.7400000000000         1.683726842688108E-007
  -56.5500000000000         1.707796325114509E-007
  -56.3600000000000         1.718140592120623E-007
  -56.1700000000000         1.738623491574334E-007
  -55.9800000000000         1.745550700977566E-007
  -55.7900000000000         1.761050512486730E-007
  -55.6000000000000         1.772346666718163E-007
  -55.4100000000000         1.787131666549069E-007
  -55.2200000000000         1.803290034077861E-007
  -55.0300000000000         1.820178167980964E-007
  -54.8400000000000         1.838748058801240E-007
  -54.6500000000000         1.857981481751288E-007
  -54.4600000000000         1.878579972093241E-007
  -54.2700000000000         1.899089521581130E-007
  -54.0800000000000         1.920394215154475E-007
  -53.8900000000000         1.941525726187515E-007
  -53.7000000000000         1.965072585029132E-007
  -53.5100000000000         1.990849494764224E-007
  -53.3200000000000         2.018201886845354E-007
  -53.1300000000000         2.050604556153052E-007
  -52.9400000000000         2.084231912383287E-007
  -52.7500000000000         2.118108890522444E-007
  -52.5600000000000         2.150182055599202E-007
  -52.3700000000000         2.190445176980606E-007
  -52.1800000000000         2.203492513691028E-007
  -51.9900000000000         2.300129542693613E-007
  -51.8000000000000         2.313306450108789E-007
  -51.6100000000000         2.333995696712503E-007
  -51.4200000000000         2.369456932203011E-007
  -51.2300000000000         2.415436215507370E-007
  -51.0400000000000         2.426962844681445E-007
  -50.8500000000000         2.460659958558632E-007
  -50.6600000000000         2.473681782158438E-007
  -50.4700000000000         2.536826045524442E-007
  -50.2800000000000         2.549126271682969E-007
  -50.0900000000000         2.568448328315882E-007
  -49.9000000000000         2.605277399664964E-007
  -49.7100000000000         2.618949322831010E-007
  -49.5200000000000         2.661349853170422E-007
  -49.3300000000000         2.675845358619595E-007
  -49.1400000000000         2.727670981227976E-007
  -48.9500000000000         2.744170869842976E-007
  -48.7600000000000         2.793045122714492E-007
  -48.5700000000000         2.834305724491039E-007
  -48.3800000000000         2.877484096695858E-007
  -48.1900000000000         2.920997781567668E-007
  -48.0000000000000         2.966032922995503E-007
  -47.8100000000000         3.013559660748124E-007
  -47.6200000000000         3.055533204869251E-007
  -47.4300000000000         3.096337081660914E-007
  -47.2400000000000         3.142142924413314E-007
  -47.0500000000000         3.179499352665398E-007
  -46.8600000000000         3.223165007551843E-007
  -46.6700000000000         3.266715986668113E-007
  -46.4800000000000         3.307364498570850E-007
  -46.2900000000000         3.346014148104712E-007
  -46.1000000000000         3.377827882866824E-007
  -45.9100000000000         3.416647884210150E-007
  -45.7200000000000         3.454052030064653E-007
  -45.5300000000000         3.492517384277432E-007
  -45.3400000000000         3.534434854423798E-007
  -45.1500000000000         3.574873039914381E-007
  -44.9600000000000         3.615347132704164E-007
  -44.7700000000000         3.648801800948144E-007
  -44.5800000000000         3.687976528525539E-007
  -44.3900000000000         3.720393198025315E-007
  -44.2000000000000         3.761718581685667E-007
  -44.0100000000000         3.796623761907547E-007
  -43.8200000000000         3.840770438169518E-007
  -43.6300000000000         3.875382577605151E-007
  -43.4400000000000         3.923475433956653E-007
  -43.2500000000000         3.953435674118707E-007
  -43.0600000000000         3.999426321816214E-007
  -42.8700000000000         4.035662528038047E-007
  -42.6800000000000         4.082140295710976E-007
  -42.4900000000000         4.113117201120240E-007
  -42.3000000000000         4.161617405258079E-007
  -42.1100000000000         4.190018013331504E-007
  -41.9200000000000         4.238997697297215E-007
  -41.7300000000000         4.272212522718172E-007
  -41.5400000000000         4.319496662495601E-007
  -41.3500000000000         4.344789751866024E-007
  -41.1600000000000         4.393114637420773E-007
  -40.9700000000000         4.412513918733046E-007
  -40.7800000000000         4.470708099865184E-007
  -40.5900000000000         4.491876572132386E-007
  -40.4000000000000         4.568010317652641E-007
  -40.2100000000000         4.590147072905574E-007
  -40.0200000000000         4.670221572449029E-007
  -39.8300000000000         4.691283525342837E-007
  -39.6400000000000         4.784864478214979E-007
  -39.4500000000000         4.807343170225743E-007
  -39.2600000000000         4.895198871634027E-007
  -39.0700000000000         4.926530350987333E-007
  -38.8800000000000         5.030281136551056E-007
  -38.6900000000000         5.063377536733683E-007
  -38.5000000000000         5.169398313063221E-007
  -38.3100000000000         5.199893735480470E-007
  -38.1200000000000         5.293683517270200E-007
  -37.9300000000000         5.322145617105609E-007
  -37.7400000000000         5.408154932799432E-007
  -37.5500000000000         5.435443304162476E-007
  -37.3600000000000         5.516804287498080E-007
  -37.1700000000000         5.543132117200182E-007
  -36.9800000000000         5.618993162884552E-007
  -36.7900000000000         5.644540499064815E-007
  -36.6000000000000         5.718718619528300E-007
  -36.4100000000000         5.740996573035156E-007
  -36.2200000000000         5.813043432308444E-007
  -36.0300000000000         5.833717979954848E-007
  -35.8400000000000         5.911530494626404E-007
  -35.6500000000000         5.933782035820821E-007
  -35.4600000000000         6.019794853631240E-007
  -35.2700000000000         6.043766799110215E-007
  -35.0800000000000         6.135884327076937E-007
  -34.8900000000000         6.159510762601472E-007
  -34.7000000000000         6.259253475890474E-007
  -34.5100000000000         6.283360455961726E-007
  -34.3200000000000         6.382462867436388E-007
  -34.1300000000000         6.411601687890257E-007
  -33.9400000000000         6.528914077777222E-007
  -33.7500000000000         6.561922540734402E-007
  -33.5600000000000         6.673637406770929E-007
  -33.3700000000000         6.702775860003199E-007
  -33.1800000000000         6.825173006261850E-007
  -32.9900000000000         6.850706317682703E-007
  -32.8000000000000         6.957937084249143E-007
  -32.6100000000000         6.983248392868831E-007
  -32.4200000000000         7.095602930950166E-007
  -32.2300000000000         7.123128688119040E-007
  -32.0400000000000         7.234529076047107E-007
  -31.8500000000000         7.262088023320263E-007
  -31.6600000000000         7.373548326829809E-007
  -31.4700000000000         7.400581144747304E-007
  -31.2800000000000         7.509179458242612E-007
  -31.0900000000000         7.538149056182179E-007
  -30.9000000000000         7.647383632292200E-007
  -30.7100000000000         7.678472119175322E-007
  -30.5200000000000         7.788192441874112E-007
  -30.3300000000000         7.818760457115489E-007
  -30.1400000000000         7.934310537768350E-007
  -29.9500000000000         7.963304576100486E-007
  -29.7600000000000         8.081389981094471E-007
  -29.5700000000000         8.110389065551883E-007
  -29.3800000000000         8.220713696900904E-007
  -29.1900000000000         8.254432450599819E-007
  -29.0000000000000         8.375250539372907E-007
  -28.8100000000000         8.417142684339092E-007
  -28.6200000000000         8.529386578903812E-007
  -28.4300000000000         8.578708433482281E-007
  -28.2400000000000         8.684648983380779E-007
  -28.0500000000000         8.731320855829698E-007
  -27.8600000000000         8.820047878519518E-007
  -27.6700000000000         8.895564697449665E-007
  -27.4800000000000         8.966446808070137E-007
  -27.2900000000000         9.038051767883789E-007
  -27.1000000000000         9.109215721929064E-007
  -26.9100000000000         9.176499974996500E-007
  -26.7200000000000         9.238356771400069E-007
  -26.5300000000000         9.306544340332089E-007
  -26.3400000000000         9.372312477264155E-007
  -26.1500000000000         9.444398488399686E-007
  -25.9600000000000         9.517998594561780E-007
  -25.7700000000000         9.595618439257069E-007
  -25.5800000000000         9.675180984015015E-007
  -25.3900000000000         9.750712913038787E-007
  -25.2000000000000         9.824435542666702E-007
  -25.0100000000000         9.907128951847059E-007
  -24.8200000000000         9.985536703736397E-007
  -24.6300000000000         1.007002871924520E-006
  -24.4400000000000         1.016071392947823E-006
  -24.2500000000000         1.024594384697181E-006
  -24.0600000000000         1.033820591814917E-006
  -23.8700000000000         1.042333717981519E-006
  -23.6800000000000         1.050332433994314E-006
  -23.4900000000000         1.058931001722714E-006
  -23.3000000000000         1.067889402359380E-006
  -23.1100000000000         1.076609373421777E-006
  -22.9200000000000         1.085463918831749E-006
  -22.7300000000000         1.094790642882313E-006
  -22.5400000000000         1.103897596796713E-006
  -22.3500000000000         1.113067458973619E-006
  -22.1600000000000         1.122674864816290E-006
  -21.9700000000000         1.132043143281854E-006
  -21.7800000000000         1.140882606551616E-006
  -21.5900000000000         1.150454490487777E-006
  -21.4000000000000         1.159597927061147E-006
  -21.2100000000000         1.167968948514743E-006
  -21.0200000000000         1.178531711540840E-006
  -20.8300000000000         1.183165014057246E-006
  -20.6400000000000         1.196512088797913E-006
  -20.4500000000000         1.199706379841119E-006
  -20.2600000000000         1.216975616425098E-006
  -20.0700000000000         1.219761020669584E-006
  -19.8800000000000         1.227442512401252E-006
  -19.6900000000000         1.239918985863579E-006
  -19.5000000000000         1.243061567217127E-006
  -19.3100000000000         1.260558406138386E-006
  -19.1200000000000         1.263705824593924E-006
  -18.9300000000000         1.274965989384526E-006
  -18.7400000000000         1.278640328790400E-006
  -18.5500000000000         1.296698806200021E-006
  -18.3600000000000         1.299673331948345E-006
  -18.1700000000000         1.310388487679500E-006
  -17.9800000000000         1.323099750026945E-006
  -17.7900000000000         1.326761308699879E-006
  -17.6000000000000         1.341082398126798E-006
  -17.4100000000000         1.344274196423486E-006
  -17.2200000000000         1.359504016054203E-006
  -17.0300000000000         1.362840425297166E-006
  -16.8400000000000         1.378353210638857E-006
  -16.6500000000000         1.381971848525704E-006
  -16.4600000000000         1.399290745973206E-006
  -16.2700000000000         1.402882690593634E-006
  -16.0800000000000         1.420912501706323E-006
  -15.8900000000000         1.424424055400629E-006
  -15.7000000000000         1.441199602823771E-006
  -15.5100000000000         1.444952409535706E-006
  -15.3200000000000         1.463640172396407E-006
  -15.1300000000000         1.467108846909846E-006
  -14.9400000000000         1.482023393082747E-006
  -14.7500000000000         1.485640871462489E-006
  -14.5600000000000         1.504777840644007E-006
  -14.3700000000000         1.508207859425243E-006
  -14.1800000000000         1.522127125428247E-006
  -13.9900000000000         1.525960535340456E-006
  -13.8000000000000         1.543495948885326E-006
  -13.6100000000000         1.546721587394147E-006
  -13.4200000000000         1.560848136159364E-006
  -13.2300000000000         1.564156365891824E-006
  -13.0400000000000         1.582153204135697E-006
  -12.8500000000000         1.585385695704222E-006
  -12.6600000000000         1.599977819437843E-006
  -12.4700000000000         1.603442886896369E-006
  -12.2800000000000         1.621669945430486E-006
  -12.0900000000000         1.625066137563659E-006
  -11.9000000000000         1.641947546503071E-006
  -11.7100000000000         1.645578045624845E-006
  -11.5200000000000         1.665231265162190E-006
  -11.3300000000000         1.668932541175693E-006
  -11.1400000000000         1.685533806927270E-006
  -10.9500000000000         1.689289976213364E-006
  -10.7600000000000         1.709482757691541E-006
  -10.5700000000000         1.713075880121126E-006
  -10.3800000000000         1.727491495893401E-006
  -10.1900000000000         1.731278967928722E-006
  -10.0000000000000         1.751522478740368E-006
  -9.81000000000000         1.755164428296626E-006
  -9.62000000000000         1.768970386577836E-006
  -9.42999999999999         1.773211370175852E-006
  -9.23999999999999         1.793397796260845E-006
  -9.05000000000000         1.797119872321110E-006
  -8.86000000000000         1.813796419647656E-006
  -8.67000000000000         1.817739187962067E-006
  -8.48000000000000         1.837939932970836E-006
  -8.28999999999999         1.841863186043849E-006
  -8.09999999999999         1.858794330451959E-006
  -7.91000000000000         1.863061990752548E-006
  -7.72000000000000         1.884129313575363E-006
  -7.53000000000000         1.888234420296816E-006
  -7.34000000000000         1.905965809666184E-006
  -7.15000000000001         1.910171808323749E-006
  -6.95999999999999         1.930048975968894E-006
  -6.77000000000000         1.934292263911962E-006
  -6.58000000000000         1.951285702778870E-006
  -6.39000000000000         1.955795148164674E-006
  -6.20000000000000         1.977642054801581E-006
  -6.01000000000001         1.981805490281004E-006
  -5.81999999999999         1.991334003403059E-006
  -5.63000000000000         2.010813478458935E-006
  -5.44000000000000         2.015169883074258E-006
  -5.25000000000000         2.031193028281093E-006
  -5.06000000000000         2.035787482596990E-006
  -4.87000000000000         2.058503380122959E-006
  -4.67999999999999         2.062727396442256E-006
  -4.48999999999999         2.068698803261228E-006
  -4.30000000000000         2.087580397216151E-006
  -4.11000000000000         2.091984149724534E-006
  -3.92000000000000         2.099880608100122E-006
  -3.73000000000000         2.123998968419178E-006
  -3.53999999999999         2.128359959406983E-006
  -3.34999999999999         2.134463799003459E-006
  -3.16000000000000         2.150632204571679E-006
  -2.97000000000000         2.155574822448136E-006
  -2.78000000000000         2.179498552207628E-006
  -2.59000000000000         2.184234227390858E-006
  -2.40000000000001         2.192095247495140E-006
  -2.20999999999999         2.216241299459396E-006
  -2.02000000000000         2.220962862234654E-006
  -1.83000000000000         2.228162804625636E-006
  -1.64000000000000         2.248065652830986E-006
  -1.45000000000000         2.252862830721843E-006
  -1.26000000000001         2.262889214863701E-006
  -1.06999999999999         2.287244063021314E-006
 -0.879999999999995         2.291940080541292E-006
 -0.689999999999998         2.298222486482904E-006
 -0.500000000000000         2.306954781189989E-006
 -0.310000000000002         2.326559331380738E-006
 -0.120000000000005         2.331386833991606E-006
  7.000000000000739E-002    2.338919966401439E-006
  0.260000000000005         2.351892343292083E-006
  0.450000000000003         2.357592612408763E-006
  0.640000000000001         2.387100112885202E-006
  0.829999999999998         2.391930004828964E-006
   1.02000000000000         2.398444018006181E-006
   1.21000000000001         2.407201999636990E-006
   1.40000000000001         2.415812192661158E-006
   1.59000000000000         2.424270694966363E-006
   1.78000000000000         2.432713257346091E-006
   1.97000000000000         2.441576892577395E-006
   2.16000000000000         2.450224802190782E-006
   2.34999999999999         2.488256786446315E-006
   2.54000000000001         2.493904134543182E-006
   2.73000000000000         2.500700780170559E-006
   2.92000000000000         2.508602470862303E-006
   3.11000000000000         2.516936328399368E-006
   3.30000000000000         2.525408754553784E-006
   3.48999999999999         2.534450999584119E-006
   3.68000000000001         2.543904241311028E-006
   3.87000000000000         2.555158582859112E-006
   4.06000000000000         2.564590237983063E-006
   4.25000000000000         2.576293094069028E-006
   4.44000000000000         2.585771377751473E-006
   4.63000000000000         2.597902062441558E-006
   4.82000000000001         2.607729359608619E-006
   5.01000000000001         2.621167129841830E-006
   5.20000000000000         2.630756986636791E-006
   5.39000000000000         2.642846057759350E-006
   5.58000000000000         2.652897222913374E-006
   5.77000000000000         2.663341475124439E-006
   5.96000000000001         2.674147605191104E-006
   6.15000000000001         2.684514356433572E-006
   6.34000000000000         2.695253283739687E-006
   6.53000000000000         2.705609877003808E-006