  -105.000000000000        -1.368944574785189E-020
  -104.810000000000        -3.774772157784654E-020
  -104.620000000000        -5.296033208251500E-020
  -104.430000000000        -5.646659987146645E-020
  -104.240000000000        -4.867485369791769E-020
  -104.050000000000        -3.311206179927811E-020
  -103.860000000000        -1.537619083020183E-020
  -103.670000000000        -1.495975256623452E-021
  -103.480000000000         3.824943224704133E-021
  -103.290000000000        -1.430720905280858E-021
  -103.100000000000        -1.602170719046639E-020
  -102.910000000000        -3.582894527380221E-020
  -102.720000000000        -5.507563782683616E-020
  -102.530000000000        -6.803005533239037E-020
  -102.340000000000        -7.069572561702895E-020
  -102.150000000000        -6.199835111424806E-020
  -101.960000000000        -4.412462279193286E-020
  -101.770000000000        -2.191320750753512E-020
  -101.580000000000        -1.472591524523392E-021
  -101.390000000000         1.157463136456009E-020
  -101.200000000000         1.371154534860721E-020
  -101.010000000000         4.539470636181451E-021
  -100.820000000000        -1.311177231699865E-020
  -100.630000000000        -3.400792752849734E-020
  -100.440000000000        -5.202848325656750E-020
  -100.250000000000        -6.193746242339273E-020
  -100.060000000000        -6.089338785268189E-020
  -99.8700000000000        -4.926217136662367E-020
  -99.6800000000000        -3.049937701837825E-020
  -99.4900000000000        -1.013741202339791E-020
  -99.3000000000000         5.828521631927187E-021
  -99.1100000000000         1.268808530929080E-020
  -98.9200000000000         8.390069512340517E-021
  -98.7300000000000        -5.856436573506194E-021
  -98.5400000000000        -2.592958684210292E-020
  -98.3500000000000        -4.599042141173489E-020
  -98.1600000000000        -6.017858621347734E-020
  -97.9700000000000        -6.431437594348696E-020
  -97.7800000000000        -5.711203440131192E-020
  -97.5900000000000        -4.055226297144433E-020
  -97.4000000000000        -1.930675227744633E-020
  -97.2100000000000         6.174623367185437E-022
  -97.0200000000000         1.362039566617314E-020
  -96.8300000000000         1.613303754402670E-020
  -96.6400000000000         7.651511371454258E-021
  -96.4500000000000        -9.119490207603951E-021
  -96.2600000000000        -2.905662053992371E-020
  -96.0700000000000        -4.611203904063477E-020
  -95.8800000000000        -5.507701781280510E-020
  -95.6900000000000        -5.310127040919626E-020
  -95.5000000000000        -4.052563288589303E-020
  -95.3100000000000        -2.078626445198416E-020
  -95.1200000000000         5.810636936050498E-022
  -94.9300000000000         1.754699975637462E-020
  -94.7400000000000         2.533908529056055E-020
  -94.5500000000000         2.182930020181373E-020
  -94.3600000000000         8.156023545692388E-021
  -94.1700000000000        -1.160126170331896E-020
  -93.9800000000000        -3.160202109202295E-020
  -93.7900000000000        -4.593845807339537E-020
  -93.6000000000000        -5.035152479973406E-020
  -93.4100000000000        -4.346996922224982E-020
  -93.2200000000000        -2.721161575777101E-020
  -93.0300000000000        -6.230186999893629E-021
  -92.8400000000000         1.343124200117057E-020
  -92.6500000000000         2.608923159257424E-020
  -92.4600000000000         2.806509485244969E-020
  -92.2700000000000         1.875115797569857E-020
  -92.0800000000000         7.909421536276786E-022
  -91.8900000000000        -2.067857380802306E-020
  -91.7000000000000        -3.950441675928254E-020
  -91.5100000000000        -5.028874045173027E-020
  -91.3200000000000        -4.994159828221981E-020
  -91.1300000000000        -3.856524522121489E-020
  -90.9400000000000        -1.941302987129351E-020
  -90.7500000000000         2.065070908618109E-021
  -90.5600000000000         1.981209448288210E-020
  -90.3700000000000         2.892577127232850E-020
  -90.1800000000000         2.707960570141287E-020
  -89.9900000000000         1.519074646419124E-020
  -89.8000000000000        -2.858431543875925E-021
  -89.6100000000000        -2.136343979415622E-020
  -89.4200000000000        -3.447343437829676E-020
  -89.2300000000000        -3.791307539201925E-020
  -89.0400000000000        -3.024981689132908E-020
  -88.8500000000000        -1.333681985571562E-020
  -88.6600000000000         8.199565646619002E-021
  -88.4700000000000         2.828103995373131E-020
  -88.2800000000000         4.112489194199165E-020
  -88.0900000000000         4.291113835914129E-020
  -87.9000000000000         3.288638313067275E-020
  -87.7100000000000         1.358594842005971E-020
  -87.5200000000000        -9.888113753661150E-021
  -87.3300000000000        -3.132282160791199E-020
  -87.1400000000000        -4.516276852237526E-020
  -86.9500000000000        -4.808127121817514E-020
  -86.7600000000000        -3.990199038563132E-020
  -86.5700000000000        -2.360690495012598E-020
  -86.3800000000000        -4.431023378224395E-021
  -86.1900000000000         1.169075985761038E-020
  -86.0000000000000         1.987073755480978E-020
  -85.8100000000000         1.769926062670145E-020
  -85.6200000000000         5.942552319704464E-021
  -85.4300000000000        -1.169415129019661E-020
  -85.2400000000000        -2.966642565950362E-020
  -85.0500000000000        -4.223070403335400E-020
  -84.8600000000000        -4.514582182144281E-020
  -84.6700000000000        -3.694062037892437E-020
  -84.4800000000000        -1.937839463028074E-020
  -84.2900000000000         3.018785475994110E-021
  -84.1000000000000         2.425098705389416E-020
  -83.9100000000000         3.855772386759691E-020
  -83.7200000000000         4.207440983676620E-020
  -83.5300000000000         3.394620235006224E-020
  -83.3400000000000         1.657384046464774E-020
  -83.1500000000000        -5.081538945177031E-021
  -82.9600000000000        -2.493313289511126E-020
  -82.7700000000000        -3.752559500239814E-020
  -82.5800000000000        -3.960396094452266E-020
  -82.3900000000000        -3.103944245386202E-020
  -82.2000000000000        -1.484467071823359E-020
  -82.0100000000000         3.724760813653787E-021
  -81.8200000000000         1.872090893384922E-020
  -81.6300000000000         2.525555707005492E-020
  -81.4400000000000         2.094402109535479E-020
  -81.2500000000000         6.619616383139267E-021
  -81.0600000000000        -1.389080675882288E-020
  -80.8700000000000        -3.486649290772901E-020
  -80.6800000000000        -5.034836187074007E-020
  -80.4900000000000        -5.586901139005955E-020
  -80.3000000000000        -4.975418703321405E-020
  -80.1100000000000        -3.361792903444490E-020
  -79.9200000000000        -1.190793073027861E-020
  -79.7300000000000         9.367414788177099E-021
  -79.5400000000000         2.436254041632632E-020
  -79.3500000000000         2.907101203315829E-020
  -79.1600000000000         2.247002148127648E-020
  -78.9700000000000         6.801372159372645E-021
  -78.7800000000000        -1.309331346716796E-020
  -78.5900000000000        -3.119084941038868E-020
  -78.4000000000000        -4.204604323704949E-020
  -78.2100000000000        -4.238033073208088E-020
  -78.0200000000000        -3.203698983206841E-020
  -77.8300000000000        -1.402532993839827E-020
  -77.6400000000000         6.358340207194044E-021
  -77.4500000000000         2.307709932350233E-020
  -77.2600000000000         3.111827005142534E-020
  -77.0700000000000         2.796487584060355E-020
  -76.8800000000000         1.434612948997555E-020
  -76.6900000000000        -5.953343259647859E-021
  -76.5000000000000        -2.717432100412569E-020
  -76.3100000000000        -4.324420414569543E-020
  -76.1200000000000        -4.953849891950697E-020
  -75.9300000000000        -4.423053265818633E-020
  -75.7400000000000        -2.883492214248042E-020
  -75.5500000000000        -7.784081354341238E-021
  -75.3600000000000         1.284133427903823E-020
  -75.1700000000000         2.706083223563211E-020
  -74.9800000000000         3.071547671987692E-020
  -74.7900000000000         2.266516033703027E-020
  -74.6000000000000         5.116968864300558E-021
  -74.4100000000000        -1.700911503170668E-020
  -74.2200000000000        -3.749357523621352E-020
  -74.0300000000000        -5.060196127912757E-020
  -73.8400000000000        -5.272600613212408E-020
  -73.6500000000000        -4.340797099980490E-020
  -73.4600000000000        -2.545331470864544E-020
  -73.2700000000000        -4.101035895666508E-021
  -73.0800000000000         1.450564550155434E-020
  -72.8900000000000         2.510319580746607E-020
  -72.7000000000000         2.482868406384350E-020
  -72.5100000000000         1.403794081881191E-020
  -72.3200000000000        -3.814156425677165E-021
  -72.1300000000000        -2.319465309164757E-020
  -71.9400000000000        -3.811766706982804E-020
  -71.7500000000000        -4.390201778387716E-020
  -71.5600000000000        -3.855081190542985E-020
  -71.3700000000000        -2.335107052536439E-020
  -71.1800000000000        -2.517171985781684E-021
  -70.9900000000000         1.802007138243449E-020
  -70.8000000000000         3.232762432609861E-020
  -70.6100000000000         3.618969298768469E-020
  -70.4200000000000         2.833315900914243E-020
  -70.2300000000000         1.080415055650359E-020
  -70.0400000000000        -1.161208563859014E-020
  -69.8500000000000        -3.275902943928738E-020
  -69.6600000000000        -4.686896093023884E-020
  -69.4700000000000        -5.020788092756201E-020
  -69.2800000000000        -4.213172039855753E-020
  -69.0900000000000        -2.524994237769050E-020
  -68.9000000000000        -4.650073258878213E-021
  -68.7100000000000         1.359152804256254E-020
  -68.5200000000000         2.417978390122643E-020
  -68.3300000000000         2.413674689524143E-020
  -68.1400000000000         1.365627492403548E-020
  -67.9500000000000        -3.969934573004725E-021
  -67.7600000000000        -2.333066773619285E-020
  -67.5700000000000        -3.849006090016461E-020
  -67.3800000000000        -4.473309385895680E-020
  -67.1900000000000        -3.995400792721148E-020
  -67.0000000000000        -2.528512653493882E-020
  -66.8100000000000        -4.784224944575414E-021
  -66.6200000000000         1.572909638691077E-020
  -66.4300000000000         3.035158418819085E-020
  -66.2400000000000         3.480331925167433E-020
  -66.0500000000000         2.766858044435277E-020
  -65.8600000000000         1.081011857179387E-020
  -65.6700000000000        -1.116378019473626E-020
  -65.4800000000000        -3.222466047539724E-020
  -65.2900000000000        -4.665666421718023E-020
  -65.1000000000000        -5.069391176792556E-020
  -64.9100000000000        -4.358843966672254E-020
  -64.7200000000000        -2.780078517128191E-020
  -64.5300000000000        -8.260018327306411E-021
  -64.3400000000000         9.090489929122596E-021
  -64.1500000000000         1.903840637595630E-020
  -63.9600000000000         1.863099862032790E-020
  -63.7700000000000         8.041513376251631E-021
  -63.5800000000000        -9.479587320313845E-021
  -63.3900000000000        -2.855457677066596E-020
  -63.2000000000000        -4.325234835836017E-020
  -63.0100000000000        -4.882681980401429E-020
  -62.8200000000000        -4.311305166904535E-020
  -62.6300000000000        -2.717509551609138E-020
  -62.4400000000000        -5.018025824918590E-021
  -62.2500000000000         1.755189949249989E-020
  -62.0600000000000         3.458906115013091E-020
  -61.8700000000000         4.171203168852513E-020
  -61.6800000000000         3.735634483997790E-020
  -61.4900000000000         2.321345409943074E-020
  -61.3000000000000         3.727646053850747E-021
  -61.1100000000000        -1.520415185561308E-020
  -60.9200000000000        -2.795220650508117E-020
  -60.7300000000000        -3.079269938075551E-020
  -60.5400000000000        -2.298781383041949E-020
  -60.3500000000000        -6.993154006583869E-021
  -60.1600000000000         1.226632476937804E-020
  -59.9700000000000         2.883931682941492E-020
  -59.7800000000000         3.748937157312934E-020
  -59.5900000000000         3.522839327571752E-020
  -59.4000000000000         2.219777738255136E-020
  -59.2100000000000         1.641596318850254E-021
  -59.0200000000000        -2.102134411559491E-020
  -58.8300000000000        -3.975886471461291E-020
  -58.6400000000000        -4.966795047268165E-020
  -58.4500000000000        -4.839209753961113E-020
  -58.2600000000000        -3.680033372491048E-020
  -58.0700000000000        -1.872913647472975E-020
  -57.8800000000000         1.384368118108853E-022
  -57.6900000000000         1.393044762181586E-020
  -57.5000000000000         1.829840864002146E-020
  -57.3100000000000         1.168669300428101E-020
  -57.1200000000000        -4.209373119417036E-021
  -56.9300000000000        -2.492973069970990E-020
  -56.7400000000000        -4.453962412860198E-020
  -56.5500000000000        -5.734989576960409E-020
  -56.3600000000000        -5.956857988991998E-020
  -56.1700000000000        -5.040392563269619E-020
  -55.9800000000000        -3.229777307232284E-020
  -55.7900000000000        -1.022105584512749E-020
  -55.6000000000000         9.763541699534265E-021
  -55.4100000000000         2.225333665094056E-020
  -55.2200000000000         2.406259785259198E-020
  -55.0300000000000         1.513342340218156E-020
  -54.8400000000000        -1.462161037886718E-021
  -54.6500000000000        -2.042807499090033E-020
  -54.4600000000000        -3.579489492622778E-020
  -54.2700000000000        -4.266607433101417E-020
  -54.0800000000000        -3.865334006150546E-020
  -53.8900000000000        -2.458371721531032E-020
  -53.7000000000000        -4.270581604809417E-021
  -53.5100000000000         1.658728714211844E-020
  -53.3200000000000         3.206000985323481E-020
  -53.1300000000000         3.771301118628579E-020
  -52.9400000000000         3.190242431682270E-020
  -52.7500000000000         1.626204749250002E-020
  -52.5600000000000        -4.759802122448649E-021
  -52.3700000000000        -2.517884735137355E-020
  -52.1800000000000        -3.919798680995089E-020
  -51.9900000000000        -4.287627072912716E-020
  -51.8000000000000        -3.526123691664421E-020
  -51.6100000000000        -1.865706468472688E-020
  -51.4200000000000         2.049716208487114E-021
  -51.2300000000000         2.081254841656365E-020
  -51.0400000000000         3.218319305818664E-020
  -50.8500000000000         3.289535867927872E-020
  -50.6600000000000         2.281279576793106E-020
  -50.4700000000000         4.965810754369989E-021
  -50.2800000000000        -1.533408328286659E-020
  -50.0900000000000        -3.204308637127843E-020
  -49.9000000000000        -4.014687298512855E-020
  -49.7100000000000        -3.712386817792047E-020
  -49.5200000000000        -2.368629529480693E-020
  -49.3300000000000        -3.584648528196188E-021
  -49.1400000000000         1.746803742268465E-020
  -48.9500000000000         3.344130264058558E-020
  -48.7600000000000         3.972593657770575E-020
  -48.5700000000000         3.446270172514636E-020
  -48.3800000000000         1.907585309582635E-020
  -48.1900000000000        -2.143205417407520E-021
  -48.0000000000000        -2.328072105355733E-020
  -47.8100000000000        -3.851183762895522E-020
  -47.6200000000000        -4.378164450660982E-020
  -47.4300000000000        -3.796937994139705E-020
  -47.2400000000000        -2.319977488189412E-020
  -47.0500000000000        -4.212527381527873E-021
  -46.8600000000000         1.302698681475067E-020
  -46.6700000000000         2.307338068041176E-020
  -46.4800000000000         2.259718676254992E-020
  -46.2900000000000         1.136692000552143E-020
  -46.1000000000000        -7.670045366676577E-021
  -45.9100000000000        -2.923331982823172E-020
  -45.7200000000000        -4.723683278846568E-020
  -45.5300000000000        -5.655276191377468E-020
  -45.3400000000000        -5.449799662976605E-020
  -45.1500000000000        -4.161070719628082E-020
  -44.9600000000000        -2.149240648053155E-020
  -44.7700000000000         2.367935713783423E-022
  -44.5800000000000         1.756510978021446E-020
  -44.3900000000000         2.582610965229711E-020
  -44.2000000000000         2.304278458425626E-020
  -44.0100000000000         1.048926390546190E-020
  -43.8200000000000        -7.693315966275203E-021
  -43.6300000000000        -2.571626681658295E-020
  -43.4400000000000        -3.784444578507725E-020
  -43.2500000000000        -4.008404405898665E-020
  -43.0600000000000        -3.136477021756450E-020
  -42.8700000000000        -1.387082686930364E-020
  -42.6800000000000         7.576757231956935E-021
  -42.4900000000000         2.690734517540785E-020
  -42.3000000000000         3.855479950134204E-020
  -42.1100000000000         3.906996412433231E-020
  -41.9200000000000         2.812453491686711E-020
  -41.7300000000000         8.615536520018430E-021
  -41.5400000000000        -1.416038898642422E-020
  -41.3500000000000        -3.402465942166358E-020
  -41.1600000000000        -4.568758912557211E-020
  -40.9700000000000        -4.625955974208682E-020
  -40.7800000000000        -3.606444517594169E-020
  -40.5900000000000        -1.851989473382149E-020
  -40.4000000000000         8.792303208516173E-022
  -40.2100000000000         1.617715117347774E-020
  -40.0200000000000         2.270245123536191E-020
  -39.8300000000000         1.843509333794083E-020
  -39.6400000000000         4.598319129428000E-021
  -39.4500000000000        -1.469655305664471E-020
  -39.2600000000000        -3.365005173507845E-020
  -39.0700000000000        -4.647173851207834E-020
  -38.8800000000000        -4.908168935363787E-020
  -38.6900000000000        -4.031986791379895E-020
  -38.5000000000000        -2.230821198491689E-020
  -38.3100000000000         1.434709783897178E-022
  -38.1200000000000         2.091713555011604E-020
  -37.9300000000000         3.435079293360413E-020
  -37.7400000000000         3.687391720595109E-020
  -37.5500000000000         2.803826654063491E-020
  -37.3600000000000         1.064503305680594E-020
  -37.1700000000000        -1.006810157152616E-020
  -36.9800000000000        -2.794472540666841E-020
  -36.7900000000000        -3.769416044362319E-020
  -36.6000000000000        -3.642760890498857E-020
  -36.4100000000000        -2.450156929369557E-020
  -36.2200000000000        -5.422747129270936E-021
  -36.0300000000000         1.516074923981490E-020
  -35.8400000000000         3.109224644048546E-020
  -35.6500000000000         3.749146549511103E-020
  -35.4600000000000         3.217406152246473E-020
  -35.2700000000000         1.629362256148413E-020
  -35.0800000000000        -5.980014437525589E-021
  -34.8900000000000        -2.865242539612671E-020
  -34.7000000000000        -4.562090090082438E-020
  -34.5100000000000        -5.241925149078473E-020
  -34.3200000000000        -4.748773691215884E-020
  -34.1300000000000        -3.260251231809947E-020
  -33.9400000000000        -1.234182495418068E-020
  -33.7500000000000         7.255707221767872E-021
  -33.5600000000000         2.045175242775974E-020
  -33.3700000000000         2.347707332315930E-020
  -33.1800000000000         1.562386306895135E-020
  -32.9900000000000        -5.555360432118440E-022
  -32.8000000000000        -2.000062733880822E-020
  -32.6100000000000        -3.662627947454695E-020
  -32.4200000000000        -4.510658279095598E-020
  -32.2300000000000        -4.244123088310778E-020
  -32.0400000000000        -2.884990752546164E-020
  -31.8500000000000        -7.734600418329072E-021
  -31.6600000000000         1.528095716947232E-020
  -31.4700000000000         3.395862584625235E-020
  -31.2800000000000         4.323582638033315E-020
  -31.0900000000000         4.067952527856989E-020
  -30.9000000000000         2.718196726499436E-020
  -30.7100000000000         6.696005853926636E-021
  -30.5200000000000        -1.491249113871819E-020
  -30.3300000000000        -3.156084693815798E-020
  -30.1400000000000        -3.870147014867582E-020
  -29.9500000000000        -3.462223358917398E-020
  -29.7600000000000        -2.092120993804938E-020
  -29.5700000000000        -2.021765074249100E-021
  -29.3800000000000         1.612908683707264E-020
  -29.1900000000000         2.780152758634364E-020
  -29.0000000000000         2.915930600534922E-020
  -28.8100000000000         1.938631323606090E-020
  -28.6200000000000         9.363216055959481E-022
  -28.4300000000000        -2.116764394292828E-020
  -28.2400000000000        -4.078181882772325E-020
  -28.0500000000000        -5.241738900444749E-020
  -27.8600000000000        -5.282685376206261E-020
  -27.6700000000000        -4.194013761174640E-020
  -27.4800000000000        -2.287992028022282E-020
  -27.2900000000000        -1.054042239927480E-021
  -27.1000000000000         1.740959907535804E-020
  -26.9100000000000         2.743081541777482E-020
  -26.7200000000000         2.643544450535360E-020
  -26.5300000000000         1.508278496792744E-020
  -26.3400000000000        -2.947313720406336E-021
  -26.1500000000000        -2.204484338974606E-020
  -25.9600000000000        -3.631995241634084E-020
  -25.7700000000000        -4.133233598441221E-020
  -25.5800000000000        -3.539543241042367E-020
  -25.3900000000000        -2.007524482088618E-020
  -25.2000000000000         2.612198525809241E-022
  -25.0100000000000         1.971586725256981E-020
  -24.8200000000000         3.257781723623498E-020
  -24.6300000000000         3.499032714053568E-020
  -24.4400000000000         2.608209741736559E-020
  -24.2500000000000         8.234235731238825E-021
  -24.0600000000000        -1.359571765724742E-020
  -23.8700000000000        -3.329825002223553E-020
  -23.6800000000000        -4.537265466988039E-020
  -23.4900000000000        -4.651307601939149E-020
  -23.3000000000000        -3.655862525201751E-020
  -23.1100000000000        -1.853121176965359E-020
  -22.9200000000000         2.249353240721558E-021
  -22.7300000000000         1.971449407185028E-020
  -22.5400000000000         2.880889553825644E-020
  -22.3500000000000         2.695363771584091E-020
  -22.1600000000000         1.478723074062134E-020
  -21.9700000000000        -4.028410330326838E-021
  -21.7800000000000        -2.387951230630256E-020
  -21.5900000000000        -3.883856518793741E-020
  -21.4000000000000        -4.439403349492734E-020
  -21.2100000000000        -3.876940718268874E-020
  -21.0200000000000        -2.344743915994475E-020
  -20.8300000000000        -2.745643526680981E-021
  -20.6400000000000         1.743456203326791E-020
  -20.4500000000000         3.132092570016035E-020
  -20.2600000000000         3.494608449412939E-020
  -20.0700000000000         2.729775644111934E-020
  -19.8800000000000         1.060943371716002E-020
  -19.6900000000000        -1.029161983583097E-020
  -19.5000000000000        -2.938850648956908E-020
  -19.3100000000000        -4.122284313355137E-020
  -19.1200000000000        -4.247977325197864E-020
  -18.9300000000000        -3.295011296028317E-020
  -18.7400000000000        -1.558979800685449E-020
  -18.5500000000000         4.342108352293758E-021
  -18.3600000000000         2.081792062551796E-020
  -18.1700000000000         2.880295764018750E-020
  -17.9800000000000         2.573183132558405E-020
  -17.7900000000000         1.226950645173026E-020
  -17.6000000000000        -7.864772659083181E-021
  -17.4100000000000        -2.896020656558659E-020
  -17.2200000000000        -4.495613007630333E-020
  -17.0300000000000        -5.118770895953943E-020
  -16.8400000000000        -4.573121431314497E-020
  -16.6500000000000        -2.996029826636327E-020
  -16.4600000000000        -8.152195244035298E-021
  -16.2700000000000         1.374290166970095E-020
  -16.0800000000000         2.981348853981258E-020
  -15.8900000000000         3.588349742799549E-020
  -15.7000000000000         3.070212533114126E-020
  -15.5100000000000         1.628217037868483E-020
  -15.3200000000000        -2.709509548092412E-021
  -15.1300000000000        -2.032962962859638E-020
  -14.9400000000000        -3.110158001240767E-020
  -14.7500000000000        -3.161689330793465E-020
  -14.5600000000000        -2.153095067262738E-020
  -14.3700000000000        -3.665232728052069E-021
  -14.1800000000000         1.681299666090279E-020
  -13.9900000000000         3.389582191460295E-020
  -13.8000000000000         4.248810118485850E-020
  -13.6100000000000         3.989943391679322E-020
  -13.4200000000000         2.663911576826967E-020
  -13.2300000000000         6.279978731875497E-021
  -13.0400000000000        -1.557165652881967E-020
  -12.8500000000000        -3.290080182420076E-020
  -12.6600000000000        -4.102974878224349E-020
  -12.4700000000000        -3.797617615986082E-020
  -12.2800000000000        -2.502807280310043E-020
  -12.0900000000000        -6.368477529533109E-021
  -11.9000000000000         1.214093941644579E-020
  -11.7100000000000         2.466488132092958E-020
  -11.5200000000000         2.709437980718376E-020
  -11.3300000000000         1.824939860590159E-020
  -11.1400000000000         2.349029249287086E-022
  -10.9500000000000        -2.215436077850228E-020
  -10.7600000000000        -4.280924179576608E-020
  -10.5700000000000        -5.606350669982393E-020
  -10.3800000000000        -5.832348676607401E-020
  -10.1900000000000        -4.909753915470820E-020
  -10.0000000000000        -3.112752662974394E-020
  -9.81000000000000        -9.585695481513356E-021
  -9.62000000000000         9.428463197690355E-021
  -9.42999999999999         2.065452312598145E-020
  -9.23999999999999         2.118841005659381E-020
  -9.05000000000000         1.131090102888633E-020
  -8.86000000000000        -5.613090586468592E-021
  -8.67000000000000        -2.413529958429951E-020
  -8.48000000000000        -3.833362279410069E-020
  -8.28999999999999        -4.356084084017012E-020
  -8.09999999999999        -3.782154877175115E-020
  -7.91000000000000        -2.237430703604772E-020
  -7.72000000000000        -1.382331148294980E-021
  -7.53000000000000         1.928590817463391E-020
  -7.34000000000000         3.375714645914628E-020
  -7.15000000000001         3.786087663076981E-020
  -6.95999999999999         3.034868803222420E-020
  -6.77000000000000         1.327148336174372E-020
  -6.58000000000000        -8.596197935316210E-021
  -6.39000000000000        -2.912016738775965E-020
  -6.20000000000000        -4.256570932584331E-020
  -6.01000000000001        -4.524285880303977E-020
  -5.81999999999999        -3.656011267374222E-020
  -5.63000000000000        -1.917958629099321E-020
  -5.44000000000000         1.771730833862725E-021
  -5.25000000000000         2.020418536041756E-020
  -5.06000000000000         3.084263390075778E-020
  -4.87000000000000         3.076094289989856E-020
  -4.67999999999999         2.022824705396376E-020
  -4.48999999999999         2.622521493207809E-021
  -4.30000000000000        -1.656205849421190E-020
  -4.11000000000000        -3.132545491640122E-020
  -3.92000000000000        -3.692311121328156E-020
  -3.73000000000000        -3.126764551210609E-020
  -3.53999999999999        -1.556312774178155E-020
  -3.34999999999999         6.014610294885808E-021
  -3.16000000000000         2.750171872976384E-020
  -2.97000000000000         4.285286168124876E-020
  -2.78000000000000         4.767672675699464E-020
  -2.59000000000000         4.049780037711986E-020
  -2.40000000000001         2.317923635889025E-020
  -2.20999999999999         3.853416917225792E-022
  -2.02000000000000        -2.175953611072135E-020
  -1.83000000000000        -3.742714584337657E-020
  -1.64000000000000        -4.274887969118400E-020
  -1.45000000000000        -3.690630312510913E-020
  -1.26000000000001        -2.233399512981157E-020
  -1.06999999999999        -3.977262754774854E-021
 -0.879999999999995         1.217815181859414E-020
 -0.689999999999998         2.087529687275054E-020
 -0.500000000000000         1.913780472526302E-020
 -0.310000000000002         7.151331277587229E-021
 -0.120000000000005        -1.178218995123900E-020
  7.000000000000739E-002   -3.220336488088575E-020
  0.260000000000005        -4.808736462576582E-020
  0.450000000000003        -5.460608610535946E-020
  0.640000000000001        -4.954866431808914E-020
  0.829999999999998        -3.398744487127573E-020
   1.02000000000000        -1.199441418759970E-020
   1.21000000000001         1.051248782616525E-020
   1.40000000000001         2.746153649368809E-020
   1.59000000000000         3.436890477112202E-020
   1.78000000000000         2.962468588260129E-020
   1.97000000000000         1.494924816351708E-020
   2.16000000000000        -5.112824805384435E-021
   2.34999999999999        -2.451360527222227E-020
   2.54000000000001        -3.745331561755548E-020
   2.73000000000000        -4.005444916613734E-020
   2.92000000000000        -3.147464445200691E-020
   3.11000000000000        -1.413841763419248E-020
   3.30000000000000         6.976756795391963E-021
   3.48999999999999         2.579179979744987E-020
   3.68000000000001         3.689430803786836E-020
   3.87000000000000         3.711153064133412E-020
   4.06000000000000         2.643143263410337E-020
   4.25000000000000         8.003546484917692E-021
   4.44000000000000        -1.278135207256673E-020
   4.63000000000000        -2.986518455268638E-020
   4.82000000000001        -3.829157987226184E-020
   5.01000000000001        -3.565418754852191E-020
   5.20000000000000        -2.280213781185940E-020
   5.39000000000000        -3.597248205813703E-021
   5.58000000000000         1.620662417209899E-020
   5.77000000000000         3.063723333152978E-020
   5.96000000000001         3.524550154428158E-020
   6.15000000000001         2.840951559298859E-020
   6.34000000000000         1.182131108673686E-020
   6.53000000000000        -9.986819472131997E-021