  -105.000000000000         3.217837245022261E-019
  -104.810000000000         2.437294311377069E-019
  -104.620000000000         1.138577751627078E-019
  -104.430000000000        -3.143952364915571E-020
  -104.240000000000        -1.517130250803927E-019
  -104.050000000000        -2.141055162968539E-019
  -103.860000000000        -2.027933739551645E-019
  -103.670000000000        -1.234746003344062E-019
  -103.480000000000        -1.598778563825743E-021
  -103.290000000000         1.251382644555661E-019
  -103.100000000000         2.178370340166939E-019
  -102.910000000000         2.477512830017623E-019
  -102.720000000000         2.046608835301813E-019
  -102.530000000000         9.984546411436873E-020
  -102.340000000000        -3.718595273695096E-020
  -102.150000000000        -1.672544575052998E-019
  -101.960000000000        -2.528861200378329E-019
  -101.770000000000        -2.692158986641910E-019
  -101.580000000000        -2.112589564908574E-019
  -101.390000000000        -9.542340269188042E-020
  -101.200000000000         4.519741531800579E-020
  -101.010000000000         1.703962376320596E-019
  -100.820000000000         2.444963873812530E-019
  -100.630000000000         2.466688960249917E-019
  -100.440000000000         1.769209319149685E-019
  -100.250000000000         5.603288720162751E-020
  -100.060000000000        -8.051258573894296E-020
  -99.8700000000000        -1.928337437359083E-019
  -99.6800000000000        -2.482027355366643E-019
  -99.4900000000000        -2.305171881431156E-019
  -99.3000000000000        -1.449587315876255E-019
  -99.1100000000000        -1.648718365494918E-020
  -98.9200000000000         1.174042600823433E-019
  -98.7300000000000         2.175813851722959E-019
  -98.5400000000000         2.546495124569103E-019
  -98.3500000000000         2.175118156121708E-019
  -98.1600000000000         1.166107819540480E-019
  -97.9700000000000        -1.909306319629582E-020
  -97.7800000000000        -1.505226829412923E-019
  -97.5900000000000        -2.398178684534868E-019
  -97.4000000000000        -2.613098582835946E-019
  -97.2100000000000        -2.089634701825232E-019
  -97.0200000000000        -9.813846518476807E-020
  -96.8300000000000         3.884398219039686E-020
  -96.6400000000000         1.620605297795792E-019
  -96.4500000000000         2.355712589986015E-019
  -96.2600000000000         2.378697980681179E-019
  -96.0700000000000         1.681491568731773E-019
  -95.8800000000000         4.654988044055656E-020
  -95.6900000000000        -9.167765460541195E-020
  -95.5000000000000        -2.063849453536967E-019
  -95.3100000000000        -2.641412864581734E-019
  -95.1200000000000        -2.479033138113408E-019
  -94.9300000000000        -1.619642680144424E-019
  -94.7400000000000        -3.076253086537263E-020
  -94.5500000000000         1.081181951324688E-019
  -94.3600000000000         2.147596449527171E-019
  -94.1700000000000         2.584301563192117E-019
  -93.9800000000000         2.264954386695852E-019
  -93.7900000000000         1.281309106994958E-019
  -93.6000000000000        -8.266224718255276E-021
  -93.4100000000000        -1.432452158348591E-019
  -93.2200000000000        -2.376993307362429E-019
  -93.0300000000000        -2.641854683789498E-019
  -92.8400000000000        -2.148703425674195E-019
  -92.6500000000000        -1.037943293592142E-019
  -92.4600000000000         3.718922479125285E-020
  -92.2700000000000         1.676031312392053E-019
  -92.0800000000000         2.500039696057871E-019
  -91.8900000000000         2.607602596862550E-019
  -91.7000000000000         1.968565829872593E-019
  -91.5100000000000         7.675189443709772E-020
  -91.3200000000000        -6.497674287069289E-020
  -91.1300000000000        -1.876633816979738E-019
  -90.9400000000000        -2.563394670304767E-019
  -90.7500000000000        -2.518488565286401E-019
  -90.5600000000000        -1.763618878830864E-019
  -90.3700000000000        -5.270213543678626E-020
  -90.1800000000000         8.231640619106874E-020
  -89.9900000000000         1.886254175696085E-019
  -89.8000000000000         2.346152155940175E-019
  -89.6100000000000         2.064202508387872E-019
  -89.4200000000000         1.120500559036330E-019
  -89.2300000000000        -2.086768502566906E-020
  -89.0400000000000        -1.530925270070737E-019
  -88.8500000000000        -2.452015527456391E-019
  -88.6600000000000        -2.691183566751091E-019
  -88.4700000000000        -2.163705932946195E-019
  -88.2800000000000        -1.006410167754384E-019
  -88.0900000000000         4.615199428952132E-020
  -87.9000000000000         1.830862986099704E-019
  -87.7100000000000         2.720510090029957E-019
  -87.5200000000000         2.886880169347398E-019
  -87.3300000000000         2.293109129839004E-019
  -87.1400000000000         1.118490173833178E-019
  -86.9500000000000        -2.942649418740072E-020
  -86.7600000000000        -1.538801334879931E-019
  -86.5700000000000        -2.263255179984857E-019
  -86.3800000000000        -2.272354076759413E-019
  -86.1900000000000        -1.583380085286188E-019
  -86.0000000000000        -4.194788036908379E-020
  -85.8100000000000         8.574438518485897E-020
  -85.6200000000000         1.854161587038500E-019
  -85.4300000000000         2.262309518092186E-019
  -85.2400000000000         1.949427255961287E-019
  -85.0500000000000         9.982710903573633E-020
  -84.8600000000000        -3.172170275089347E-020
  -84.6700000000000        -1.612264494640861E-019
  -84.4800000000000        -2.504218398804454E-019
  -84.2900000000000        -2.724837545946724E-019
  -84.1000000000000        -2.199163077133998E-019
  -83.9100000000000        -1.068181367628859E-019
  -83.7200000000000         3.512845307668537E-020
  -83.5300000000000         1.658082516859275E-019
  -83.3400000000000         2.483301429422662E-019
  -83.1500000000000         2.597791920329402E-019
  -82.9600000000000         1.978797201188058E-019
  -82.7700000000000         8.160822523822037E-020
  -82.5800000000000        -5.437786465093185E-020
  -82.3900000000000        -1.698213803764314E-019
  -82.2000000000000        -2.305362695837024E-019
  -82.0100000000000        -2.183398359240212E-019
  -81.8200000000000        -1.363966824836488E-019
  -81.6300000000000        -8.390595866547051E-021
  -81.4400000000000         1.282879615312310E-019
  -81.2500000000000         2.333736028981389E-019
  -81.0600000000000         2.754097309178806E-019
  -80.8700000000000         2.408897880645821E-019
  -80.6800000000000         1.382436243199706E-019
  -80.4900000000000        -4.451729600503899E-021
  -80.3000000000000        -1.474031068472192E-019
  -80.1100000000000        -2.504584941409276E-019
  -79.9200000000000        -2.846562883927567E-019
  -79.7300000000000        -2.406058483142919E-019
  -79.5400000000000        -1.312315184924754E-019
  -79.3500000000000         1.191946793268381E-020
  -79.1600000000000         1.477213328627694E-019
  -78.9700000000000         2.372704178906508E-019
  -78.7800000000000         2.550818156671339E-019
  -78.5900000000000         1.964623709951302E-019
  -78.4000000000000         7.888533109001498E-020
  -78.2100000000000        -6.307385479184259E-020
  -78.0200000000000        -1.877542481900833E-019
  -77.8300000000000        -2.584228177221649E-019
  -77.6400000000000        -2.538104187185932E-019
  -77.4500000000000        -1.742235426478857E-019
  -77.2600000000000        -4.157695285266748E-020
  -77.0700000000000         1.066693080372882E-019
  -76.8800000000000         2.280614439128340E-019
  -76.6900000000000         2.872989480880198E-019
  -76.5000000000000         2.665059112622182E-019
  -76.3100000000000         1.705879075998793E-019
  -76.1200000000000         2.604382928553286E-020
  -75.9300000000000        -1.264725099159631E-019
  -75.7400000000000        -2.437358536896218E-019
  -75.5500000000000        -2.923789247282867E-019
  -75.3600000000000        -2.585751719414479E-019
  -75.1700000000000        -1.520992814146646E-019
  -74.9800000000000        -3.504779357122886E-021
  -74.7900000000000         1.447654442729375E-019
  -74.6000000000000         2.506717932372244E-019
  -74.4100000000000         2.846347096580591E-019
  -74.2200000000000         2.378918301234237E-019
  -74.0300000000000         1.248453633323335E-019
  -73.8400000000000        -2.120600847611068E-020
  -73.6500000000000        -1.577393747173066E-019
  -73.4600000000000        -2.453411262982083E-019
  -73.2700000000000        -2.591330866344853E-019
  -73.0800000000000        -1.959454454328969E-019
  -72.8900000000000        -7.515987453936720E-020
  -72.7000000000000         6.698047561347659E-020
  -72.5100000000000         1.879446761810042E-019
  -72.3200000000000         2.513724267975188E-019
  -72.1300000000000         2.378442998320549E-019
  -71.9400000000000         1.507557658034824E-019
  -71.7500000000000         1.542155858578827E-020
  -71.5600000000000        -1.284298220119378E-019
  -71.3700000000000        -2.385144536308503E-019
  -71.1800000000000        -2.825569813836349E-019
  -70.9900000000000        -2.477419867024574E-019
  -70.8000000000000        -1.442803654607550E-019
  -70.6100000000000        -2.145074419999369E-021
  -70.4200000000000         1.379475018608247E-019
  -70.2300000000000         2.365611686763420E-019
  -70.0400000000000         2.669619846170814E-019
  -69.8500000000000         2.225891799424789E-019
  -69.6600000000000         1.185183751528482E-019
  -69.4700000000000        -1.330787370017033E-020
  -69.2800000000000        -1.335694046965079E-019
  -69.0900000000000        -2.070528843112598E-019
  -68.9000000000000        -2.129019467232014E-019
  -68.7100000000000        -1.506902564636970E-019
  -68.5200000000000        -4.047719861146726E-020
  -68.3300000000000         8.325694788314508E-020
  -68.1400000000000         1.820170311224779E-019
  -67.9500000000000         2.248907118690507E-019
  -67.7600000000000         1.978309380987418E-019
  -67.5700000000000         1.078595315997001E-019
  -67.3800000000000        -1.903250662381510E-020
  -67.1900000000000        -1.456510010471547E-019
  -67.0000000000000        -2.346989708059561E-019
  -66.8100000000000        -2.598405977403546E-019
  -66.6200000000000        -2.133745636653102E-019
  -66.4300000000000        -1.082847919729393E-019
  -66.2400000000000         2.576679862147237E-020
  -66.0500000000000         1.511481020729255E-019
  -65.8600000000000         2.330591688077689E-019
  -65.6700000000000         2.493606535548697E-019
  -65.4800000000000         1.967099528980964E-019
  -65.2900000000000         9.134099380600962E-020
  -65.1000000000000        -3.567653493502253E-020
  -64.9100000000000        -1.473256859657376E-019
  -64.7200000000000        -2.111762265757424E-019
  -64.5300000000000        -2.086448334835770E-019
  -64.3400000000000        -1.404155102297352E-019
  -64.1500000000000        -2.644260910713498E-020
  -63.9600000000000         9.961733132016253E-020
  -63.7700000000000         2.001002315361059E-019
  -63.5800000000000         2.443702088736164E-019
  -63.3900000000000         2.178713948587089E-019
  -63.2000000000000         1.264454525017602E-019
  -63.0100000000000        -5.342333583225631E-021
  -62.8200000000000        -1.412963266600980E-019
  -62.6300000000000        -2.439708141321445E-019
  -62.4400000000000        -2.853174204697486E-019
  -62.2500000000000        -2.545590289517374E-019
  -62.0600000000000        -1.610899638612233E-019
  -61.8700000000000        -3.166188019889060E-020
  -61.6800000000000         9.725370421459305E-020
  -61.4900000000000         1.897294724293968E-019
  -61.3000000000000         2.204420857766059E-019
  -61.1100000000000         1.818168408260781E-019
  -60.9200000000000         8.630166373022580E-020
  -60.7300000000000        -3.696345068799085E-020
  -60.5400000000000        -1.503188438829142E-019
  -60.3500000000000        -2.184031967742139E-019
  -60.1600000000000        -2.185388425836758E-019
  -59.9700000000000        -1.476464789152699E-019
  -59.7800000000000        -2.360832629577738E-020
  -59.5900000000000         1.194534268654824E-019
  -59.4000000000000         2.407915702396665E-019
  -59.2100000000000         3.048643551341231E-019
  -59.0200000000000         2.918989022162351E-019
  -58.8300000000000         2.039479685111590E-019
  -58.6400000000000         6.453118775538492E-020
  -58.4500000000000        -8.804781687750145E-020
  -58.2600000000000        -2.116699572225120E-019
  -58.0700000000000        -2.723971462626510E-019
  -57.8800000000000        -2.540633589334834E-019
  -57.6900000000000        -1.628032467627648E-019
  -57.5000000000000        -2.528704964479110E-020
  -57.3100000000000         1.188401643575486E-019
  -57.1200000000000         2.281930735905206E-019
  -56.9300000000000         2.713890766219896E-019
  -56.7400000000000         2.360057510053908E-019
  -56.5500000000000         1.322364463728589E-019
  -56.3600000000000        -9.863201247933568E-021
  -56.1700000000000        -1.489288839291120E-019
  -55.9800000000000        -2.443508695690272E-019
  -55.7900000000000        -2.683651840718277E-019
  -55.6000000000000        -2.144807378252944E-019
  -55.4100000000000        -9.955307000679909E-020
  -55.2200000000000         4.122374511216445E-020
  -55.0300000000000         1.648986747420728E-019
  -54.8400000000000         2.336885446890463E-019
  -54.6500000000000         2.263437457221077E-019
  -54.4600000000000         1.445507197432108E-019
  -54.2700000000000         1.244211456634793E-020
  -54.0800000000000        -1.306441170198062E-019
  -53.8900000000000        -2.419279936114181E-019
  -53.7000000000000        -2.878544965880723E-019
  -53.5100000000000        -2.538707988168397E-019
  -53.3200000000000        -1.485457087930746E-019
  -53.1300000000000        -1.005133464731373E-021
  -52.9400000000000         1.474687941951073E-019
  -52.7500000000000         2.552661896201347E-019
  -52.5600000000000         2.923702224252753E-019
  -52.3700000000000         2.489798824245929E-019
  -52.1800000000000         1.383324815936600E-019
  -51.9900000000000        -7.138098467474326E-021
  -51.8000000000000        -1.452402611783989E-019
  -51.6100000000000        -2.363513125272381E-019
  -51.4200000000000        -2.550507407727950E-019
  -51.2300000000000        -1.976078368961375E-019
  -51.0400000000000        -8.299616638290701E-020
  -50.8500000000000         5.298068884904512E-020
  -50.6600000000000         1.686732364724736E-019
  -50.4700000000000         2.292119857880726E-019
  -50.2800000000000         2.168265812814468E-019
  -50.0900000000000         1.357932912843390E-019
  -49.9000000000000         1.074234670135034E-020
  -49.7100000000000        -1.209308467142767E-019
  -49.5200000000000        -2.201675114851567E-019
  -49.3300000000000        -2.575895405127736E-019
  -49.1400000000000        -2.218537170071636E-019
  -48.9500000000000        -1.227100668390314E-019
  -48.7600000000000         1.199127863409301E-020
  -48.5700000000000         1.443763316137045E-019
  -48.3800000000000         2.373570043730643E-019
  -48.1900000000000         2.651569884373624E-019
  -48.0000000000000         2.206671482301125E-019
  -47.8100000000000         1.175627046050487E-019
  -47.6200000000000        -1.352555456674797E-020
  -47.4300000000000        -1.338232877746221E-019
  -47.2400000000000        -2.077171907234259E-019
  -47.0500000000000        -2.132348386914389E-019
  -46.8600000000000        -1.485834688609659E-019
  -46.6700000000000        -3.278307017623225E-020
  -46.4800000000000         9.983500850423582E-020
  -46.2900000000000         2.096677300701816E-019
  -46.1000000000000         2.634419906428803E-019
  -45.9100000000000         2.439150107680762E-019
  -45.7200000000000         1.548054272079864E-019
  -45.5300000000000         1.958810352347332E-020
  -45.3400000000000        -1.253211500278206E-019
  -45.1500000000000        -2.408513536415605E-019
  -44.9600000000000        -2.960691837386157E-019
  -44.7700000000000        -2.765821136447595E-019
  -44.5800000000000        -1.883929260983416E-019
  -44.3900000000000        -5.620898751104044E-020
  -44.2000000000000         8.338307577437421E-020
  -44.0100000000000         1.920796406121083E-019
  -43.8200000000000         2.405879473618440E-019
  -43.6300000000000         2.169150642101637E-019
  -43.4400000000000         1.298158938245681E-019
  -43.2500000000000         6.304266426509574E-021
  -43.0600000000000        -1.161765707222005E-019
  -42.8700000000000        -2.007223785438937E-019
  -42.6800000000000        -2.218624441012782E-019
  -42.4900000000000        -1.731069967576180E-019
  -42.3000000000000        -6.884210404238685E-020
  -42.1100000000000         6.000022587731978E-020
  -41.9200000000000         1.751474765723495E-019
  -41.7300000000000         2.422765076896184E-019
  -41.5400000000000         2.410618736322171E-019
  -41.3500000000000         1.710867525919723E-019
  -41.1600000000000         5.193851410745374E-020
  -40.9700000000000        -8.249557007251130E-020
  -40.7800000000000        -1.938218284461862E-019
  -40.5900000000000        -2.501582060927862E-019
  -40.4000000000000        -2.352426661284956E-019
  -40.2100000000000        -1.531100644385037E-019
  -40.0200000000000        -2.706290736661942E-020
  -39.8300000000000         1.067980128929433E-019
  -39.6400000000000         2.097532882014529E-019
  -39.4500000000000         2.515782860894062E-019
  -39.2600000000000         2.194436118243323E-019
  -39.0700000000000         1.219313243165843E-019
  -38.8800000000000        -1.318148215865568E-020
  -38.6900000000000        -1.468654817518771E-019
  -38.5000000000000        -2.402260427888703E-019
  -38.3100000000000        -2.659627814415195E-019
  -38.1200000000000        -2.164620539831133E-019
  -37.9300000000000        -1.060603490227356E-019
  -37.7400000000000         3.321566470979823E-020
  -37.5500000000000         1.611153300197317E-019
  -37.3600000000000         2.409543044152245E-019
  -37.1700000000000         2.502296261123639E-019
  -36.9800000000000         1.870024328439653E-019
  -36.7900000000000         7.028366435333885E-020
  -36.6000000000000        -6.559741553746182E-020
  -36.4100000000000        -1.809651332912902E-019
  -36.2200000000000        -2.422466214880787E-019
  -36.0300000000000        -2.316432042824089E-019
  -35.8400000000000        -1.522602013512797E-019
  -35.6500000000000        -2.721393433409451E-020
  -35.4600000000000         1.070293637752880E-019
  -35.2700000000000         2.111802632724105E-019
  -35.0800000000000         2.545416565530854E-019
  -34.8900000000000         2.240675704580599E-019
  -34.7000000000000         1.283995229790629E-019
  -34.5100000000000        -4.430815180311449E-021
  -34.3200000000000        -1.351078327774747E-019
  -34.1300000000000        -2.246478674524311E-019
  -33.9400000000000        -2.460902332175315E-019
  -33.7500000000000        -1.927100246440112E-019
  -33.5600000000000        -8.018885423217793E-020
  -33.3700000000000         5.797184912434463E-020
  -33.1800000000000         1.804024157621932E-019
  -32.9900000000000         2.501484008621396E-019
  -32.8000000000000         2.455930225657644E-019
  -32.6100000000000         1.667975206031925E-019
  -32.4200000000000         3.546847588021462E-020
  -32.2300000000000        -1.113161416398759E-019
  -32.0400000000000        -2.317140205385441E-019
  -31.8500000000000        -2.910308404651236E-019
  -31.6600000000000        -2.716317152069488E-019
  -31.4700000000000        -1.780854907869979E-019
  -31.2800000000000        -3.604078433658389E-020
  -31.0900000000000         1.149331282764793E-019
  -30.9000000000000         2.325829417153479E-019
  -30.7100000000000         2.841218205596005E-019
  -30.5200000000000         2.557821506944565E-019
  -30.3300000000000         1.569102114513657E-019
  -30.1400000000000         1.729116106117609E-020
  -29.9500000000000        -1.215931374681873E-019
  -29.7600000000000        -2.188322848287645E-019
  -29.5700000000000        -2.462375434455542E-019
  -29.3800000000000        -1.966955300040378E-019
  -29.1900000000000        -8.616027710399460E-020
  -29.0000000000000         5.130457730270251E-020
  -28.8100000000000         1.738546098747977E-019
  -28.6200000000000         2.443808106145738E-019
  -28.4300000000000         2.414504431612291E-019
  -28.2400000000000         1.654639428822706E-019
  -28.0500000000000         3.832706787767942E-020
  -27.8600000000000        -1.030869796466844E-019
  -27.6700000000000        -2.176447266514828E-019
  -27.4800000000000        -2.717431459744661E-019
  -27.2900000000000        -2.489212938360305E-019
  -27.1000000000000        -1.546565856786914E-019
  -26.9100000000000        -1.499670006395331E-020
  -26.7200000000000         1.306621758989079E-019
  -26.5300000000000         2.407300897249655E-019
  -26.3400000000000         2.834257429252464E-019
  -26.1500000000000         2.461431444702181E-019
  -25.9600000000000         1.393148018262534E-019
  -25.7700000000000        -6.500688773659477E-021
  -25.5800000000000        -1.494986073786790E-019
  -25.3900000000000        -2.488327028140016E-019
  -25.2000000000000        -2.764884110932593E-019
  -25.0100000000000        -2.252740741223038E-019
  -24.8200000000000        -1.106095164444960E-019
  -24.6300000000000         3.425259066723875E-020
  -24.4400000000000         1.679792130001690E-019
  -24.2500000000000         2.529615500841121E-019
  -24.0600000000000         2.658124360023194E-019
  -23.8700000000000         2.036641896693083E-019
  -23.6800000000000         8.462269815123498E-020
  -23.4900000000000        -5.759392961264149E-020
  -23.3000000000000        -1.832303599442262E-019
  -23.1100000000000        -2.576100345774594E-019
  -22.9200000000000        -2.607434635813362E-019
  -22.7300000000000        -1.927921825418325E-019
  -22.5400000000000        -7.389212134063731E-020
  -22.3500000000000         6.161896889183195E-020
  -22.1600000000000         1.750149918166513E-019
  -21.9700000000000         2.343250844511329E-019
  -21.7800000000000         2.235894872829906E-019
  -21.5900000000000         1.474485776602527E-019
  -21.4000000000000         2.966520963243949E-020
  -21.2100000000000        -9.397678810768600E-020
  -21.0200000000000        -1.862814140258824E-019
  -20.8300000000000        -2.195970881235381E-019
  -20.6400000000000        -1.838517951705157E-019
  -20.4500000000000        -8.932847605051453E-020
  -20.2600000000000         3.649429409801470E-020
  -20.0700000000000         1.569582201506325E-019
  -19.8800000000000         2.367238586122990E-019
  -19.6900000000000         2.517930867227136E-019
  -19.5000000000000         1.963093765244054E-019
  -19.3100000000000         8.432430619407066E-020
  -19.1200000000000        -5.393437205892139E-020
  -18.9300000000000        -1.803542987664353E-019
  -18.7400000000000        -2.596164137670088E-019
  -18.5500000000000        -2.692877160219005E-019
  -18.3600000000000        -2.063824782980099E-019
  -18.1700000000000        -8.842858473331706E-020
  -17.9800000000000         5.134080513893193E-020
  -17.7900000000000         1.733925218735546E-019
  -17.6000000000000         2.432704204586551E-019
  -17.4100000000000         2.416314922660834E-019
  -17.2200000000000         1.699294540774162E-019
  -17.0300000000000         5.000918943960048E-020
  -16.8400000000000        -8.231898188091215E-020
  -16.6500000000000        -1.878716842679104E-019
  -16.4600000000000        -2.357139219572700E-019
  -16.2700000000000        -2.123197650695330E-019
  -16.0800000000000        -1.255436538474854E-019
  -15.8900000000000        -2.251100233254233E-021
  -15.7000000000000         1.196974969310528E-019
  -15.5100000000000         2.027649600079834E-019
  -15.3200000000000         2.209810839845504E-019
  -15.1300000000000         1.677477661842846E-019
  -14.9400000000000         5.794231140378101E-020
  -14.7500000000000        -7.624756034391270E-020
  -14.5600000000000        -1.946070445423848E-019
  -14.3700000000000        -2.607259602169936E-019
  -14.1800000000000        -2.529680701769069E-019
  -13.9900000000000        -1.712718684339765E-019
  -13.8000000000000        -3.762409040088502E-020
  -13.6100000000000         1.101086919098744E-019
  -13.4200000000000         2.292961564817785E-019
  -13.2300000000000         2.853066155324773E-019
  -13.0400000000000         2.620007346368501E-019
  -12.8500000000000         1.667259460615642E-019
  -12.6600000000000         2.827334799198695E-020
  -12.4700000000000        -1.116528765414941E-019
  -12.2800000000000        -2.109491550500133E-019
  -12.0900000000000        -2.398018837573519E-019
  -11.9000000000000        -1.896432543312782E-019
  -11.7100000000000        -7.568871318792543E-020
  -11.5200000000000         6.762032506360742E-020
  -11.3300000000000         1.968757546626779E-019
  -11.1400000000000         2.726241402320926E-019
  -10.9500000000000         2.710867961756725E-019
  -10.7600000000000         1.911770502249878E-019
  -10.5700000000000         5.479156055305443E-020
  -10.3800000000000        -9.962226926702677E-020
  -10.1900000000000        -2.282830884449923E-019
  -10.0000000000000        -2.947704206407100E-019
  -9.81000000000000        -2.805050419044665E-019
  -9.62000000000000        -1.900549509023373E-019
  -9.42999999999999        -4.981463326766967E-020
  -9.23999999999999         9.960822891503267E-020
  -9.05000000000000         2.152079970523848E-019
  -8.86000000000000         2.641572997374409E-019
  -8.67000000000000         2.333581303616779E-019
  -8.48000000000000         1.331238222207034E-019
  -8.28999999999999        -6.036077416915687E-021
  -8.09999999999999        -1.425349912132393E-019
  -7.91000000000000        -2.360078141390688E-019
  -7.72000000000000        -2.590891192272839E-019
  -7.53000000000000        -2.051817110611990E-019
  -7.34000000000000        -9.006262539223773E-020
  -7.15000000000001         5.294764948053757E-020
  -6.95999999999999         1.827071660669807E-019
  -6.77000000000000         2.619811807609327E-019
  -6.58000000000000         2.678222320125158E-019
  -6.39000000000000         1.977983566857416E-019
  -6.20000000000000         7.051432501240031E-020
  -6.01000000000001        -7.964057752016372E-020
  -5.81999999999999        -2.120743457471911E-019
  -5.63000000000000        -2.912051578289522E-019
  -5.44000000000000        -2.961387726614821E-019
  -5.25000000000000        -2.262063053958818E-019
  -5.06000000000000        -1.009793644157285E-019
  -4.87000000000000         4.520808234069263E-020
  -4.67999999999999         1.727833047167220E-019
  -4.48999999999999         2.478866682238893E-019
  -4.30000000000000         2.516801034068127E-019
  -4.11000000000000         1.854098897019902E-019
  -3.92000000000000         6.980037966596423E-020
  -3.73000000000000        -6.105736204768435E-020
  -3.53999999999999        -1.695208480149049E-019
  -3.34999999999999        -2.250159104161878E-019
  -3.16000000000000        -2.124522275025054E-019
  -2.97000000000000        -1.361803634144759E-019
  -2.78000000000000        -1.847227036009096E-020
  -2.59000000000000         1.069893486416079E-019
  -2.40000000000001         2.046745028353286E-019
  -2.20999999999999         2.470741712685883E-019
  -2.02000000000000         2.222451658836282E-019
  -1.83000000000000         1.371287958100124E-019
  -1.64000000000000         1.573278987325757E-020
  -1.45000000000000        -1.074776165610105E-019
  -1.26000000000001        -1.972648856132783E-019
  -1.06999999999999        -2.277009095575878E-019
 -0.879999999999995        -1.897762104568699E-019
 -0.689999999999998        -9.425909570252812E-020
 -0.500000000000000         3.118819702054319E-020
 -0.310000000000002         1.498986527825106E-019
 -0.120000000000005         2.268106653072328E-019
  7.000000000000739E-002    2.387473446801136E-019
  0.260000000000005         1.813956298967622E-019
  0.450000000000003         7.081657408135567E-020
  0.640000000000001        -6.115210542756596E-020
  0.829999999999998        -1.762775974644131E-019
   1.02000000000000        -2.412233272539128E-019
   1.21000000000001        -2.373880385948153E-019
   1.40000000000001        -1.664372801345068E-019
   1.59000000000000        -4.987208602616763E-020
   1.78000000000000         7.729950835982776E-020
   1.97000000000000         1.769071340802489E-019
   2.16000000000000         2.189011255453594E-019
   2.34999999999999         1.902933989201194E-019
   2.54000000000001         9.915302195754666E-020
   2.73000000000000        -2.756944262405367E-020
   2.92000000000000        -1.518041208974106E-019
   3.11000000000000        -2.354898533424206E-019
   3.30000000000000        -2.519353215940080E-019
   3.48999999999999        -1.941457179777961E-019
   3.68000000000001        -7.745219255318553E-020
   3.87000000000000         6.468955696235798E-020
   4.06000000000000         1.906322525062843E-019
   4.25000000000000         2.631339769844982E-019
   4.44000000000000         2.607229186134591E-019
   4.63000000000000         1.843430328433801E-019
   4.82000000000001         5.717814544987303E-020
   5.01000000000001        -8.235630976110061E-020
   5.20000000000000        -1.922712874749107E-019
   5.39000000000000        -2.397022779578705E-019
   5.58000000000000        -2.108133004913715E-019
   5.77000000000000        -1.149345324986564E-019
   5.96000000000001         1.830926594397660E-020
   6.15000000000001         1.479281473896068E-019
   6.34000000000000         2.337713911915846E-019
   6.53000000000000         2.484342876603342E-019