  -105.000000000000         0.000000000000000E+000
  -104.810000000000         1.855817144830529E-010
  -104.620000000000         4.068958845060775E-010
  -104.430000000000         6.480594698649942E-010
  -104.240000000000         1.039244938367207E-009
  -104.050000000000         1.609187284921923E-009
  -103.860000000000         2.159939079556385E-009
  -103.670000000000         2.587887771696105E-009
  -103.480000000000         2.881058485924020E-009
  -103.290000000000         3.389282576525542E-009
  -103.100000000000         3.937852873690696E-009
  -102.910000000000         4.600676836035964E-009
  -102.720000000000         5.218419335249334E-009
  -102.530000000000         5.753857652251288E-009
  -102.340000000000         6.296288319622407E-009
  -102.150000000000         6.764002228348243E-009
  -101.960000000000         7.204311697940763E-009
  -101.770000000000         7.216891274886042E-009
  -101.580000000000         7.369996511294729E-009
  -101.390000000000         7.533446115126867E-009
  -101.200000000000         7.613120710294794E-009
  -101.010000000000         7.637660734131614E-009
  -100.820000000000         7.558628300311762E-009
  -100.630000000000         7.489889933333197E-009
  -100.440000000000         7.451112561617707E-009
  -100.250000000000         7.382157785449795E-009
  -100.060000000000         7.240833587054275E-009
  -99.8700000000000         7.052574662999675E-009
  -99.6800000000000         6.733055002136665E-009
  -99.4900000000000         6.117341687660944E-009
  -99.3000000000000         5.561736188571724E-009
  -99.1100000000000         4.996494608493132E-009
  -98.9200000000000         4.443300807917315E-009
  -98.7300000000000         3.992447869069000E-009
  -98.5400000000000         3.875869276859956E-009
  -98.3500000000000         3.136662080821928E-009
  -98.1600000000000         2.879201601937914E-009
  -97.9700000000000         2.732746657233853E-009
  -97.7800000000000         2.533998986904928E-009
  -97.5900000000000         2.394996709451770E-009
  -97.4000000000000         2.304306093128458E-009
  -97.2100000000000         2.264726651450948E-009
  -97.0200000000000         2.265130400167345E-009
  -96.8300000000000         2.382427433357670E-009
  -96.6400000000000         2.476668302264656E-009
  -96.4500000000000         2.591027187787402E-009
  -96.2600000000000         2.813516215431792E-009
  -96.0700000000000         3.274279004096367E-009
  -95.8800000000000         3.715169654534979E-009
  -95.6900000000000         4.084425076556625E-009
  -95.5000000000000         4.372262194094486E-009
  -95.3100000000000         4.725456692931878E-009
  -95.1200000000000         4.900543954296893E-009
  -94.9300000000000         5.162014606535186E-009
  -94.7400000000000         5.370998052184926E-009
  -94.5500000000000         5.640717906187461E-009
  -94.3600000000000         6.092639344994228E-009
  -94.1700000000000         6.758043421397592E-009
  -93.9800000000000         6.821416571532897E-009
  -93.7900000000000         7.179221260644515E-009
  -93.6000000000000         7.667336561935218E-009
  -93.4100000000000         7.914508082250217E-009
  -93.2200000000000         8.039608932916058E-009
  -93.0300000000000         8.047787465937985E-009
  -92.8400000000000         7.965334376734913E-009
  -92.6500000000000         7.788734765838221E-009
  -92.4600000000000         7.485813226596558E-009
  -92.2700000000000         7.033037107165671E-009
  -92.0800000000000         6.444287390913889E-009
  -91.8900000000000         5.774794650810790E-009
  -91.7000000000000         5.433942078219934E-009
  -91.5100000000000         5.029310101387582E-009
  -91.3200000000000         4.831351848925765E-009
  -91.1300000000000         4.544919180475280E-009
  -90.9400000000000         4.579537505027737E-009
  -90.7500000000000         4.887744217936866E-009
  -90.5600000000000         5.343861074642517E-009
  -90.3700000000000         5.828415878923144E-009
  -90.1800000000000         6.283562381737970E-009
  -89.9900000000000         6.786762411499222E-009
  -89.8000000000000         7.375073983809013E-009
  -89.6100000000000         7.584238513686815E-009
  -89.4200000000000         8.150228476749401E-009
  -89.2300000000000         8.834588708399743E-009
  -89.0400000000000         9.996201469853568E-009
  -88.8500000000000         1.001441322032980E-008
  -88.6600000000000         1.032894548393443E-008
  -88.4700000000000         1.066957656230471E-008
  -88.2800000000000         1.096507958917887E-008
  -88.0900000000000         1.134747809419920E-008
  -87.9000000000000         1.173389028558111E-008
  -87.7100000000000         1.200632793565299E-008
  -87.5200000000000         1.208158455854015E-008
  -87.3300000000000         1.213661353660320E-008
  -87.1400000000000         1.216013527027090E-008
  -86.9500000000000         1.200428161935548E-008
  -86.7600000000000         1.168369093868807E-008
  -86.5700000000000         1.133578529597418E-008
  -86.3800000000000         1.102034798766682E-008
  -86.1900000000000         1.076519773187946E-008
  -86.0000000000000         1.057934096083196E-008
  -85.8100000000000         1.054979906318948E-008
  -85.6200000000000         1.082759291044591E-008
  -85.4300000000000         1.147920774989039E-008
  -85.2400000000000         1.234170621937529E-008
  -85.0500000000000         1.367857990740443E-008
  -84.8600000000000         1.509272997025521E-008
  -84.6700000000000         1.644472360568574E-008
  -84.4800000000000         1.792568748583417E-008
  -84.2900000000000         1.959016262443059E-008
  -84.1000000000000         2.117342071083393E-008
  -83.9100000000000         2.261039274193429E-008
  -83.7200000000000         2.263628591501144E-008
  -83.5300000000000         2.521658825145049E-008
  -83.3400000000000         2.498035123926098E-008
  -83.1500000000000         2.532218269346138E-008
  -82.9600000000000         2.584901386270133E-008
  -82.7700000000000         2.625299039230900E-008
  -82.5800000000000         2.650204523354759E-008
  -82.3900000000000         2.659570083004060E-008
  -82.2000000000000         2.654940209257269E-008
  -82.0100000000000         2.641545205689251E-008
  -81.8200000000000         2.603351258369958E-008
  -81.6300000000000         2.542391304603962E-008
  -81.4400000000000         2.478125850853020E-008
  -81.2500000000000         2.424529607546558E-008
  -81.0600000000000         2.366641607196528E-008
  -80.8700000000000         2.277124823087681E-008
  -80.6800000000000         2.187062576932557E-008
  -80.4900000000000         2.115066947699518E-008
  -80.3000000000000         2.064284263572341E-008
  -80.1100000000000         2.028479455027348E-008
  -79.9200000000000         2.004658314703082E-008
  -79.7300000000000         2.001020184155737E-008
  -79.5400000000000         2.021221819390101E-008
  -79.3500000000000         2.077254987253934E-008
  -79.1600000000000         2.153652610109288E-008
  -78.9700000000000         2.230385964976289E-008
  -78.7800000000000         2.313478019467122E-008
  -78.5900000000000         2.409349655534085E-008
  -78.4000000000000         2.476153274701578E-008
  -78.2100000000000         2.523129501153904E-008
  -78.0200000000000         2.559082649175339E-008
  -77.8300000000000         2.584369512418659E-008
  -77.6400000000000         2.606300525969407E-008
  -77.4500000000000         2.628241987128869E-008
  -77.2600000000000         2.649710383787133E-008
  -77.0700000000000         2.670969699633220E-008
  -76.8800000000000         2.687948402271893E-008
  -76.6900000000000         2.712401122958354E-008
  -76.5000000000000         2.754119701864704E-008
  -76.3100000000000         2.840502971663224E-008
  -76.1200000000000         2.894587012597012E-008
  -75.9300000000000         2.973454999955844E-008
  -75.7400000000000         3.039243569167969E-008
  -75.5500000000000         3.100902214358616E-008
  -75.3600000000000         3.154350715088388E-008
  -75.1700000000000         3.203751996077094E-008
  -74.9800000000000         3.286296648679323E-008
  -74.7900000000000         3.402733084481221E-008
  -74.6000000000000         3.517858457056879E-008
  -74.4100000000000         3.623977578548492E-008
  -74.2200000000000         3.721983941674704E-008
  -74.0300000000000         3.816289820670431E-008
  -73.8400000000000         3.921634467353257E-008
  -73.6500000000000         4.031101177335793E-008
  -73.4600000000000         4.126420866623975E-008
  -73.2700000000000         4.223485148345926E-008
  -73.0800000000000         4.310668147142877E-008
  -72.8900000000000         4.406468183193191E-008
  -72.7000000000000         4.480835416986493E-008
  -72.5100000000000         4.560551935803010E-008
  -72.3200000000000         4.641218171494646E-008
  -72.1300000000000         4.718325567705878E-008
  -71.9400000000000         4.757956558786116E-008
  -71.7500000000000         4.974475544452086E-008
  -71.5600000000000         4.993421215400088E-008
  -71.3700000000000         5.031910471852053E-008
  -71.1800000000000         5.113722603793178E-008
  -70.9900000000000         5.145691767209038E-008
  -70.8000000000000         5.460159070615844E-008
  -70.6100000000000         5.474981765233316E-008
  -70.4200000000000         5.510868242952784E-008
  -70.2300000000000         5.906562599865045E-008
  -70.0400000000000         5.924080321188290E-008
  -69.8500000000000         5.975669755525904E-008
  -69.6600000000000         6.283591854455338E-008
  -69.4700000000000         6.330779711717922E-008
  -69.2800000000000         6.433200366862014E-008
  -69.0900000000000         6.533653834329994E-008
  -68.9000000000000         6.616349747730269E-008
  -68.7100000000000         6.691154746432728E-008
  -68.5200000000000         6.762685267617720E-008
  -68.3300000000000         6.830631130789198E-008
  -68.1400000000000         6.892322542268074E-008
  -67.9500000000000         6.942138792731683E-008
  -67.7600000000000         6.986304048649752E-008
  -67.5700000000000         7.044709036045075E-008
  -67.3800000000000         7.136095742629681E-008
  -67.1900000000000         7.245499947693067E-008
  -67.0000000000000         7.319414321290883E-008
  -66.8100000000000         7.505351724742943E-008
  -66.6200000000000         7.551213869513279E-008
  -66.4300000000000         7.642162997924065E-008
  -66.2400000000000         7.927793813488873E-008
  -66.0500000000000         7.967710685875332E-008
  -65.8600000000000         8.020768592990614E-008
  -65.6700000000000         8.138364084414990E-008
  -65.4800000000000         8.285267828238435E-008
  -65.2900000000000         8.445894855273995E-008
  -65.1000000000000         8.623269138010954E-008
  -64.9100000000000         8.804872871305061E-008
  -64.7200000000000         8.976129311144022E-008
  -64.5300000000000         9.171380359981394E-008
  -64.3400000000000         9.353703809574668E-008
  -64.1500000000000         9.516890348142256E-008
  -63.9600000000000         9.662582724949603E-008
  -63.7700000000000         9.799548164736286E-008
  -63.5800000000000         9.952395308456310E-008
  -63.3900000000000         1.010446963492759E-007
  -63.2000000000000         1.025500924871259E-007
  -63.0100000000000         1.039146563278053E-007
  -62.8200000000000         1.051797338096054E-007
  -62.6300000000000         1.062861049553216E-007
  -62.4400000000000         1.072226727798702E-007
  -62.2500000000000         1.080429553998539E-007
  -62.0600000000000         1.087621238386114E-007
  -61.8700000000000         1.093799178311204E-007
  -61.6800000000000         1.099113480007781E-007
  -61.4900000000000         1.103802690320593E-007
  -61.3000000000000         1.109297066290092E-007
  -61.1100000000000         1.115958390079993E-007
  -60.9200000000000         1.123347495486895E-007
  -60.7300000000000         1.133622043412977E-007
  -60.5400000000000         1.145363474935307E-007
  -60.3500000000000         1.157480065870173E-007
  -60.1600000000000         1.171306302881376E-007
  -59.9700000000000         1.185021149855682E-007
  -59.7800000000000         1.199121476334348E-007
  -59.5900000000000         1.216264472220958E-007
  -59.4000000000000         1.234782122259371E-007
  -59.2100000000000         1.255793138144748E-007
  -59.0200000000000         1.279185607313975E-007
  -58.8300000000000         1.301539731396942E-007
  -58.6400000000000         1.321632391952689E-007
  -58.4500000000000         1.345770701468316E-007
  -58.2600000000000         1.374172609006938E-007
  -58.0700000000000         1.399436585120332E-007
  -57.8800000000000         1.430828816286402E-007
  -57.6900000000000         1.458373245625198E-007
  -57.5000000000000         1.481698590965294E-007
  -57.3100000000000         1.493720063280683E-007
  -57.1200000000000         1.536033832248895E-007
  -56.9300000000000         1.545273775528891E-007
  -56.7400000000000         1.564798706099722E-007
  -56.5500000000000         1.588039559605898E-007
  -56.3600000000000         1.597569008596939E-007
  -56.1700000000000         1.617063107842987E-007
  -55.9800000000000         1.623674349867350E-007
  -55.7900000000000         1.638421167226842E-007
  -55.6000000000000         1.648977334515521E-007
  -55.4100000000000         1.662433484290623E-007
  -55.2200000000000         1.676803493511694E-007
  -55.0300000000000         1.691395123041472E-007
  -54.8400000000000         1.707336568258394E-007
  -54.6500000000000         1.723843330991628E-007
  -54.4600000000000         1.741679417649133E-007
  -54.2700000000000         1.759606283001663E-007
  -54.0800000000000         1.778392732378701E-007
  -53.8900000000000         1.797217999173554E-007
  -53.7000000000000         1.818454132566130E-007
  -53.5100000000000         1.842037711053920E-007
  -53.3200000000000         1.867428442053208E-007
  -53.1300000000000         1.897873743319344E-007
  -52.9400000000000         1.929565546693975E-007
  -52.7500000000000         1.961367912146344E-007
  -52.5600000000000         1.991386866283233E-007
  -52.3700000000000         2.029108718291360E-007
  -52.1800000000000         2.041197226680106E-007
  -51.9900000000000         2.130173539308141E-007
  -51.8000000000000         2.143918717146661E-007
  -51.6100000000000         2.163796147942734E-007
  -51.4200000000000         2.197836214596323E-007
  -51.2300000000000         2.240335871569617E-007
  -51.0400000000000         2.250788830665240E-007
  -50.8500000000000         2.282569309350645E-007
  -50.6600000000000         2.294690092005384E-007
  -50.4700000000000         2.353606156686707E-007
  -50.2800000000000         2.365756524963377E-007
  -50.0900000000000         2.384362600903646E-007
  -49.9000000000000         2.419425958874526E-007
  -49.7100000000000         2.432091616042168E-007
  -49.5200000000000         2.471429190937484E-007
  -49.3300000000000         2.484646943185614E-007
  -49.1400000000000         2.532420278661216E-007
  -48.9500000000000         2.547442619380514E-007
  -48.7600000000000         2.592220083853026E-007
  -48.5700000000000         2.629707096626785E-007
  -48.3800000000000         2.668840185917861E-007
  -48.1900000000000         2.708482536342494E-007
  -48.0000000000000         2.749443444712553E-007
  -47.8100000000000         2.792892836295760E-007
  -47.6200000000000         2.831505061735889E-007
  -47.4300000000000         2.869430703823859E-007
  -47.2400000000000         2.912195150313744E-007
  -47.0500000000000         2.946952711878828E-007
  -46.8600000000000         2.987655590281031E-007
  -46.6700000000000         3.028047604148013E-007
  -46.4800000000000         3.065619789578994E-007
  -46.2900000000000         3.101365986149796E-007
  -46.1000000000000         3.130729458390055E-007
  -45.9100000000000         3.166446070656596E-007
  -45.7200000000000         3.200518168074013E-007
  -45.5300000000000         3.235327166883248E-007
  -45.3400000000000         3.273118116745932E-007
  -45.1500000000000         3.309266001250170E-007
  -44.9600000000000         3.345409704603643E-007
  -44.7700000000000         3.375367528060740E-007
  -44.5800000000000         3.410555846040806E-007
  -44.3900000000000         3.439669798807708E-007
  -44.2000000000000         3.476715359428567E-007
  -44.0100000000000         3.508064258268424E-007
  -43.8200000000000         3.547717503404084E-007
  -43.6300000000000         3.578896444629910E-007
  -43.4400000000000         3.622215138549357E-007
  -43.2500000000000         3.649355036742500E-007
  -43.0600000000000         3.691122672237817E-007
  -42.8700000000000         3.724131285882498E-007
  -42.6800000000000         3.766221512483129E-007
  -42.4900000000000         3.794356493379471E-007
  -42.3000000000000         3.838334232876456E-007
  -42.1100000000000         3.864012710241814E-007
  -41.9200000000000         3.908279090794992E-007
  -41.7300000000000         3.938265113484169E-007
  -41.5400000000000         3.980709033228207E-007
  -41.3500000000000         4.003451902704958E-007
  -41.1600000000000         4.046992949109856E-007
  -40.9700000000000         4.064314166684574E-007
  -40.7800000000000         4.116990021785103E-007
  -40.5900000000000         4.135860791261664E-007
  -40.4000000000000         4.205386474392357E-007
  -40.2100000000000         4.225273530802304E-007
  -40.0200000000000         4.298939868630421E-007
  -39.8300000000000         4.317902643481903E-007
  -39.6400000000000         4.404373204498541E-007
  -39.4500000000000         4.424578604783528E-007
  -39.2600000000000         4.505908229623701E-007
  -39.0700000000000         4.534479677753927E-007
  -38.8800000000000         4.629805197629743E-007
  -38.6900000000000         4.659772052702195E-007
  -38.5000000000000         4.756855738323329E-007
  -38.3100000000000         4.784661496917886E-007
  -38.1200000000000         4.871007542615260E-007
  -37.9300000000000         4.897026309176455E-007
  -37.7400000000000         4.976438432665662E-007
  -37.5500000000000         5.001259212369802E-007
  -37.3600000000000         5.075993548162482E-007
  -37.1700000000000         5.099864147273868E-007
  -36.9800000000000         5.169476505288488E-007
  -36.7900000000000         5.192664992342948E-007
  -36.6000000000000         5.261060745542502E-007
  -36.4100000000000         5.281114640224349E-007
  -36.2200000000000         5.347251996875013E-007
  -36.0300000000000         5.365664738487438E-007
  -35.8400000000000         5.436793310567471E-007
  -35.6500000000000         5.456610441143470E-007
  -35.4600000000000         5.534989947332408E-007
  -35.2700000000000         5.556386097988574E-007
  -35.0800000000000         5.640681238752308E-007
  -34.8900000000000         5.661790077871387E-007
  -34.7000000000000         5.753351339492964E-007
  -34.5100000000000         5.774850663852198E-007
  -34.3200000000000         5.866185744092064E-007
  -34.1300000000000         5.892459108821705E-007
  -33.9400000000000         6.000668164108846E-007
  -33.7500000000000         6.030422919392856E-007
  -33.5600000000000         6.133061242880781E-007
  -33.3700000000000         6.159296496135699E-007
  -33.1800000000000         6.272008314513545E-007
  -32.9900000000000         6.294802323641098E-007
  -32.8000000000000         6.393577033694263E-007
  -32.6100000000000         6.416342751516412E-007
  -32.4200000000000         6.520053954668765E-007
  -32.2300000000000         6.544785490919334E-007
  -32.0400000000000         6.647315506999966E-007
  -31.8500000000000         6.672020281698297E-007
  -31.6600000000000         6.774779364025840E-007
  -31.4700000000000         6.799046186984514E-007
  -31.2800000000000         6.899364135870512E-007
  -31.0900000000000         6.925353261267202E-007
  -30.9000000000000         7.026129496073845E-007
  -30.7100000000000         7.054001004050141E-007
  -30.5200000000000         7.154744233175833E-007
  -30.3300000000000         7.182084342748197E-007
  -30.1400000000000         7.287779915185193E-007
  -29.9500000000000         7.313609309557963E-007
  -29.7600000000000         7.421687407834849E-007
  -29.5700000000000         7.447513065594077E-007
  -29.3800000000000         7.548321219515124E-007
  -29.1900000000000         7.578353602965452E-007
  -29.0000000000000         7.687931838146536E-007
  -28.8100000000000         7.725275755359841E-007
  -28.6200000000000         7.826409764451335E-007
  -28.4300000000000         7.870531473448455E-007
  -28.2400000000000         7.965660130533775E-007
  -28.0500000000000         8.007207650408374E-007
  -27.8600000000000         8.086657412955089E-007
  -27.6700000000000         8.153983029347443E-007
  -27.4800000000000         8.216992983487436E-007
  -27.2900000000000         8.280954774740869E-007
  -27.1000000000000         8.344626129714372E-007
  -26.9100000000000         8.404687296730562E-007
  -26.7200000000000         8.459886170286111E-007
  -26.5300000000000         8.520802113060413E-007
  -26.3400000000000         8.579590208269671E-007
  -26.1500000000000         8.644133945379294E-007
  -25.9600000000000         8.710013622707911E-007
  -25.7700000000000         8.779513022722961E-007
  -25.5800000000000         8.850663777463481E-007
  -25.3900000000000         8.918229091554660E-007
  -25.2000000000000         8.984256888952840E-007
  -25.0100000000000         9.058363462702035E-007
  -24.8200000000000         9.128718104907382E-007
  -24.6300000000000         9.204761172445620E-007
  -24.4400000000000         9.286454085518164E-007
  -24.2500000000000         9.363115387299963E-007
  -24.0600000000000         9.445964886544297E-007
  -23.8700000000000         9.522356603621205E-007
  -23.6800000000000         9.594292183035817E-007
  -23.4900000000000         9.671700246234168E-007
  -23.3000000000000         9.752314610017274E-007
  -23.1100000000000         9.830712631384107E-007
  -22.9200000000000         9.910278888200785E-007
  -22.7300000000000         9.993970675365725E-007
  -22.5400000000000         1.007550522678034E-006
  -22.3500000000000         1.015755757057657E-006
  -22.1600000000000         1.024361320278140E-006
  -21.9700000000000         1.032766613047437E-006
  -21.7800000000000         1.040710729995501E-006
  -21.5900000000000         1.049313477902213E-006
  -21.4000000000000         1.057517743764185E-006
  -21.2100000000000         1.065036250070257E-006
  -21.0200000000000         1.074521070617852E-006
  -20.8300000000000         1.078715459522291E-006
  -20.6400000000000         1.090722223629709E-006
  -20.4500000000000         1.093591187389191E-006
  -20.2600000000000         1.109146638636700E-006
  -20.0700000000000         1.111621855492557E-006
  -19.8800000000000         1.118573366362669E-006
  -19.6900000000000         1.129849685389638E-006
  -19.5000000000000         1.132729577948905E-006
  -19.3100000000000         1.148590375843887E-006
  -19.1200000000000         1.151390248363701E-006
  -18.9300000000000         1.161587038180400E-006
  -18.7400000000000         1.164893313857875E-006
  -18.5500000000000         1.181179151763501E-006
  -18.3600000000000         1.183818366473168E-006
  -18.1700000000000         1.193425378256593E-006
  -17.9800000000000         1.204747484979795E-006
  -17.7900000000000         1.208091007417802E-006
  -17.6000000000000         1.220920947363269E-006
  -17.4100000000000         1.223752006761747E-006
  -17.2200000000000         1.237338512627793E-006
  -17.0300000000000         1.240267404018184E-006
  -16.8400000000000         1.254065203832217E-006
  -16.6500000000000         1.257254379257753E-006
  -16.4600000000000         1.272682023934203E-006
  -16.2700000000000         1.275833169032572E-006
  -16.0800000000000         1.291891134223108E-006
  -15.8900000000000         1.294980806199102E-006
  -15.7000000000000         1.310030626899318E-006
  -15.5100000000000         1.313374510459180E-006
  -15.3200000000000         1.330219977407446E-006
  -15.1300000000000         1.333308163000959E-006
  -14.9400000000000         1.346749388992583E-006
  -14.7500000000000         1.349981756391009E-006
  -14.5600000000000         1.367181068336513E-006
  -14.3700000000000         1.370215455290246E-006
  -14.1800000000000         1.382701979785711E-006
  -13.9900000000000         1.386132966364201E-006
  -13.8000000000000         1.401895205122071E-006
  -13.6100000000000         1.404765877188668E-006
  -13.4200000000000         1.417375645133089E-006
  -13.2300000000000         1.420312885593140E-006
  -13.0400000000000         1.436358229042014E-006
  -12.8500000000000         1.439217019375067E-006
  -12.6600000000000         1.452218054910862E-006
  -12.4700000000000         1.455300811469097E-006
  -12.2800000000000         1.471594283154191E-006
  -12.0900000000000         1.474607805224924E-006
  -11.9000000000000         1.489683683179359E-006
  -11.7100000000000         1.492904674538445E-006
  -11.5200000000000         1.510482339158618E-006
  -11.3300000000000         1.513761933120677E-006
  -11.1400000000000         1.528622173764416E-006
  -10.9500000000000         1.531971879610551E-006
  -10.7600000000000         1.550096884607914E-006
  -10.5700000000000         1.553298174109558E-006
  -10.3800000000000         1.566256814882836E-006
  -10.1900000000000         1.569662355164120E-006
  -10.0000000000000         1.587881102152081E-006
  -9.81000000000000         1.591111939053577E-006
  -9.62000000000000         1.603439023440421E-006
  -9.42999999999999         1.607222847635856E-006
  -9.23999999999999         1.625264085202863E-006
  -9.05000000000000         1.628556280634793E-006
  -8.86000000000000         1.643370466457422E-006
  -8.67000000000000         1.646860008638586E-006
  -8.48000000000000         1.664819835095454E-006
  -8.28999999999999         1.668269949712468E-006
  -8.09999999999999         1.683271532423924E-006
  -7.91000000000000         1.687036527978911E-006
  -7.72000000000000         1.705746577531546E-006
  -7.53000000000000         1.709356837440122E-006
  -7.34000000000000         1.725083135985878E-006
  -7.15000000000001         1.728799188229822E-006
  -6.95999999999999         1.746468745836663E-006
  -6.77000000000000         1.750213097911976E-006
  -6.58000000000000         1.765285073816104E-006
  -6.39000000000000         1.769269142366428E-006
  -6.20000000000000         1.788643136313852E-006
  -6.01000000000001         1.792304849246872E-006
  -5.81999999999999         1.800717611215515E-006
  -5.63000000000000         1.817943318016291E-006
  -5.44000000000000         1.821819490339701E-006
  -5.25000000000000         1.835960784607065E-006
  -5.06000000000000         1.840006751951461E-006
  -4.87000000000000         1.860048408933498E-006
  -4.67999999999999         1.863734726679943E-006
  -4.48999999999999         1.868961679146650E-006
  -4.30000000000000         1.885637510364579E-006
  -4.11000000000000         1.889524438710443E-006
  -3.92000000000000         1.896475870606484E-006
  -3.73000000000000         1.917689446773086E-006
  -3.53999999999999         1.921524682024747E-006
  -3.34999999999999         1.926855092194511E-006
  -3.16000000000000         1.941102457935608E-006
  -2.97000000000000         1.945461418136645E-006
  -2.78000000000000         1.966530484274467E-006
  -2.59000000000000         1.970644841879355E-006
  -2.40000000000001         1.977510108957952E-006
  -2.20999999999999         1.998729340394693E-006
  -2.02000000000000         2.002891615958571E-006
  -1.83000000000000         2.009205754787138E-006
  -1.64000000000000         2.026737479631669E-006
  -1.45000000000000         2.030962157673558E-006
  -1.26000000000001         2.039759800396397E-006
  -1.06999999999999         2.061082039206352E-006
 -0.879999999999995         2.065220911055353E-006
 -0.689999999999998         2.070707943606025E-006
 -0.500000000000000         2.078411928198105E-006
 -0.310000000000002         2.095708025691285E-006
 -0.120000000000005         2.099950547002801E-006
  7.000000000000739E-002    2.106519511811432E-006
  0.260000000000005         2.117875483845381E-006
  0.450000000000003         2.122856366180889E-006
  0.640000000000001         2.148540965725792E-006
  0.829999999999998         2.152679643590985E-006
   1.02000000000000         2.158325596649219E-006
   1.21000000000001         2.166006753297131E-006
   1.40000000000001         2.173602390379681E-006
   1.59000000000000         2.181062277278814E-006
   1.78000000000000         2.188459567236107E-006
   1.97000000000000         2.196166591403641E-006
   2.16000000000000         2.203638056232685E-006
   2.34999999999999         2.236297235024641E-006
   2.54000000000001         2.241113071879465E-006
   2.73000000000000         2.247032144251404E-006
   2.92000000000000         2.254020326891521E-006
   3.11000000000000         2.261478318136573E-006
   3.30000000000000         2.269095924901523E-006
   3.48999999999999         2.277186253441639E-006
   3.68000000000001         2.285561504183931E-006
   3.87000000000000         2.295432562853712E-006
   4.06000000000000         2.303644438350040E-006
   4.25000000000000         2.313805721115635E-006
   4.44000000000000         2.322028702558581E-006
   4.63000000000000         2.332560250552117E-006
   4.82000000000001         2.341095176574420E-006
   5.01000000000001         2.352772998895207E-006
   5.20000000000000         2.361107692154341E-006
   5.39000000000000         2.371624025807642E-006
   5.58000000000000         2.380374329330293E-006
   5.77000000000000         2.389471201177402E-006
   5.96000000000001         2.398884444594960E-006
   6.15000000000001         2.407909430979232E-006
   6.34000000000000         2.417249702459775E-006
   6.53000000000000         2.426246487224082E-006