  -105.000000000000        -1.440994289247568E-019
  -104.810000000000        -1.091455798120289E-019
  -104.620000000000        -5.098716234237588E-020
  -104.430000000000         1.407908035341318E-020
  -104.240000000000         6.793930042078444E-020
  -104.050000000000         9.587956167015860E-020
  -103.860000000000         9.081381695169695E-020
  -103.670000000000         5.529371540175971E-020
  -103.480000000000         7.159528227411984E-022
  -103.290000000000        -5.603873313837268E-020
  -103.100000000000        -9.755059617936972E-020
  -102.910000000000        -1.109466468031127E-019
  -102.720000000000        -9.165011691303406E-020
  -102.530000000000        -4.471217261911514E-020
  -102.340000000000         1.665248541239314E-020
  -102.150000000000         7.489882514319494E-020
  -101.960000000000         1.132456835127549E-019
  -101.770000000000         1.205586879019581E-019
  -101.580000000000         9.460569086658640E-020
  -101.390000000000         4.273349743955558E-020
  -101.200000000000        -2.023966602853334E-020
  -101.010000000000        -7.630848883910620E-020
  -100.820000000000        -1.094940685627896E-019
  -100.630000000000        -1.104654599793018E-019
  -100.440000000000        -7.922460031617358E-020
  -100.250000000000        -2.508044354514461E-020
  -100.060000000000         3.607070218420605E-020
  -99.8700000000000         8.636315556377521E-020
  -99.6800000000000         1.111399428388082E-019
  -99.4900000000000         1.031965307925637E-019
  -99.3000000000000         6.486592873717417E-020
  -99.1100000000000         7.340004708758644E-021
  -98.9200000000000        -5.258227625560374E-020
  -98.7300000000000        -9.738094570067743E-020
  -98.5400000000000        -1.139153729161301E-019
  -98.3500000000000        -9.725130676420653E-020
  -98.1600000000000        -5.209779641202964E-020
  -97.9700000000000         8.563167675086032E-021
  -97.7800000000000         6.725095382149344E-020
  -97.5900000000000         1.070624296507972E-019
  -97.4000000000000         1.165745250228660E-019
  -97.2100000000000         9.315404986307999E-020
  -97.0200000000000         4.371893255223149E-020
  -96.8300000000000        -1.727007068008871E-020
  -96.6400000000000        -7.200915218909490E-020
  -96.4500000000000        -1.045277065378336E-019
  -96.2600000000000        -1.053368232760586E-019
  -96.0700000000000        -7.419389778405769E-020
  -95.8800000000000        -2.017429981773535E-020
  -95.6900000000000         4.097164090835449E-020
  -95.5000000000000         9.140349091589023E-020
  -95.3100000000000         1.163793347042031E-019
  -95.1200000000000         1.085399089335779E-019
  -94.9300000000000         7.004889172715436E-020
  -94.7400000000000         1.197306126427651E-020
  -94.5500000000000        -4.891816746161144E-020
  -94.3600000000000        -9.501106049756059E-020
  -94.1700000000000        -1.129603631762431E-019
  -93.9800000000000        -9.757394617853575E-020
  -93.7900000000000        -5.333591678327903E-020
  -93.6000000000000         6.882582821819027E-021
  -93.4100000000000         6.555484430959418E-020
  -93.2200000000000         1.055857184743933E-019
  -93.0300000000000         1.152714263453686E-019
  -92.8400000000000         9.169098419214938E-020
  -92.6500000000000         4.155101150683657E-020
  -92.4600000000000        -2.075245087656868E-020
  -92.2700000000000        -7.728898993133793E-020
  -92.0800000000000        -1.117659134588819E-019
  -91.8900000000000        -1.142289914005996E-019
  -91.7000000000000        -8.393777650739489E-020
  -91.5100000000000        -2.958142025521295E-020
  -91.3200000000000         3.323554835532300E-020
  -91.1300000000000         8.651553649736048E-020
  -90.9400000000000         1.150867303439173E-019
  -90.7500000000000         1.109985410235734E-019
  -90.5600000000000         7.581223344236343E-020
  -90.3700000000000         2.012120644654609E-020
  -90.1800000000000        -3.955452824565806E-020
  -89.9900000000000        -8.559135846193800E-020
  -89.8000000000000        -1.043999889914006E-019
  -89.6100000000000        -9.038957153786566E-020
  -89.4200000000000        -4.761037145308731E-020
  -89.2300000000000         1.140362394021888E-020
  -89.0400000000000         6.926225501441450E-020
  -88.8500000000000         1.087692927288851E-019
  -88.6600000000000         1.179295020325320E-019
  -88.4700000000000         9.345443804233436E-020
  -88.2800000000000         4.174400393935334E-020
  -88.0900000000000        -2.294141007462025E-020
  -87.9000000000000        -8.258232917241690E-020
  -87.7100000000000        -1.205801414656151E-019
  -87.5200000000000        -1.265152498367097E-019
  -87.3300000000000        -9.911325389224654E-020
  -87.1400000000000        -4.657039783894567E-020
  -86.9500000000000         1.584931683052568E-020
  -86.7600000000000         7.024837614361986E-020
  -86.5700000000000         1.012788389669626E-019
  -86.3800000000000         1.005725460004225E-019
  -86.1900000000000         6.913043542941725E-020
  -86.0000000000000         1.697459296215544E-020
  -85.8100000000000        -3.983224483698003E-020
  -85.6200000000000        -8.392257944719870E-020
  -85.4300000000000        -1.017269322359705E-019
  -85.2400000000000        -8.745490323041918E-020
  -85.0500000000000        -4.480065859958480E-020
  -84.8600000000000         1.411520819864989E-020
  -84.6700000000000         7.225533330154430E-020
  -84.4800000000000         1.126102008947044E-019
  -84.2900000000000         1.231495896976625E-019
  -84.1000000000000         1.003472690170749E-019
  -83.9100000000000         5.024996060084891E-020
  -83.7200000000000        -1.323221355696167E-020
  -83.5300000000000        -7.232786525044845E-020
  -83.3400000000000        -1.105391019644410E-019
  -83.1500000000000        -1.174122602442407E-019
  -82.9600000000000        -9.155188659717198E-020
  -82.7700000000000        -4.100034611111111E-020
  -82.5800000000000         1.912280987822152E-020
  -82.3900000000000         7.103001633925888E-020
  -82.2000000000000         9.944126508840871E-020
  -82.0100000000000         9.602643524724791E-020
  -81.8200000000000         6.182775549165140E-020
  -81.6300000000000         6.958014363145418E-021
  -81.4400000000000        -5.234260357051532E-020
  -81.2500000000000        -9.844060392649011E-020
  -81.0600000000000        -1.174585870415325E-019
  -80.8700000000000        -1.033381092627426E-019
  -80.6800000000000        -5.962893245316318E-020
  -80.4900000000000         1.516832249800192E-021
  -80.3000000000000         6.284973992752060E-020
  -80.1100000000000         1.070056074279443E-019
  -79.9200000000000         1.215206905106482E-019
  -79.7300000000000         1.024303149467804E-019
  -79.5400000000000         5.541311271794824E-020
  -79.3500000000000        -5.850253593401146E-021
  -79.1600000000000        -6.363385747903902E-020
  -78.9700000000000        -1.012992932778434E-019
  -78.7800000000000        -1.081184501594262E-019
  -78.5900000000000        -8.238192819026566E-020
  -78.4000000000000        -3.188326998511115E-020
  -78.2100000000000         2.836445424793855E-020
  -78.0200000000000         8.051281838377179E-020
  -77.8300000000000         1.090836015495980E-019
  -77.6400000000000         1.054813473513737E-019
  -77.4500000000000         7.050559071502927E-020
  -77.2600000000000         1.413831168416028E-020
  -77.0700000000000        -4.733193495596853E-020
  -76.8800000000000        -9.602328978748413E-020
  -76.6900000000000        -1.176553707348675E-019
  -76.5000000000000        -1.057233423648991E-019
  -76.3100000000000        -6.343332228320336E-020
  -76.1200000000000        -2.822412177970712E-021
  -75.9300000000000         5.869574124450374E-020
  -75.7400000000000         1.033633168155584E-019
  -75.5500000000000         1.182244809543277E-019
  -75.3600000000000         9.888515729177187E-020
  -75.1700000000000         5.079376856711121E-020
  -74.9800000000000        -1.232382662769225E-020
  -74.7900000000000        -7.241634582332509E-020
  -74.6000000000000        -1.123014591527771E-019
  -74.4100000000000        -1.206046871209833E-019
  -74.2200000000000        -9.502120976856239E-020
  -74.0300000000000        -4.296180120948026E-020
  -73.8400000000000         2.060343433583277E-020
  -73.6500000000000         7.748114600436913E-020
  -73.4600000000000         1.115152360078357E-019
  -73.2700000000000         1.132455936024690E-019
  -73.0800000000000         8.261421057880308E-020
  -72.8900000000000         2.893895053605729E-020
  -72.7000000000000        -3.182854783734748E-020
  -72.5100000000000        -8.175822316298513E-020
  -72.3200000000000        -1.061585899368999E-019
  -72.1300000000000        -9.784663812594641E-020
  -71.9400000000000        -5.923771953911123E-020
  -71.7500000000000        -1.650182714037515E-021
  -71.5600000000000         5.797866564506196E-020
  -71.3700000000000         1.020186120398376E-019
  -71.1800000000000         1.172855831136646E-019
  -70.9900000000000         9.889592602545304E-020
  -70.8000000000000         5.170989443416919E-020
  -70.6100000000000        -1.105654010168411E-020
  -70.4200000000000        -7.164381756718176E-020
  -70.2300000000000        -1.128720608816481E-019
  -70.0400000000000        -1.230883201193385E-019
  -69.8500000000000        -9.951108830905339E-020
  -69.6600000000000        -4.901450633254112E-020
  -69.4700000000000         1.386798004492878E-020
  -69.2800000000000         7.114423604985532E-020
  -69.0900000000000         1.065586904855871E-019
  -68.9000000000000         1.102820370808581E-019
  -68.7100000000000         8.173481872378140E-020
  -68.5200000000000         2.972050610425953E-020
  -68.3300000000000        -3.017352721989103E-020
  -68.1400000000000        -8.014723037175051E-020
  -67.9500000000000        -1.053918169655148E-019
  -67.7600000000000        -9.840537422593908E-020
  -67.5700000000000        -6.116718539481629E-020
  -67.3800000000000        -4.548951013522598E-021
  -67.1900000000000         5.485511871610491E-020
  -67.0000000000000         9.955415909729157E-020
  -66.8100000000000         1.162448050117968E-019
  -66.6200000000000         9.968489321437349E-020
  -66.4300000000000         5.423603100962736E-020
  -66.2400000000000        -7.375661920327533E-021
  -66.0500000000000        -6.772685184095204E-020
  -65.8600000000000        -1.097306415544050E-019
  -65.6700000000000        -1.215735559880174E-019
  -65.4800000000000        -1.001199206505193E-019
  -65.2900000000000        -5.179590821035416E-020
  -65.1000000000000         9.298565570929385E-021
  -64.9100000000000         6.549587759962884E-020
  -64.7200000000000         1.006899591944830E-019
  -64.5300000000000         1.050023233736803E-019
  -64.3400000000000         7.763460564136190E-020
  -64.1500000000000         2.708030432530870E-020
  -63.9600000000000        -3.136880701613402E-020
  -63.7700000000000        -8.009945871098459E-020
  -63.5800000000000        -1.043331802002310E-019
  -63.3900000000000        -9.645618243505444E-020
  -63.2000000000000        -5.825720269856875E-020
  -63.0100000000000        -4.214440977904225E-022
  -62.8200000000000         6.056637183430560E-020
  -62.6300000000000         1.072015876704730E-019
  -62.4400000000000         1.260307248681880E-019
  -62.2500000000000         1.115474363677960E-019
  -62.0600000000000         6.779110739674099E-020
  -61.8700000000000         7.187529849514010E-021
  -61.6800000000000        -5.303686509737962E-020
  -61.4900000000000        -9.583566901364305E-020
  -61.3000000000000        -1.092780998871991E-019
  -61.1100000000000        -9.000398337031485E-020
  -60.9200000000000        -4.418606557145459E-020
  -60.7300000000000         1.428614056435634E-020
  -60.5400000000000         6.787054943918065E-020
  -60.3500000000000         1.004942908117206E-019
  -60.1600000000000         1.022370647247204E-019
  -59.9700000000000         7.221548327566784E-020
  -59.7800000000000         1.883772455290490E-020
  -59.5900000000000        -4.263749610460831E-020
  -59.4000000000000        -9.452688171819335E-020
  -59.2100000000000        -1.218539715839236E-019
  -59.0200000000000        -1.167032961470783E-019
  -58.8300000000000        -8.053376278995330E-020
  -58.6400000000000        -2.377240308445449E-020
  -58.4500000000000         3.720243395888099E-020
  -58.2600000000000         8.481613251165216E-020
  -58.0700000000000         1.054069964376186E-019
  -57.8800000000000         9.319903815754600E-020
  -57.6900000000000         5.198002300040110E-020
  -57.5000000000000        -6.001485966657834E-021
  -57.3100000000000        -6.359552072534696E-020
  -57.1200000000000        -1.037314911030536E-019
  -56.9300000000000        -1.143775360579240E-019
  -56.7400000000000        -9.204239477251887E-020
  -56.5500000000000        -4.280256986960878E-020
  -56.3600000000000         1.944800018207315E-020
  -56.1700000000000         7.702204463080891E-020
  -55.9800000000000         1.135690349520685E-019
  -55.7900000000000         1.188174621763036E-019
  -55.6000000000000         9.154672250434640E-020
  -55.4100000000000         3.992480329993036E-020
  -55.2200000000000        -2.087994854570478E-020
  -55.0300000000000        -7.311136145861560E-020
  -54.8400000000000        -1.015790010684188E-019
  -54.6500000000000        -9.806219843698757E-020
  -54.4600000000000        -6.369380088224869E-020
  -54.2700000000000        -8.634403378660850E-021
  -54.0800000000000         5.087371147875266E-020
  -53.8900000000000         9.722758163909089E-020
  -53.7000000000000         1.165948984714450E-019
  -53.5100000000000         1.029616146541114E-019
  -53.3200000000000         5.990915072606090E-020
  -53.1300000000000        -4.038735360505358E-022
  -52.9400000000000        -6.076019877408718E-020
  -52.7500000000000        -1.038753467450989E-019
  -52.5600000000000        -1.174072807806766E-019
  -52.3700000000000        -9.753003741853290E-020
  -52.1800000000000        -5.003985161912338E-020
  -51.9900000000000         1.132107352253102E-020
  -51.8000000000000         6.883717713518433E-020
  -51.6100000000000         1.059435832007875E-019
  -51.4200000000000         1.120225314646230E-019
  -51.2300000000000         8.548096546249838E-020
  -51.0400000000000         3.421003076511206E-020
  -50.8500000000000        -2.671355054309018E-020
  -50.6600000000000        -7.941869062899044E-020
  -50.4700000000000        -1.084443095137577E-019
  -50.2800000000000        -1.052387856150484E-019
  -50.0900000000000        -7.064545742086562E-020
  -49.9000000000000        -1.465755956703034E-020
  -49.7100000000000         4.647866280079964E-020
  -49.5200000000000         9.496947281092171E-020
  -49.3300000000000         1.166268089428756E-019
  -49.1400000000000         1.049804115927122E-019
  -48.9500000000000         6.315922227992913E-020
  -48.7600000000000         2.994819163441244E-021
  -48.5700000000000        -5.839729129564547E-020
  -48.3800000000000        -1.035695363814072E-019
  -48.1900000000000        -1.197889742842124E-019
  -48.0000000000000        -1.027111903068383E-019
  -47.8100000000000        -5.761635259208671E-020
  -47.6200000000000         2.144701248354033E-021
  -47.4300000000000         5.903703101704363E-020
  -47.2400000000000         9.643249592509236E-020
  -47.0500000000000         1.034332672366576E-019
  -46.8600000000000         7.803530325048497E-020
  -46.6700000000000         2.771621112489497E-020
  -46.4800000000000        -3.272877868133542E-020
  -46.2900000000000        -8.548455560317503E-020
  -46.1000000000000        -1.149045535778566E-019
  -45.9100000000000        -1.120772828595661E-019
  -45.7200000000000        -7.743337987973857E-020
  -45.5300000000000        -2.062903196561969E-020
  -45.3400000000000         4.225814021834218E-020
  -45.1500000000000         9.339753802887059E-020
  -44.9600000000000         1.183740484527007E-019
  -44.7700000000000         1.103543731463508E-019
  -44.5800000000000         7.204895536771363E-020
  -44.3900000000000         1.490893802263004E-020
  -44.2000000000000        -4.420709663358623E-020
  -44.0100000000000        -8.793522630109131E-020
  -43.8200000000000        -1.034603512961414E-019
  -43.6300000000000        -8.625492081236115E-020
  -43.4400000000000        -4.141012096126306E-020
  -43.2500000000000         1.783540228853254E-020
  -43.0600000000000         7.394642762117413E-020
  -42.8700000000000         1.102003444657824E-019
  -42.6800000000000         1.155636987053816E-019
  -42.4900000000000         8.791617438357547E-020
  -42.3000000000000         3.468860799467909E-020
  -42.1100000000000        -2.926582248951839E-020
  -41.9200000000000        -8.594922179958909E-020
  -41.7300000000000        -1.194086560619759E-019
  -41.5400000000000        -1.203379282163678E-019
  -41.3500000000000        -8.875965531246750E-020
  -41.1600000000000        -3.400802578130643E-020
  -40.9700000000000         2.798728244957259E-020
  -40.7800000000000         7.932971298353404E-020
  -40.5900000000000         1.053497653545734E-019
  -40.4000000000000         9.885155101040666E-020
  -40.2100000000000         6.217919480671046E-020
  -40.0200000000000         6.508174265754451E-021
  -39.8300000000000        -5.142773108071314E-020
  -39.6400000000000        -9.422252374573772E-020
  -39.4500000000000        -1.088813940023961E-019
  -39.2600000000000        -9.062911840216955E-020
  -39.0700000000000        -4.433600556625033E-020
  -38.8800000000000         1.686283881299210E-020
  -38.6900000000000         7.536686055373328E-020
  -38.5000000000000         1.142295176450253E-019
  -38.3100000000000         1.221039872318863E-019
  -38.1200000000000         9.656616615470657E-020
  -37.9300000000000         4.484075367148391E-020
  -37.7400000000000        -1.828155080467380E-020
  -37.5500000000000        -7.472529830391759E-020
  -37.3600000000000        -1.083613699469137E-019
  -37.1700000000000        -1.096716261407926E-019
  -36.9800000000000        -7.850336159754684E-020
  -36.7900000000000        -2.412227037039828E-020
  -36.6000000000000         3.745439182971003E-020
  -36.4100000000000         8.808286723653212E-020
  -36.2200000000000         1.127468397574114E-019
  -36.0300000000000         1.039215430750711E-019
  -35.8400000000000         6.377842745830323E-020
  -35.6500000000000         3.581773116702688E-021
  -35.4600000000000        -5.955444651297944E-020
  -35.2700000000000        -1.076080688657638E-019
  -35.0800000000000        -1.268512679659175E-019
  -34.8900000000000        -1.118056894930418E-019
  -34.7000000000000        -6.680984213535478E-020
  -34.5100000000000        -4.751743022122497E-021
  -34.3200000000000         5.666242279713178E-020
  -34.1300000000000         1.000241518771773E-019
  -33.9400000000000         1.132462414272311E-019
  -33.7500000000000         9.304357095117470E-020
  -33.5600000000000         4.586216805926602E-020
  -33.3700000000000        -1.401668494979696E-020
  -33.1800000000000        -6.864868614712890E-020
  -32.9900000000000        -1.016607781914310E-019
  -32.8000000000000        -1.030243933411624E-019
  -32.6100000000000        -7.198247124556100E-020
  -32.4200000000000        -1.728387945348151E-020
  -32.2300000000000         4.534021532556793E-020
  -32.0400000000000         9.772634633386504E-020
  -31.8500000000000         1.245400442675304E-019
  -31.6600000000000         1.177289829724842E-019
  -31.4700000000000         7.887805573046355E-020
  -31.2800000000000         1.877668673354487E-020
  -31.0900000000000        -4.568511938368450E-020
  -30.9000000000000        -9.639443865395270E-020
  -30.7100000000000        -1.192472604099180E-019
  -30.5200000000000        -1.082106026705539E-019
  -30.3300000000000        -6.703524784986473E-020
  -30.1400000000000        -8.129206997691473E-021
  -29.9500000000000         5.106853920297396E-020
  -29.7600000000000         9.315276238781127E-020
  -29.5700000000000         1.057887624942970E-019
  -29.3800000000000         8.527283657224757E-020
  -29.1900000000000         3.759496078849980E-020
  -29.0000000000000        -2.330255637791488E-020
  -28.8100000000000        -7.957105171985679E-020
  -28.6200000000000        -1.146393864955638E-019
  -28.4300000000000        -1.180339350678492E-019
  -28.2400000000000        -8.843106371946629E-020
  -28.0500000000000        -3.404862235131526E-020
  -27.8600000000000         2.973846700799832E-020
  -27.6700000000000         8.485854510059354E-020
  -27.4800000000000         1.157753215470230E-019
  -27.2900000000000         1.139707630876649E-019
  -27.1000000000000         8.038335602060367E-020
  -26.9100000000000         2.510313179430991E-020
  -26.7200000000000        -3.558072034611240E-020
  -26.5300000000000        -8.392095899521542E-020
  -26.3400000000000        -1.058695535135613E-019
  -26.1500000000000        -9.515707458475168E-020
  -25.9600000000000        -5.510723095835135E-020
  -25.7700000000000         2.345298662863265E-021
  -25.5800000000000         6.014842316859502E-020
  -25.3900000000000         1.011167093528522E-019
  -25.2000000000000         1.129513398415385E-019
  -25.0100000000000         9.183442226360766E-020
  -24.8200000000000         4.355452493286775E-020
  -24.6300000000000        -1.815968383496562E-020
  -24.4400000000000        -7.561115535629833E-020
  -24.2500000000000        -1.122610729187204E-019
  -24.0600000000000        -1.175279101179769E-019
  -23.8700000000000        -8.986716740821371E-020
  -23.6800000000000        -3.723182888278476E-020
  -23.4900000000000         2.522739362477307E-020
  -23.3000000000000         7.955629866337418E-020
  -23.1100000000000         1.102059485194039E-019
  -22.9200000000000         1.085368410634924E-019
  -22.7300000000000         7.530674663259945E-020
  -22.5400000000000         2.042379511904421E-020
  -22.3500000000000        -3.995282482868134E-020
  -22.1600000000000        -8.811461701573511E-020
  -21.9700000000000        -1.099447626784563E-019
  -21.7800000000000        -9.901420548970926E-020
  -21.5900000000000        -5.844950905381548E-020
  -21.4000000000000        -2.910470397323293E-023
  -21.2100000000000         5.923569746437961E-020
  -21.0200000000000         1.020481764592413E-019
  -20.8300000000000         1.158654617856405E-019
  -20.6400000000000         9.655775463487403E-020
  -20.4500000000000         4.961449449030954E-020
  -20.2600000000000        -1.145492823800372E-020
  -20.0700000000000        -6.905378810947052E-020
  -19.8800000000000        -1.066127668795750E-019
  -19.6900000000000        -1.133983231519090E-019
  -19.5000000000000        -8.762153636112378E-020
  -19.3100000000000        -3.695042831237400E-020
  -19.1200000000000         2.371958496050799E-020
  -18.9300000000000         7.659262863628658E-020
  -18.7400000000000         1.061475287682259E-019
  -18.5500000000000         1.036620118543873E-019
  -18.3600000000000         6.976759102165702E-020
  -18.1700000000000         1.428543018539070E-020
  -17.9800000000000        -4.661307560226912E-020
  -17.7900000000000        -9.509560728040235E-020
  -17.6000000000000        -1.168441728334233E-019
  -17.4100000000000        -1.052130261824020E-019
  -17.2200000000000        -6.316511603566886E-020
  -17.0300000000000        -2.430451156290162E-021
  -16.8400000000000         5.986723690781072E-020
  -16.6500000000000         1.061424056898914E-019
  -16.4600000000000         1.234165734925083E-019
  -16.2700000000000         1.070581308626102E-019
  -16.0800000000000         6.210594145435430E-020
  -15.8900000000000         1.788888947570984E-021
  -15.7000000000000        -5.632964786182595E-020
  -15.5100000000000        -9.545935163771548E-020
  -15.3200000000000        -1.044530686441501E-019
  -15.1300000000000        -8.102187957168108E-020
  -14.9400000000000        -3.236707183685875E-020
  -14.7500000000000         2.694272135762746E-020
  -14.5600000000000         7.922509585613325E-020
  -14.3700000000000         1.088350930341331E-019
  -14.1800000000000         1.067252163232865E-019
  -13.9900000000000         7.309399687355725E-020
  -13.8000000000000         1.735104807650119E-020
  -13.6100000000000        -4.460017721403040E-020
  -13.4200000000000        -9.498211908621747E-020
  -13.2300000000000        -1.193245865600370E-019
  -13.0400000000000        -1.106926267104385E-019
  -12.8500000000000        -7.171942903041507E-020
  -12.6600000000000        -1.384843368582414E-020
  -12.4700000000000         4.599130339511543E-020
  -12.2800000000000         9.030452141288857E-020
  -12.0900000000000         1.061122709404517E-019
  -11.9000000000000         8.872369691195777E-020
  -11.7100000000000         4.310727050366109E-020
  -11.5200000000000        -1.753360222730145E-020
  -11.3300000000000        -7.557146304935287E-020
  -11.1400000000000        -1.140548072766775E-019
  -10.9500000000000        -1.216216527594382E-019
  -10.7600000000000        -9.579814742228614E-020
  -10.5700000000000        -4.372043051516478E-020
  -10.3800000000000         1.993116665990053E-020
  -10.1900000000000         7.718407135447669E-020
  -10.0000000000000         1.119739552240944E-019
  -9.81000000000000         1.147821621257013E-019
  -9.62000000000000         8.536687660275884E-020
  -9.42999999999999         3.280217527398955E-020
  -9.23999999999999        -2.718231284649102E-020
  -9.05000000000000        -7.679146639253514E-020
  -8.86000000000000        -1.013558137690955E-019
  -8.67000000000000        -9.361480726070369E-020
  -8.48000000000000        -5.584122652667709E-020
  -8.28999999999999         8.178786733146389E-022
  -8.09999999999999         5.959572204688508E-020
  -7.91000000000000         1.030068225394667E-019
  -7.72000000000000         1.179613447000359E-019
  -7.53000000000000         9.959906922553131E-020
  -7.34000000000000         5.272975482196743E-020
  -7.15000000000001        -9.532595120667174E-021
  -6.95999999999999        -6.954307433770759E-020
  -6.77000000000000        -1.102169748252449E-019
  -6.58000000000000        -1.199691440911755E-019
  -6.39000000000000        -9.607263961875547E-020
  -6.20000000000000        -4.545938078212519E-020
  -6.01000000000001         1.727885996953095E-020
  -5.81999999999999         7.411846770728543E-020
  -5.63000000000000         1.088344415848094E-019
  -5.44000000000000         1.117057386768320E-019
  -5.25000000000000         8.232009844479781E-020
  -5.06000000000000         2.966357040088869E-020
  -4.87000000000000        -3.052347567309108E-020
  -4.67999999999999        -8.034700691569629E-020
  -4.48999999999999        -1.049764200396295E-019
  -4.30000000000000        -9.696652719636746E-020
  -4.11000000000000        -5.843764566878325E-020
  -3.92000000000000        -4.850521931151719E-022
  -3.73000000000000         6.001627010022544E-020
  -3.53999999999999         1.052944432716119E-019
  -3.34999999999999         1.218396413248867E-019
  -3.16000000000000         1.043404474633031E-019
  -2.97000000000000         5.725053097338013E-020
  -2.78000000000000        -6.473003860265565E-021
  -2.59000000000000        -6.909464224367955E-020
  -2.40000000000001        -1.132060316324216E-019
  -2.20999999999999        -1.267297017061854E-019
  -2.02000000000000        -1.063742751616454E-019
  -1.83000000000000        -5.854793255051484E-020
  -1.64000000000000         2.529681520962972E-021
  -1.45000000000000         5.897112443771978E-020
  -1.26000000000001         9.442159130225461E-020
  -1.06999999999999         9.880717054023714E-020
 -0.879999999999995         7.124982496891022E-020
 -0.689999999999998         2.029907033799921E-020
 -0.500000000000000        -3.858846136418365E-020
 -0.310000000000002        -8.758494334819311E-020
 -0.120000000000005        -1.117152801131356E-019
  7.000000000000739E-002   -1.032444559884091E-019
  0.260000000000005        -6.395554132611800E-020
  0.450000000000003        -4.662579511709701E-021
  0.640000000000001         5.789859832508129E-020
  0.829999999999998         1.059037116413757E-019
   1.02000000000000         1.256018745025824E-019
   1.21000000000001         1.113128835370487E-019
   1.40000000000001         6.709815506845495E-020
   1.59000000000000         5.610984694007469E-021
   1.78000000000000        -5.555013088896266E-020
   1.97000000000000        -9.892816089087095E-020
   2.16000000000000        -1.122515545712503E-019
   2.34999999999999        -9.196718718493740E-020
   2.54000000000001        -4.424029013435967E-020
   2.73000000000000         1.685993699139277E-020
   2.92000000000000         7.345379684155905E-020
   3.11000000000000         1.090328012406982E-019
   3.30000000000000         1.132321927549275E-019
   3.48999999999999         8.482089147726094E-020
   3.68000000000001         3.204761631661792E-020
   3.87000000000000        -2.976106259592572E-020
   4.06000000000000        -8.266102169071374E-020
   4.25000000000000        -1.113167272480829E-019
   4.44000000000000        -1.074716786201742E-019
   4.63000000000000        -7.235813696003266E-020
   4.82000000000001        -1.634076114076163E-020
   5.01000000000001         4.410278560118194E-020
   5.20000000000000         9.118194846894960E-020
   5.39000000000000         1.109747842262683E-019
   5.58000000000000         9.748703027807588E-020
   5.77000000000000         5.441411876856410E-020
   5.96000000000001        -5.906032318545218E-021
   6.15000000000001        -6.605171453717045E-020
   6.34000000000000        -1.085609644760057E-019
   6.53000000000000        -1.209983045647191E-019