  -105.000000000000        -8.403598180882015E-019
  -104.810000000000        -1.948785271245724E-019
  -104.620000000000         4.855961009479036E-019
  -104.430000000000         5.809028831273577E-019
  -104.240000000000         3.660956255549632E-020
  -104.050000000000        -5.903619965472123E-019
  -103.860000000000        -6.686467967582204E-019
  -103.670000000000        -9.845849152878784E-020
  -103.480000000000         5.915036348182219E-019
  -103.290000000000         7.488711660723613E-019
  -103.100000000000         2.222110133657115E-019
  -102.910000000000        -4.919821578027031E-019
  -102.720000000000        -7.211513627793648E-019
  -102.530000000000        -2.565526475429326E-019
  -102.340000000000         4.498774741768971E-019
  -102.150000000000         7.185730616158340E-019
  -101.960000000000         2.913361547838191E-019
  -101.770000000000        -4.225782195831157E-019
  -101.580000000000        -7.378466307801568E-019
  -101.390000000000        -3.486446557741122E-019
  -101.200000000000         3.779882310411680E-019
  -101.010000000000         7.522546550512608E-019
  -100.820000000000         4.207523746040641E-019
  -100.630000000000        -2.959199681468745E-019
  -100.440000000000        -7.097267862722105E-019
  -100.250000000000        -4.226467035454429E-019
  -100.060000000000         2.926764964420430E-019
  -99.8700000000000         7.524321290303690E-019
  -99.6800000000000         5.144376972387306E-019
  -99.4900000000000        -1.984554563640784E-019
  -99.3000000000000        -7.095723970456400E-019
  -99.1100000000000        -5.336124076270523E-019
  -98.9200000000000         1.603294085518213E-019
  -98.7300000000000         7.100492262201251E-019
  -98.5400000000000         5.912653962428004E-019
  -98.3500000000000        -8.361788043315609E-020
  -98.1600000000000        -6.735488556227352E-019
  -97.9700000000000        -6.199177436967884E-019
  -97.7800000000000         2.179496158966239E-020
  -97.5900000000000         6.367863398497170E-019
  -97.4000000000000         6.397864968024308E-019
  -97.2100000000000         3.494106049924178E-020
  -97.0200000000000        -5.888961128035238E-019
  -96.8300000000000        -6.225907643170930E-019
  -96.6400000000000        -2.093781853780636E-020
  -96.4500000000000         6.512579233623505E-019
  -96.2600000000000         7.552915574461142E-019
  -96.0700000000000         1.861607032856474E-019
  -95.8800000000000        -5.274818174357384E-019
  -95.6900000000000        -7.266956753865657E-019
  -95.5000000000000        -2.484308312135694E-019
  -95.3100000000000         4.238677579792378E-019
  -95.1200000000000         6.282184491035680E-019
  -94.9300000000000         1.613065444480371E-019
  -94.7400000000000        -5.252712773045863E-019
  -94.5500000000000        -7.571664772507077E-019
  -94.3600000000000        -2.849671608085391E-019
  -94.1700000000000         4.714403101086109E-019
  -93.9800000000000         8.170417021260803E-019
  -93.7900000000000         4.404412274157782E-019
  -93.6000000000000        -2.910611131116385E-019
  -93.4100000000000        -6.823734900677263E-019
  -93.2200000000000        -3.726827239753037E-019
  -93.0300000000000         3.231082415153014E-019
  -92.8400000000000         7.183127270814257E-019
  -92.6500000000000         4.127972009249346E-019
  -92.4600000000000        -3.222354160709501E-019
  -92.2700000000000        -8.002035627665208E-019
  -92.0800000000000        -5.726494253175893E-019
  -91.8900000000000         1.429778079431618E-019
  -91.7000000000000         6.704197662901442E-019
  -91.5100000000000         5.192637897060884E-019
  -91.3200000000000        -1.487983479144090E-019
  -91.1300000000000        -6.769706642533398E-019
  -90.9400000000000        -5.426476961549156E-019
  -90.7500000000000         1.418482645573998E-019
  -90.5600000000000         7.344146624474160E-019
  -90.3700000000000         6.741153454435657E-019
  -90.1800000000000         1.565988945522891E-020
  -89.9900000000000        -6.226335613615822E-019
  -89.8000000000000        -6.477405606023498E-019
  -89.6100000000000        -5.491534422000907E-020
  -89.4200000000000         5.724095516860722E-019
  -89.2300000000000         6.236310697158271E-019
  -89.0400000000000         4.556968768400416E-020
  -88.8500000000000        -6.072473375353200E-019
  -88.6600000000000        -7.039162600879617E-019
  -88.4700000000000        -1.426448914370387E-019
  -88.2800000000000         5.486498117860486E-019
  -88.0900000000000         7.144948809583591E-019
  -87.9000000000000         1.978853920143003E-019
  -87.7100000000000        -5.085398368539470E-019
  -87.5200000000000        -7.311526068647524E-019
  -87.3300000000000        -2.564110186260492E-019
  -87.1400000000000         4.668522272248134E-019
  -86.9500000000000         7.558983678145354E-019
  -86.7600000000000         3.443300496728778E-019
  -86.5700000000000        -3.659787076548696E-019
  -86.3800000000000        -6.916569496931454E-019
  -86.1900000000000        -3.234262399205440E-019
  -86.0000000000000         3.772856618991332E-019
  -85.8100000000000         7.250147575105334E-019
  -85.6200000000000         3.682284529109201E-019
  -85.4300000000000        -3.709591858224059E-019
  -85.2400000000000        -8.000932336629717E-019
  -85.0500000000000        -5.139461665068122E-019
  -84.8600000000000         2.198905818041475E-019
  -84.6700000000000         7.151146428948912E-019
  -84.4800000000000         5.189851053577705E-019
  -84.2900000000000        -1.592873447208659E-019
  -84.1000000000000        -6.528823979330490E-019
  -83.9100000000000        -4.782584207625440E-019
  -83.7200000000000         2.008336598137067E-019
  -83.5300000000000         7.294919342652389E-019
  -83.3400000000000         5.883822747726214E-019
  -83.1500000000000        -1.073347272358735E-019
  -82.9600000000000        -7.136876110151868E-019
  -82.7700000000000        -6.690328094629119E-019
  -82.5800000000000        -2.829183992034016E-020
  -82.3900000000000         5.905760532886968E-019
  -82.2000000000000         5.976249606764122E-019
  -82.0100000000000        -5.285747892523596E-021
  -81.8200000000000        -6.266350224938576E-019
  -81.6300000000000        -6.508699614019477E-019
  -81.4400000000000        -2.780643394069328E-020
  -81.2500000000000         6.758319939346727E-019
  -81.0600000000000         8.121714073671748E-019
  -80.8700000000000         2.655040676824346E-019
  -80.6800000000000        -4.410258687560245E-019
  -80.4900000000000        -6.465952158981955E-019
  -80.3000000000000        -1.823774412545630E-019
  -80.1100000000000         4.716962476949700E-019
  -79.9200000000000         6.512041130961077E-019
  -79.7300000000000         1.474689926459621E-019
  -79.5400000000000        -5.878597545941830E-019
  -79.3500000000000        -8.694056080416456E-019
  -79.1600000000000        -4.299070033885482E-019
  -78.9700000000000         3.240815210135888E-019
  -78.7800000000000         6.973736014577137E-019
  -78.5900000000000         3.651855330806051E-019
  -78.4000000000000        -3.230043403867581E-019
  -78.2100000000000        -6.835305645425310E-019
  -78.0200000000000        -3.552785722351898E-019
  -77.8300000000000         3.552274617307968E-019
  -77.6400000000000         7.689873252166295E-019
  -77.4500000000000         4.867252113459257E-019
  -77.2600000000000        -2.259571820807729E-019
  -77.0700000000000        -6.900843399049613E-019
  -76.8800000000000        -4.623610614130490E-019
  -76.6900000000000         2.392518073099290E-019
  -76.5000000000000         7.418236739303338E-019
  -76.3100000000000         5.592026601634053E-019
  -76.1200000000000        -1.436629036528350E-019
  -75.9300000000000        -7.067746198376869E-019
  -75.7400000000000        -6.027562735628572E-019
  -75.5500000000000         6.164010065945579E-020
  -75.3600000000000         6.482695822265121E-019
  -75.1700000000000         5.973527668870024E-019
  -74.9800000000000        -3.750552102443510E-020
  -74.7900000000000        -6.408125583259426E-019
  -74.6000000000000        -6.245489962154256E-019
  -74.4100000000000         7.915715378888900E-021
  -74.2200000000000         6.621539955911366E-019
  -74.0300000000000         7.171813022049943E-019
  -73.8400000000000         1.164386776357298E-019
  -73.6500000000000        -5.777132435587044E-019
  -73.4600000000000        -7.185727785427585E-019
  -73.2700000000000        -1.897700105151714E-019
  -73.0800000000000         4.863873978036404E-019
  -72.8900000000000         6.501380276204505E-019
  -72.7000000000000         1.355888578321558E-019
  -72.5100000000000        -5.707503456516341E-019
  -72.3200000000000        -7.941050266396518E-019
  -72.1300000000000        -3.142848239335782E-019
  -71.9400000000000         4.253053184688545E-019
  -71.7500000000000         7.406873362813285E-019
  -71.5600000000000         3.583391204093381E-019
  -71.3700000000000        -3.273477535480591E-019
  -71.1800000000000        -6.359905548574758E-019
  -70.9900000000000        -2.564448192222945E-019
  -70.8000000000000         4.525032503910418E-019
  -70.6100000000000         8.039277101201758E-019
  -70.4200000000000         4.402573035416564E-019
  -70.2300000000000        -3.214359571478676E-019
  -70.0400000000000        -7.863921394546080E-019
  -69.8500000000000        -5.395187415553184E-019
  -69.6600000000000         1.628991131834455E-019
  -69.4700000000000         6.410644843836639E-019
  -69.2800000000000         4.424048162541035E-019
  -69.0900000000000        -2.273356298593282E-019
  -68.9000000000000        -7.047022474104460E-019
  -68.7100000000000        -5.077047632392557E-019
  -68.5200000000000         1.985386170410884E-019
  -68.3300000000000         7.550544727322519E-019
  -68.1400000000000         6.357354603271334E-019
  -67.9500000000000        -4.974498463397661E-020
  -67.7600000000000        -6.574450570371772E-019
  -67.5700000000000        -6.200317799610529E-019
  -67.3800000000000         1.502530172691487E-020
  -67.1900000000000         6.333780680060609E-019
  -67.0000000000000         6.412097553118342E-019
  -66.8100000000000         3.082213583117227E-020
  -66.6200000000000        -6.143006193220630E-019
  -66.4300000000000        -6.781813092027105E-019
  -66.2400000000000        -1.012894956705631E-019
  -66.0500000000000         5.622941405770783E-019
  -65.8600000000000         6.747015051530665E-019
  -65.6700000000000         1.252708141941051E-019
  -65.4800000000000        -5.621236599378362E-019
  -65.2900000000000        -7.288690639237724E-019
  -65.1000000000000        -2.107185254700034E-019
  -64.9100000000000         5.049558658482751E-019
  -64.7200000000000         7.434949761531366E-019
  -64.5300000000000         2.856857867077856E-019
  -64.3400000000000        -4.239640983872713E-019
  -64.1500000000000        -7.023790031548257E-019
  -63.9600000000000        -2.812178103375708E-019
  -63.7700000000000         4.359174990793325E-019
  -63.5800000000000         7.588358723703509E-019
  -63.3900000000000         3.703770755704199E-019
  -63.2000000000000        -3.701433484194836E-019
  -63.0100000000000        -7.688386789284352E-019
  -62.8200000000000        -4.576437551672905E-019
  -62.6300000000000         2.563019513716385E-019
  -62.4400000000000         6.850567983308168E-019
  -62.2500000000000         4.176795096194101E-019
  -62.0600000000000        -2.861760880311783E-019
  -61.8700000000000        -7.436450443370331E-019
  -61.6800000000000        -5.015638416332155E-019
  -61.4900000000000         2.288025915643947E-019
  -61.3000000000000         7.703310471386741E-019
  -61.1100000000000         6.221008649697664E-019
  -60.9200000000000        -6.685746556591135E-020
  -60.7300000000000        -6.422934371651662E-019
  -60.5400000000000        -5.689147339756287E-019
  -60.3500000000000         6.148393081205359E-020
  -60.1600000000000         6.227029347842445E-019
  -59.9700000000000         5.581332527221201E-019
  -59.7800000000000        -8.306476294962085E-020
  -59.5900000000000        -6.913439300130488E-019
  -59.4000000000000        -6.797095034755097E-019
  -59.2100000000000        -4.620600997859363E-020
  -59.0200000000000         6.213628516401138E-019
  -58.8300000000000         7.031856059622783E-019
  -58.6400000000000         1.362205088388739E-019
  -58.4500000000000        -5.276267127661853E-019
  -58.2600000000000        -6.499608169281847E-019
  -58.0700000000000        -1.161951744003401E-019
  -57.8800000000000         5.560626133049993E-019
  -57.6900000000000         7.138502112820857E-019
  -57.5000000000000         1.950833396703972E-019
  -57.3100000000000        -5.145593995355492E-019
  -57.1200000000000        -7.440468173887152E-019
  -56.9300000000000        -2.778190909136093E-019
  -56.7400000000000         4.367674956041702E-019
  -56.5500000000000         7.151619351716001E-019
  -56.3600000000000         2.896151485572144E-019
  -56.1700000000000        -4.336059320176551E-019
  -55.9800000000000        -7.607938262521324E-019
  -55.7900000000000        -3.724128713145038E-019
  -55.6000000000000         3.717514636133567E-019
  -55.4100000000000         7.744701991011742E-019
  -55.2200000000000         4.638043338210179E-019
  -55.0300000000000        -2.543594345540809E-019
  -54.8400000000000        -6.895820954752109E-019
  -54.6500000000000        -4.264568586171371E-019
  -54.4600000000000         2.789443020236509E-019
  -54.2700000000000         7.444847678664540E-019
  -54.0800000000000         5.143243844882247E-019
  -53.8900000000000        -2.053979684268055E-019
  -53.7000000000000        -7.428778667361769E-019
  -53.5100000000000        -6.005439583974755E-019
  -53.3200000000000         7.180111303588581E-020
  -53.1300000000000         6.212806362838682E-019
  -52.9400000000000         5.162269111319527E-019
  -52.7500000000000        -1.450530172978306E-019
  -52.5600000000000        -7.274091112788234E-019
  -52.3700000000000        -6.653949816192579E-019
  -52.1800000000000        -3.391793473934682E-021
  -51.9900000000000         6.465288786095512E-019
  -51.8000000000000         6.875686094460261E-019
  -51.6100000000000         1.048656400224115E-019
  -51.4200000000000        -5.241733484830330E-019
  -51.2300000000000        -5.848227364299238E-019
  -51.0400000000000        -1.496610484919945E-020
  -50.8500000000000         6.344323211290833E-019
  -50.6600000000000         7.271722607084284E-019
  -50.4700000000000         1.532011047713846E-019
  -50.2800000000000        -5.619563079942021E-019
  -50.0900000000000        -7.547963631589297E-019
  -49.9000000000000        -2.535438099236012E-019
  -49.7100000000000         4.599846472838160E-019
  -49.5200000000000         7.098747182562976E-019
  -49.3300000000000         2.690440328951138E-019
  -49.1400000000000        -4.270684886068589E-019
  -48.9500000000000        -6.998839781262062E-019
  -48.7600000000000        -2.791767362608509E-019
  -48.5700000000000         4.368723282014635E-019
  -48.3800000000000         7.619186148641774E-019
  -48.1900000000000         3.779035800334695E-019
  -48.0000000000000        -3.597827353329476E-019
  -47.8100000000000        -7.596807530442372E-019
  -47.6200000000000        -4.525691741075288E-019
  -47.4300000000000         2.570308823951553E-019
  -47.2400000000000         6.822679203194695E-019
  -47.0500000000000         4.109630782990053E-019
  -46.8600000000000        -2.996871371384522E-019
  -46.6700000000000        -7.686015586779007E-019
  -46.4800000000000        -5.416427484015824E-019
  -46.2900000000000         1.744919145832443E-019
  -46.1000000000000         7.091875759272133E-019
  -45.9100000000000         5.671180367455207E-019
  -45.7200000000000        -9.996091773577830E-020
  -45.5300000000000        -6.390373718203950E-019
  -45.3400000000000        -5.209455484343611E-019
  -45.1500000000000         1.519343133939729E-019
  -44.9600000000000         7.414143449728632E-019
  -44.7700000000000         6.820940138474577E-019
  -44.5800000000000         2.147636744163293E-020
  -44.3900000000000        -6.239879106953133E-019
  -44.2000000000000        -6.547453245835944E-019
  -44.0100000000000        -5.774513160015507E-020
  -43.8200000000000         5.824303591326537E-019
  -43.6300000000000         6.418099031285373E-019
  -43.4400000000000         5.299045912769036E-020
  -43.2500000000000        -6.299692829422657E-019
  -43.0600000000000        -7.599935195580611E-019
  -42.8700000000000        -2.137880924497041E-019
  -42.6800000000000         4.918641612069049E-019
  -42.4900000000000         6.938453130526172E-019
  -42.3000000000000         2.141177806357035E-019
  -42.1100000000000        -4.730601755046331E-019
  -41.9200000000000        -6.966038802842361E-019
  -41.7300000000000        -2.317477147979702E-019
  -41.5400000000000         4.835400123099250E-019
  -41.3500000000000         7.662401010552279E-019
  -41.1600000000000         3.408651264648329E-019
  -40.9700000000000        -3.971461062605515E-019
  -40.7800000000000        -7.582206804639008E-019
  -40.5900000000000        -4.145666313323315E-019
  -40.4000000000000         2.907378752878620E-019
  -40.2100000000000         6.750422694556982E-019
  -40.0200000000000         3.706765767767096E-019
  -39.8300000000000        -3.226738089173997E-019
  -39.6400000000000        -7.253547127013415E-019
  -39.4500000000000        -4.307246971595004E-019
  -39.2600000000000         3.016681215351441E-019
  -39.0700000000000         7.901575632871957E-019
  -38.8800000000000         5.795370917588667E-019
  -38.6900000000000        -1.253176481388322E-019
  -38.5000000000000        -6.545403777078122E-019
  -38.3100000000000        -5.113147843730045E-019
  -38.1200000000000         1.551084869894775E-019
  -37.9300000000000         6.930799015566445E-019
  -37.7400000000000         5.727798939052919E-019
  -37.5500000000000        -1.052354076673322E-019
  -37.3600000000000        -7.040633065103660E-019
  -37.1700000000000        -6.575660189905785E-019
  -36.9800000000000        -1.042458264621933E-020
  -36.7900000000000         6.240757651716020E-019
  -36.6000000000000         6.477983993238809E-019
  -36.4100000000000         4.680418341223404E-020
  -36.2200000000000        -5.964190543916686E-019
  -36.0300000000000        -6.596866038789367E-019
  -35.8400000000000        -7.603187565254521E-020
  -35.6500000000000         6.015455553648831E-019
  -35.4600000000000         7.275252763813460E-019
  -35.2700000000000         1.793129284525459E-019
  -35.0800000000000        -5.266500534869318E-019
  -34.8900000000000        -7.276190110172584E-019
  -34.7000000000000        -2.454568174242981E-019
  -34.5100000000000         4.454672027452675E-019
  -34.3200000000000         6.732240240970680E-019
  -34.1300000000000         2.120509768114404E-019
  -33.9400000000000        -5.004508038101811E-019
  -33.7500000000000        -7.810766148639714E-019
  -33.5600000000000        -3.543433744046747E-019
  -33.3700000000000         3.835572168912572E-019
  -33.1800000000000         7.419823420716057E-019
  -32.9900000000000         3.934571232898911E-019
  -32.8000000000000        -3.155760640130102E-019
  -32.6100000000000        -6.969024072693953E-019
  -32.4200000000000        -3.789279904275742E-019
  -32.2300000000000         3.371564479570594E-019
  -32.0400000000000         7.645120041488675E-019
  -31.8500000000000         4.872635803117818E-019
  -31.6600000000000        -2.412748284562070E-019
  -31.4700000000000        -7.392171541103788E-019
  -31.2800000000000        -5.451051278351656E-019
  -31.0900000000000         1.440037087751791E-019
  -30.9000000000000         6.623454856166202E-019
  -30.7100000000000         5.118935751358861E-019
  -30.5200000000000        -1.613483586276916E-019
  -30.3300000000000        -7.062560372966468E-019
  -30.1400000000000        -5.889815027361340E-019
  -29.9500000000000         9.571568948537016E-020
  -29.7600000000000         7.130598044751037E-019
  -29.5700000000000         6.917286474645577E-019
  -29.3800000000000         6.584039929476369E-020
  -29.1900000000000        -5.606000123995782E-019
  -29.0000000000000        -5.915668379813110E-019
  -28.8100000000000        -7.683638411908260E-021
  -28.6200000000000         6.169721302981779E-019
  -28.4300000000000         6.662400792324918E-019
  -28.2400000000000         7.410240605622693E-020
  -28.0500000000000        -6.095827565475265E-019
  -27.8600000000000        -7.430327188012407E-019
  -27.6700000000000        -2.047973503587034E-019
  -27.4800000000000         4.905009922513819E-019
  -27.2900000000000         6.827627736482429E-019
  -27.1000000000000         1.952566750683054E-019
  -26.9100000000000        -4.977978758134924E-019
  -26.7200000000000        -7.251740064485714E-019
  -26.5300000000000        -2.611579387031314E-019
  -26.3400000000000         4.577095779470500E-019
  -26.1500000000000         7.494478384344902E-019
  -25.9600000000000         3.382576388227819E-019
  -25.7700000000000        -3.820877414252310E-019
  -25.5800000000000        -7.242234699672602E-019
  -25.3900000000000        -3.634589998525070E-019
  -25.2000000000000         3.515733552427276E-019
  -25.0100000000000         7.309225736165448E-019
  -24.8200000000000         4.026344623245198E-019
  -24.6300000000000        -3.298256731741737E-019
  -24.4400000000000        -7.747057321938615E-019
  -24.2500000000000        -5.102637817886672E-019
  -24.0600000000000         2.144053460487954E-019
  -23.8700000000000         7.179054335661869E-019
  -23.6800000000000         5.356190984371193E-019
  -23.4900000000000        -1.397415561386967E-019
  -23.3000000000000        -6.453091111633388E-019
  -23.1100000000000        -4.840141398774227E-019
  -22.9200000000000         1.978442887497862E-019
  -22.7300000000000         7.484560148592148E-019
  -22.5400000000000         6.328808443478334E-019
  -22.3500000000000        -5.503544399498651E-020
  -22.1600000000000        -6.804323800692705E-019
  -21.9700000000000        -6.704632084000775E-019
  -21.7800000000000        -5.717484360118615E-020
  -21.5900000000000         5.563116013675514E-019
  -21.4000000000000         5.732722831951196E-019
  -21.2100000000000        -2.608638677320479E-020
  -21.0200000000000        -6.656618655575918E-019
  -20.8300000000000        -7.248104463075625E-019
  -20.6400000000000        -1.330046575471502E-019
  -20.4500000000000         5.612753101401703E-019
  -20.2600000000000         7.130658748941376E-019
  -20.0700000000000         1.951332683166121E-019
  -19.8800000000000        -4.821780617430259E-019
  -19.6900000000000        -6.592369387788038E-019
  -19.5000000000000        -1.578968801667423E-019
  -19.3100000000000         5.471587955094373E-019
  -19.1200000000000         7.811233861098900E-019
  -18.9300000000000         3.141266271758367E-019
  -18.7400000000000        -4.181899765505006E-019
  -18.5500000000000        -7.295730260060869E-019
  -18.3600000000000        -3.365773887981481E-019
  -18.1700000000000         3.731537171649426E-019
  -17.9800000000000         7.123717901689897E-019
  -17.7900000000000         3.504480781770281E-019
  -17.6000000000000        -3.711096928362884E-019
  -17.4100000000000        -7.648307941597783E-019
  -17.2200000000000        -4.542470577012516E-019
  -17.0300000000000         2.661304541820436E-019
  -16.8400000000000         7.123377772864281E-019
  -16.6500000000000         4.644761360942212E-019
  -16.4600000000000        -2.327888059360037E-019
  -16.2700000000000        -7.047040218378270E-019
  -16.0800000000000        -4.914233676082821E-019
  -15.8900000000000         2.116787398002598E-019
  -15.7000000000000         7.386038581743879E-019
  -15.5100000000000         5.872367555271885E-019
  -15.3200000000000        -1.014681014081764E-019
  -15.1300000000000        -6.779621026609418E-019
  -14.9400000000000        -6.038123428455291E-019
  -14.7500000000000         3.629095123064440E-020
  -14.5600000000000         6.189818390011557E-019
  -14.3700000000000         5.807227641288553E-019
  -14.1800000000000        -4.206306091869200E-020
  -13.9900000000000        -6.469009989967918E-019
  -13.8000000000000        -6.414940774754988E-019
  -13.6100000000000        -1.267624497678797E-020
  -13.4200000000000         6.564726727759885E-019
  -13.2300000000000         7.396178193662308E-019
  -13.0400000000000         1.626839733356804E-019
  -12.8500000000000        -5.267336719035158E-019
  -12.6600000000000        -6.814949694379478E-019
  -12.4700000000000        -1.700017721401871E-019
  -12.2800000000000         5.013812006506529E-019
  -12.0900000000000         6.744095156815526E-019
  -11.9000000000000         1.699910682702440E-019
  -11.7100000000000        -5.384619457806291E-019
  -11.5200000000000        -7.762658069377179E-019
  -11.3300000000000        -3.126538549472729E-019
  -11.1400000000000         4.174314888568050E-019
  -10.9500000000000         7.271869529852614E-019
  -10.7600000000000         3.318296334061806E-019
  -10.5700000000000        -3.812211121149128E-019
  -10.3800000000000        -7.228061908522432E-019
  -10.1900000000000        -3.599735177869891E-019
  -10.0000000000000         3.657211108966781E-019
  -9.81000000000000         7.638502032047882E-019
  -9.62000000000000         4.543937586041527E-019
  -9.42999999999999        -2.694491271375577E-019
  -9.23999999999999        -7.215829353273613E-019
  -9.05000000000000        -4.776519085250124E-019
  -8.86000000000000         2.214103548493894E-019
  -8.67000000000000         7.008088339042060E-019
  -8.48000000000000         4.966351957029972E-019
  -8.28999999999999        -2.007434213353315E-019
  -8.09999999999999        -7.278182954899475E-019
  -7.91000000000000        -5.816476424939495E-019
  -7.72000000000000         9.905309753866159E-020
  -7.53000000000000         6.659997111485807E-019
  -7.34000000000000         5.805028750853544E-019
  -7.15000000000001        -7.226502271824938E-020
  -6.95999999999999        -6.645067000528346E-019
  -6.77000000000000        -6.243114628862919E-019
  -6.58000000000000         1.904130025992868E-020
  -6.39000000000000         6.624558692439627E-019
  -6.20000000000000         7.033774210128830E-019
  -6.01000000000001         1.133203816876723E-019
  -5.81999999999999        -5.375211676872751E-019
  -5.63000000000000        -6.276381078663381E-019
  -5.44000000000000        -7.882989184744211E-020
  -5.25000000000000         5.706149168445818E-019
  -5.06000000000000         6.827943551677994E-019
  -4.87000000000000         1.326430177918465E-019
  -4.67999999999999        -5.687011501411371E-019
  -4.48999999999999        -7.582941525239368E-019
  -4.30000000000000        -2.527879172223999E-019
  -4.11000000000000         4.758303723591348E-019
  -3.92000000000000         7.489297462159706E-019
  -3.73000000000000         3.259071197459619E-019
  -3.53999999999999        -3.709000193235796E-019
  -3.34999999999999        -6.642453282914964E-019
  -3.16000000000000        -2.714792228535653E-019
  -2.97000000000000         4.247869387503832E-019
  -2.78000000000000         7.430670910696469E-019
  -2.59000000000000         3.571892983163804E-019
  -2.40000000000001        -3.869690453852162E-019
  -2.20999999999999        -7.972014586024651E-019
  -2.02000000000000        -4.937172062535312E-019
  -1.83000000000000         2.288343287813893E-019
  -1.64000000000000         6.823780373834827E-019
  -1.45000000000000         4.407756794632391E-019
  -1.26000000000001        -2.556100469741026E-019
  -1.06999999999999        -7.310024242401285E-019
 -0.879999999999995        -5.204215656176862E-019
 -0.689999999999998         1.848758483514983E-019
 -0.500000000000000         7.184219374159273E-019
 -0.310000000000002         5.743440960516866E-019
 -0.120000000000005        -1.093917207216884E-019
  7.000000000000739E-002   -6.824111306432023E-019
  0.260000000000005        -6.020163770584965E-019
  0.450000000000003         5.032514891065606E-020
  0.640000000000001         6.478617308204037E-019
  0.829999999999998         6.168880936331340E-019
   1.02000000000000        -1.535696107900948E-020
   1.21000000000001        -6.456025340622823E-019
   1.40000000000001        -6.696702596316594E-019
   1.59000000000000        -5.939462655541723E-020
   1.78000000000000         6.101440231458041E-019
   1.97000000000000         7.089533310062722E-019
   2.16000000000000         1.516644632671737E-019
   2.34999999999999        -5.232889913403591E-019
   2.54000000000001        -6.685417981154705E-019
   2.73000000000000        -1.450235169412233E-019
   2.92000000000000         5.465135021317019E-019
   3.11000000000000         7.448764446286215E-019
   3.30000000000000         2.608435716992231E-019
   3.48999999999999        -4.424966346013293E-019
   3.68000000000001        -6.941079052537224E-019
   3.87000000000000        -2.579731390776339E-019
   4.06000000000000         4.407515151589769E-019
   4.25000000000000         7.217421728682423E-019
   4.44000000000000         2.995777985422860E-019
   4.63000000000000        -4.418788161299602E-019
   4.82000000000001        -8.127393188031701E-019
   5.01000000000001        -4.726188265283370E-019
   5.20000000000000         2.469561582151409E-019
   5.39000000000000         6.616570588931767E-019
   5.58000000000000         3.893954317597050E-019
   5.77000000000000        -2.860219409599752E-019
   5.96000000000001        -6.898515924395201E-019
   6.15000000000001        -4.059056914977956E-019
   6.34000000000000         3.204244324679018E-019
   6.53000000000000         8.112811482757005E-019