  -105.000000000000         3.056945382771149E-020
  -104.810000000000         8.429320361350514E-020
  -104.620000000000         1.182639882120446E-019
  -104.430000000000         1.260937221058320E-019
  -104.240000000000         1.086942299765249E-019
  -104.050000000000         7.394146854568651E-020
  -103.860000000000         3.433607397174478E-020
  -103.670000000000         3.340616414235565E-021
  -103.480000000000        -8.541354581096458E-021
  -103.290000000000         3.194896578618865E-021
  -103.100000000000         3.577754993348359E-020
  -102.910000000000         8.000844005023692E-020
  -102.720000000000         1.229875958707716E-019
  -102.530000000000         1.519156988970038E-019
  -102.340000000000         1.578683524778585E-019
  -102.150000000000         1.384465135048447E-019
  -101.960000000000         9.853315863824709E-020
  -101.770000000000         4.893346686155483E-020
  -101.580000000000         3.288355621825214E-021
  -101.390000000000        -2.584646850053489E-020
  -101.200000000000        -3.061793730105295E-020
  -101.010000000000        -1.013654027079676E-020
  -100.820000000000         2.927825910546793E-020
  -100.630000000000         7.593896102906118E-020
  -100.440000000000         1.161799946833574E-019
  -100.250000000000         1.383106074994340E-019
  -100.060000000000         1.359850361383890E-019
  -99.8700000000000         1.100171348382782E-019
  -99.6800000000000         6.811866930738376E-020
  -99.4900000000000         2.264027655780467E-020
  -99.3000000000000        -1.302993581661575E-020
  -99.1100000000000        -2.836729776466035E-020
  -98.9200000000000        -1.878017550405793E-020
  -98.7300000000000         1.304346079513282E-020
  -98.5400000000000         5.790539606990742E-020
  -98.3500000000000         1.027607222364701E-019
  -98.1600000000000         1.345023690052609E-019
  -97.9700000000000         1.437665522872474E-019
  -97.7800000000000         1.276530564041765E-019
  -97.5900000000000         9.057070402167250E-020
  -97.4000000000000         4.296356998164976E-020
  -97.2100000000000        -1.712396222631437E-021
  -97.0200000000000        -3.088708008252410E-020
  -96.8300000000000        -3.652005596698937E-020
  -96.6400000000000        -1.743412732984164E-020
  -96.4500000000000         2.034089260408552E-020
  -96.2600000000000         6.531779302542386E-020
  -96.0700000000000         1.038895937448469E-019
  -95.8800000000000         1.242860022896516E-019
  -95.6900000000000         1.199988637439903E-019
  -95.5000000000000         9.168291674787504E-020
  -95.3100000000000         4.698292472574738E-020
  -95.1200000000000        -1.661312299856484E-021
  -94.9300000000000        -4.059873257330588E-020
  -94.7400000000000        -5.890777846688830E-020
  -94.5500000000000        -5.155899036151419E-020
  -94.3600000000000        -2.088559555342155E-020
  -94.1700000000000         2.406743556741170E-020
  -93.9800000000000         7.013536709134742E-020
  -93.7900000000000         1.038248702814101E-019
  -93.6000000000000         1.152120154496280E-019
  -93.4100000000000         1.008184285970821E-019
  -93.2200000000000         6.462869667282740E-020
  -93.0300000000000         1.694964075688413E-020
  -92.8400000000000        -2.856066128302098E-020
  -92.6500000000000        -5.883380511605118E-020
  -92.4600000000000        -6.516129005000753E-020
  -92.2700000000000        -4.570601622711402E-020
  -92.0800000000000        -6.033341646839753E-021
  -91.8900000000000         4.248926013590427E-020
  -91.7000000000000         8.596286018988811E-020
  -91.5100000000000         1.119556655452021E-019
  -91.3200000000000         1.130743049440105E-019
  -91.1300000000000         8.907349310998717E-020
  -90.9400000000000         4.689322248078438E-020
  -90.7500000000000        -1.384668257331714E-021
  -90.5600000000000        -4.206468897644575E-020
  -90.3700000000000        -6.382577119183365E-020
  -90.1800000000000        -6.101241547017682E-020
  -89.9900000000000        -3.527294221291248E-020
  -89.8000000000000         4.934917937632004E-021
  -89.6100000000000         4.683328724874846E-020
  -89.4200000000000         7.708796638927838E-020
  -89.2300000000000         8.575029162268495E-020
  -89.0400000000000         6.922407147957439E-020
  -88.8500000000000         3.138613390306668E-020
  -88.6600000000000        -1.747425749190441E-020
  -88.4700000000000        -6.359570773902860E-020
  -88.2800000000000        -9.371181069568411E-020
  -88.0900000000000        -9.888826783184624E-020
  -87.9000000000000        -7.711063000639450E-020
  -87.7100000000000        -3.387258578316274E-020
  -87.5200000000000         1.939762168092214E-020
  -87.3300000000000         6.860752002319295E-020
  -87.1400000000000         1.010177134080787E-019
  -86.9500000000000         1.088478531116908E-019
  -86.7600000000000         9.143372348252840E-020
  -86.5700000000000         5.531418659131292E-020
  -86.3800000000000         1.222589865224236E-020
  -86.1900000000000        -2.440357588719088E-020
  -86.0000000000000        -4.343073533247260E-020
  -85.8100000000000        -3.927006737497397E-020
  -85.6200000000000        -1.350981570554661E-020
  -85.4300000000000         2.559665979319494E-020
  -85.2400000000000         6.560815914670293E-020
  -85.0500000000000         9.361129343673011E-020
  -84.8600000000000         1.000813070337902E-019
  -84.6700000000000         8.175123257336714E-020
  -84.4800000000000         4.264464508563664E-020
  -84.2900000000000        -7.031386389499560E-021
  -84.1000000000000        -5.380939230876642E-020
  -83.9100000000000        -8.484916453401356E-020
  -83.7200000000000        -9.165968448420258E-020
  -83.5300000000000        -7.257069753175436E-020
  -83.3400000000000        -3.322755004207600E-020
  -83.1500000000000         1.504283678056862E-020
  -82.9600000000000         5.852043343498449E-020
  -82.7700000000000         8.507178824390199E-020
  -82.5800000000000         8.765867249969442E-020
  -82.3900000000000         6.635974422209492E-020
  -82.2000000000000         2.832576747588221E-020
  -82.0100000000000        -1.431746254735153E-020
  -81.8200000000000        -4.801743179608017E-020
  -81.6300000000000        -6.177222323934879E-020
  -81.4400000000000        -5.038197350120379E-020
  -81.2500000000000        -1.602412488041366E-020
  -81.0600000000000         3.231029183210818E-020
  -80.8700000000000         8.135874613544211E-020
  -80.6800000000000         1.173764203119746E-019
  -80.4900000000000         1.300866503103239E-019
  -80.3000000000000         1.156604408477902E-019
  -80.1100000000000         7.786358875391632E-020
  -79.9200000000000         2.702768441321630E-020
  -79.7300000000000        -2.287221857395332E-020
  -79.5400000000000        -5.819676842059621E-020
  -79.3500000000000        -6.953141322377640E-020
  -79.1600000000000        -5.436553714820833E-020
  -78.9700000000000        -1.779132082663344E-020
  -78.7800000000000         2.898214136135613E-020
  -78.5900000000000         7.187883909427123E-020
  -78.4000000000000         9.803687079236002E-020
  -78.2100000000000         9.953896104068641E-020
  -78.0200000000000         7.571029125740345E-020
  -77.8300000000000         3.332346999573985E-020
  -77.6400000000000        -1.533868746613218E-020
  -77.4500000000000        -5.600191379594766E-020
  -77.2600000000000        -7.650296086850021E-020
  -77.0700000000000        -7.031918712596125E-020
  -76.8800000000000        -3.851976569069966E-020
  -76.6900000000000         1.043947154938147E-020
  -76.5000000000000         6.305093318765405E-020
  -76.3100000000000         1.045748459795533E-019
  -76.1200000000000         1.232548609836675E-019
  -75.9300000000000         1.137141363237766E-019
  -75.7400000000000         7.854434178124602E-020
  -75.5500000000000         2.761343783154471E-020
  -75.3600000000000        -2.472720135208008E-020
  -75.1700000000000        -6.374127442091076E-020
  -74.9800000000000        -7.852366019423058E-020
  -74.7900000000000        -6.510389702722816E-020
  -74.6000000000000        -2.753735946376278E-020
  -74.4100000000000         2.331675831128917E-020
  -74.2200000000000         7.295677959053005E-020
  -74.0300000000000         1.074168129688270E-019
  -73.8400000000000         1.172625516801681E-019
  -73.6500000000000         1.002627402767936E-019
  -73.4600000000000         6.197009268031965E-020
  -73.2700000000000         1.404504245171376E-020
  -73.0800000000000        -2.918741809468754E-020
  -72.8900000000000        -5.494242349205262E-020
  -72.7000000000000        -5.571946639001223E-020
  -72.5100000000000        -3.150157696953654E-020
  -72.3200000000000         1.023354781342315E-020
  -72.1300000000000         5.670913684323267E-020
  -71.9400000000000         9.362614307860872E-020
  -71.7500000000000         1.094129888955894E-019
  -71.5600000000000         9.867720387010522E-020
  -71.3700000000000         6.381749768404034E-020
  -71.1800000000000         1.431571135766425E-020
  -70.9900000000000        -3.606269061051452E-020
  -70.8000000000000        -7.330481406601969E-020
  -70.6100000000000        -8.721523085469135E-020
  -70.4200000000000        -7.431400024781292E-020
  -70.2300000000000        -3.873567654678208E-020
  -70.0400000000000         9.099023016093139E-021
  -69.8500000000000         5.560638364925137E-020
  -69.6600000000000         8.801160138330744E-020
  -69.4700000000000         9.800659902131183E-020
  -69.2800000000000         8.405325757362739E-020
  -69.0900000000000         5.169414011788945E-020
  -68.9000000000000         1.179843116961566E-020
  -68.7100000000000        -2.274282813313968E-020
  -68.5200000000000        -4.090373636528029E-020
  -68.3300000000000        -3.683966018447090E-020
  -68.1400000000000        -1.163863217893672E-020
  -67.9500000000000         2.701760340525850E-020
  -67.7600000000000         6.717616015219879E-020
  -67.5700000000000         9.621675477355076E-020
  -67.3800000000000         1.046553221462598E-019
  -67.1900000000000         8.901038891751767E-020
  -67.0000000000000         5.287714159147216E-020
  -66.8100000000000         5.895882579572647E-021
  -66.6200000000000        -3.905955775396553E-020
  -66.4300000000000        -6.961719653959927E-020
  -66.2400000000000        -7.745640590798862E-020
  -66.0500000000000        -6.064949034202083E-020
  -65.8600000000000        -2.414979960835484E-020
  -65.6700000000000         2.168008351609583E-020
  -65.4800000000000         6.405679112912757E-020
  -65.2900000000000         9.142163106601765E-020
  -65.1000000000000         9.670975465876138E-020
  -64.9100000000000         7.932454367318918E-020
  -64.7200000000000         4.526686198174861E-020
  -64.5300000000000         5.383861276113264E-021
  -64.3400000000000        -2.777687137665139E-020
  -64.1500000000000        -4.362839271365405E-020
  -63.9600000000000        -3.667679410341642E-020
  -63.7700000000000        -8.203625632070923E-021
  -63.5800000000000         3.402106620685270E-020
  -63.3900000000000         7.793401856142362E-020
  -63.2000000000000         1.106441190606682E-019
  -63.0100000000000         1.221489153579290E-019
  -62.8200000000000         1.082182426348132E-019
  -62.6300000000000         7.161786425955020E-020
  -62.4400000000000         2.133548197237034E-020
  -62.2500000000000        -2.995278072267084E-020
  -62.0600000000000        -6.943943503990211E-020
  -61.8700000000000        -8.775086022561295E-020
  -61.6800000000000        -8.151963694412123E-020
  -61.4900000000000        -5.425623516294220E-020
  -61.3000000000000        -1.528993713337195E-020
  -61.1100000000000         2.292466089388303E-020
  -60.9200000000000         4.839591882673189E-020
  -60.7300000000000         5.308304906574423E-020
  -60.5400000000000         3.529123108150825E-020
  -60.3500000000000         2.626372190810853E-022
  -60.1600000000000        -4.124685651991844E-020
  -59.9700000000000        -7.603446206231828E-020
  -59.7800000000000        -9.230366855736777E-020
  -59.5900000000000        -8.319838400324578E-020
  -59.4000000000000        -4.897510927825665E-020
  -59.2100000000000         2.862203632253372E-021
  -59.0200000000000         5.955471308053742E-020
  -58.8300000000000         1.066601657996399E-019
  -58.6400000000000         1.321656856449615E-019
  -58.4500000000000         1.299316058783605E-019
  -58.2600000000000         1.014584173388592E-019
  -58.0700000000000         5.547204250776872E-020
  -57.8800000000000         5.458294514135947E-021
  -57.6900000000000        -3.414403302700763E-020
  -57.5000000000000        -5.201261118572544E-020
  -57.3100000000000        -4.312506528801346E-020
  -57.1200000000000        -1.015690768294690E-020
  -56.9300000000000         3.730339658724155E-020
  -56.7400000000000         8.550590521184267E-020
  -56.5500000000000         1.204889139627764E-019
  -56.3600000000000         1.321143722496443E-019
  -56.1700000000000         1.170291241578249E-019
  -55.9800000000000         7.966754757550173E-020
  -55.7900000000000         3.095952247962051E-020
  -55.6000000000000        -1.491084010060606E-020
  -55.4100000000000        -4.474405184465494E-020
  -55.2200000000000        -5.028533770964523E-020
  -55.0300000000000        -3.070370782349269E-020
  -54.8400000000000         7.162078022463619E-021
  -54.6500000000000         5.086514561152324E-020
  -54.4600000000000         8.610011983072848E-020
  -54.2700000000000         1.010144390901366E-019
  -54.0800000000000         8.978524885705805E-020
  -53.8900000000000         5.439089834709176E-020
  -53.7000000000000         4.061561778140165E-021
  -53.5100000000000        -4.740234128532650E-020
  -53.3200000000000        -8.563190950826829E-020
  -53.1300000000000        -9.983923952275989E-020
  -52.9400000000000        -8.592519175337418E-020
  -52.7500000000000        -4.766536829092616E-020
  -52.5600000000000         4.360090853387786E-021
  -52.3700000000000         5.578835081412528E-020
  -52.1800000000000         9.258302539585927E-020
  -51.9900000000000         1.050464917928469E-019
  -51.8000000000000         9.057054762648896E-020
  -51.6100000000000         5.431934812445343E-020
  -51.4200000000000         7.636153060950299E-021
  -51.2300000000000        -3.536641181759829E-020
  -51.0400000000000        -6.202379212910749E-020
  -50.8500000000000        -6.487526249482435E-020
  -50.6600000000000        -4.381813958928010E-020
  -50.4700000000000        -6.019043474528209E-021
  -50.2800000000000         3.635462039707614E-020
  -50.0900000000000         6.985350829082580E-020
  -49.9000000000000         8.377439389946628E-020
  -49.7100000000000         7.330648639823827E-020
  -49.5200000000000         4.090214236929211E-020
  -49.3300000000000        -4.484777570511259E-021
  -49.1400000000000        -5.003188703490527E-020
  -48.9500000000000        -8.276544650029377E-020
  -48.7600000000000        -9.328373137976292E-020
  -48.5700000000000        -7.842880840622217E-020
  -48.3800000000000        -4.216414148747913E-020
  -48.1900000000000         5.574687829511389E-021
  -48.0000000000000         5.172798081292153E-020
  -47.8100000000000         8.385981683226186E-020
  -47.6200000000000         9.374334608590044E-020
  -47.4300000000000         7.974520606347026E-020
  -47.2400000000000         4.729886060615569E-020
  -47.0500000000000         7.308417811743534E-021
  -46.8600000000000        -2.706432140573493E-020
  -46.6700000000000        -4.429414261426873E-020
  -46.4800000000000        -3.792420847310837E-020
  -46.2900000000000        -8.521448308538682E-021
  -46.1000000000000         3.642397515920217E-020
  -45.9100000000000         8.462289029324304E-020
  -45.7200000000000         1.225013319009690E-019
  -45.5300000000000         1.390687173204576E-019
  -45.3400000000000         1.290240779025446E-019
  -45.1500000000000         9.423769005395342E-020
  -44.9600000000000         4.323023900283668E-020
  -44.7700000000000        -1.117163424858397E-020
  -44.5800000000000        -5.534426302417856E-020
  -44.3900000000000        -7.858144481706986E-020
  -44.2000000000000        -7.599990643205314E-020
  -44.0100000000000        -4.983094837533732E-020
  -43.8200000000000        -8.727527517811867E-021
  -43.6300000000000         3.473525858152885E-020
  -43.4400000000000         6.767469959482837E-020
  -43.2500000000000         8.060611481868078E-020
  -43.0600000000000         7.016824591059013E-020
  -42.8700000000000         4.006284573031117E-020
  -42.6800000000000        -8.271242098018841E-023
  -42.4900000000000        -3.760480930257531E-020
  -42.3000000000000        -6.058997387857576E-020
  -42.1100000000000        -6.142995230425714E-020
  -41.9200000000000        -3.909092057153855E-020
  -41.7300000000000         5.643579333483983E-022
  -41.5400000000000         4.648150415892279E-020
  -41.3500000000000         8.563562365022075E-020
  -41.1600000000000         1.068230239866662E-019
  -40.9700000000000         1.039201036699857E-019
  -40.7800000000000         7.766995081070947E-020
  -40.5900000000000         3.549184752950709E-020
  -40.4000000000000        -1.062123533151470E-020
  -40.2100000000000        -4.751474473537963E-020
  -40.0200000000000        -6.463117705686634E-020
  -39.8300000000000        -5.705634203186557E-020
  -39.6400000000000        -2.698396842789793E-020
  -39.4500000000000         1.684253112973365E-020
  -39.2600000000000         6.158961143153884E-020
  -39.0700000000000         9.402023036492592E-020
  -38.8800000000000         1.043514653699292E-019
  -38.6900000000000         8.914700379842853E-020
  -38.5000000000000         5.237330896705752E-020
  -38.3100000000000         4.285370665170500E-021
  -38.1200000000000        -4.154498870016958E-020
  -37.9300000000000        -7.218461698572522E-020
  -37.7400000000000        -7.910486199545429E-020
  -37.5500000000000        -6.064341749614896E-020
  -37.3600000000000        -2.244680222482812E-020
  -37.1700000000000         2.421567117529277E-020
  -36.9800000000000         6.575271677614407E-020
  -36.7900000000000         9.019489600988797E-020
  -36.6000000000000         9.064008964739631E-020
  -36.4100000000000         6.721664750866486E-020
  -36.2200000000000         2.701153080462482E-020
  -36.0300000000000        -1.800800264357151E-020
  -35.8400000000000        -5.447882617877196E-020
  -35.6500000000000        -7.152886906888248E-020
  -35.4600000000000        -6.394640327196909E-020
  -35.2700000000000        -3.371648870243773E-020
  -35.0800000000000         1.052709368098438E-020
  -34.8900000000000         5.599497024704317E-020
  -34.7000000000000         8.947934412356987E-020
  -34.5100000000000         1.012563713644512E-019
  -34.3200000000000         8.800019980846157E-020
  -34.1300000000000         5.382340828662052E-020
  -33.9400000000000         9.103288722974060E-021
  -33.7500000000000        -3.258273577387248E-020
  -33.5600000000000        -5.850812926711045E-020
  -33.3700000000000        -6.061874475235463E-020
  -33.1800000000000        -3.797318958813354E-020
  -32.9900000000000         2.929137991178065E-021
  -32.8000000000000         5.002457321682894E-020
  -32.6100000000000         8.920167481787984E-020
  -32.4200000000000         1.084169444838035E-019
  -32.2300000000000         1.012114162366357E-019
  -32.0400000000000         6.862355082968581E-020
  -31.8500000000000         1.896278903433737E-020
  -31.6600000000000        -3.449015375450949E-020
  -31.4700000000000        -7.721328832393445E-020
  -31.2800000000000        -9.755528446067472E-020
  -31.0900000000000        -9.006051178638467E-020
  -30.9000000000000        -5.704648513716109E-020
  -30.7100000000000        -7.959532721040994E-021
  -30.5200000000000         4.333134454809442E-020
  -30.3300000000000         8.253711895194750E-020
  -30.1400000000000         9.908624934063899E-020
  -29.9500000000000         8.917756158197290E-020
  -29.7600000000000         5.683714646376249E-020
  -29.5700000000000         1.265551277770221E-020
  -29.3800000000000        -2.942312920000904E-020
  -29.1900000000000        -5.629443087527211E-020
  -29.0000000000000        -5.960572235639485E-020
  -28.8100000000000        -3.821559957453233E-020
  -28.6200000000000         1.516765371957962E-021
  -28.4300000000000         4.767073448065926E-020
  -28.2400000000000         8.632760115479171E-020
  -28.0500000000000         1.056877471769870E-019
  -27.8600000000000         9.953555555893149E-020
  -27.6700000000000         6.906604346060564E-020
  -27.4800000000000         2.257419556114049E-020
  -27.2900000000000        -2.688892622085668E-020
  -27.1000000000000        -6.522882477475525E-020
  -26.9100000000000        -8.134588692030650E-020
  -26.7200000000000        -7.035766671598582E-020
  -26.5300000000000        -3.507540148171784E-020
  -26.3400000000000         1.471940262005232E-020
  -26.1500000000000         6.502844692262148E-020
  -25.9600000000000         1.016469518207862E-019
  -25.7700000000000         1.142642925607827E-019
  -25.5800000000000         9.944435942631054E-020
  -25.3900000000000         6.160288495800588E-020
  -25.2000000000000         1.169737913681610E-020
  -25.0100000000000        -3.597005695866239E-020
  -24.8200000000000        -6.787899806250837E-020
  -24.6300000000000        -7.513290601134781E-020
  -24.4400000000000        -5.592088466294404E-020
  -24.2500000000000        -1.593151216993732E-020
  -24.0600000000000         3.335201650827367E-020
  -23.8700000000000         7.795229594707832E-020
  -23.6800000000000         1.053395502900300E-019
  -23.4900000000000         1.079072833011963E-019
  -23.3000000000000         8.502897579329389E-020
  -23.1100000000000         4.314913831373377E-020
  -22.9200000000000        -6.094444011351793E-021
  -22.7300000000000        -4.918033039305283E-020
  -22.5400000000000        -7.451533926188744E-020
  -22.3500000000000        -7.568128874452394E-020
  -22.1600000000000        -5.320106247721804E-020
  -21.9700000000000        -1.431375523177855E-020
  -21.7800000000000         2.918812908296318E-020
  -21.5900000000000         6.443674525257130E-020
  -21.4000000000000         8.126255504537706E-020
  -21.2100000000000         7.515295509022865E-020
  -21.0200000000000         4.852842588753961E-020
  -20.8300000000000         9.969968183344677E-021
  -20.6400000000000        -2.835767572959044E-020
  -20.4500000000000        -5.430980149558831E-020
  -20.2600000000000        -5.932904878107579E-020
  -20.0700000000000        -4.095105992745433E-020
  -19.8800000000000        -3.551262444975836E-021
  -19.6900000000000         4.285784736185037E-020
  -19.5000000000000         8.542758137032669E-020
  -19.3100000000000         1.120877812285819E-019
  -19.1200000000000         1.149748249714211E-019
  -18.9300000000000         9.271740124301221E-020
  -18.7400000000000         5.092018355233502E-020
  -18.5500000000000         6.742912223886333E-022
  -18.3600000000000        -4.451437723800284E-020
  -18.1700000000000        -7.252142822597892E-020
  -17.9800000000000        -7.604476728744550E-020
  -17.7900000000000        -5.469510122125929E-020
  -17.6000000000000        -1.511212169969934E-020
  -17.4100000000000         3.095356000915079E-020
  -17.2200000000000         7.005184991178327E-020
  -17.0300000000000         9.094602104589984E-020
  -16.8400000000000         8.787659076397523E-020
  -16.6500000000000         6.220847747983708E-020
  -16.4600000000000         2.196784488844492E-020
  -16.2700000000000        -2.059535537910136E-020
  -16.0800000000000        -5.269238017621809E-020
  -15.8900000000000        -6.483288181388840E-020
  -15.7000000000000        -5.367547412759749E-020
  -15.5100000000000        -2.304154071838905E-020
  -15.3200000000000         1.721433346090167E-020
  -15.1300000000000         5.414357422694099E-020
  -14.9400000000000         7.558413159780723E-020
  -14.7500000000000         7.384513294849473E-020
  -14.5600000000000         4.811394548429648E-020
  -14.3700000000000         4.857310032155510E-021
  -14.1800000000000        -4.394362285526503E-020
  -13.9900000000000        -8.424641702329895E-020
  -13.8000000000000        -1.040915331126108E-019
  -13.6100000000000        -9.720549596925674E-020
  -13.4200000000000        -6.496203537204973E-020
  -13.2300000000000        -1.607477203069545E-020
  -13.0400000000000         3.591942623539068E-020
  -12.8500000000000         7.664846090174004E-020
  -12.6600000000000         9.517339383682742E-020
  -12.4700000000000         8.725233862462423E-020
  -12.2800000000000         5.660514562343105E-020
  -12.0900000000000         1.378379693673135E-020
  -11.9000000000000        -2.701349118168850E-020
  -11.7100000000000        -5.222002809601285E-020
  -11.5200000000000        -5.298652496782307E-020
  -11.3300000000000        -2.785939739382596E-020
  -11.1400000000000         1.674309262117721E-020
  -10.9500000000000         6.839563157991492E-020
  -10.7600000000000         1.123106969879776E-019
  -10.5700000000000         1.356777150118916E-019
  -10.3800000000000         1.314187976840643E-019
  -10.1900000000000         1.002677887014224E-019
  -10.0000000000000         5.057770533828074E-020
  -9.81000000000000        -4.073463603511019E-021
  -9.62000000000000        -4.877666292015737E-020
  -9.42999999999999        -7.156427341630806E-020
  -9.23999999999999        -6.683388182980857E-020
  -9.05000000000000        -3.692634036290391E-020
  -8.86000000000000         8.613362832129515E-021
  -8.67000000000000         5.587732869154580E-020
  -8.48000000000000         9.069311418687198E-020
  -8.28999999999999         1.027664499432318E-019
  -8.09999999999999         8.865219842336711E-020
  -7.91000000000000         5.269063191489783E-020
  -7.72000000000000         5.656423245094325E-021
  -7.53000000000000        -3.844930563231158E-020
  -7.34000000000000        -6.649751759538807E-020
  -7.15000000000001        -7.002344030699955E-020
  -6.95999999999999        -4.763623282998534E-020
  -6.77000000000000        -5.390839881333568E-021
  -6.58000000000000         4.494048433214404E-020
  -6.39000000000000         8.917444025847851E-020
  -6.20000000000000         1.146641450198020E-019
  -6.01000000000001         1.137971510315645E-019
  -5.81999999999999         8.608423332116578E-020
  -5.63000000000000         3.827268048143219E-020
  -5.44000000000000        -1.752499291515907E-020
  -5.25000000000000        -6.714777533060865E-020
  -5.06000000000000        -9.823041396271159E-020
  -4.87000000000000        -1.035286857598400E-019
  -4.67999999999999        -8.281950398938563E-020
  -4.48999999999999        -4.285585656002757E-020
  -4.30000000000000         4.602986744889124E-021
  -4.11000000000000         4.612653609022540E-020
  -3.92000000000000         7.037151168018104E-020
  -3.73000000000000         7.120209835391761E-020
  -3.53999999999999         4.929716839797163E-020
  -3.34999999999999         1.181617634701782E-020
  -3.16000000000000        -2.974329675525803E-020
  -2.97000000000000        -6.286339289237125E-020
  -2.78000000000000        -7.755539310095512E-020
  -2.59000000000000        -6.914627066421100E-020
  -2.40000000000001        -3.953820477390203E-020
  -2.20999999999999         3.377919265970077E-021
  -2.02000000000000         4.796325629543065E-020
  -1.83000000000000         8.210378265632650E-020
  -1.64000000000000         9.662563329623715E-020
  -1.45000000000000         8.790987476090064E-020
  -1.26000000000001         5.895933705434319E-020
  -1.06999999999999         1.858758651311092E-020
 -0.879999999999995        -2.107273988826256E-020
 -0.689999999999998        -4.805609397340537E-020
 -0.500000000000000        -5.404782934819393E-020
 -0.310000000000002        -3.684457861690383E-020
 -0.120000000000005        -1.057193398378220E-021
  7.000000000000739E-002    4.317081755041970E-020
  0.260000000000005         8.308440013522289E-020
  0.450000000000003         1.070445595131441E-019
  0.640000000000001         1.079626840352541E-019
  0.829999999999998         8.540686226051612E-020
   1.02000000000000         4.574427441227516E-020
   1.21000000000001         2.761946566459706E-022
   1.40000000000001        -3.808721062263962E-020
   1.59000000000000        -5.863660040790366E-020
   1.78000000000000        -5.603099528620594E-020
   1.97000000000000        -3.188136425439866E-020
   2.16000000000000         5.720420410034136E-021
   2.34999999999999         4.459390023425461E-020
   2.54000000000001         7.209131021763287E-020
   2.73000000000000         7.889175025431471E-020
   2.92000000000000         6.185126171977563E-020
   3.11000000000000         2.505833416699166E-020
   3.30000000000000        -2.124705745196907E-020
   3.48999999999999        -6.362475621129045E-020
   3.68000000000001        -8.942655771173372E-020
   3.87000000000000        -9.063900809286236E-020
   4.06000000000000        -6.638343619334133E-020
   4.25000000000000        -2.327564439171698E-020
   4.44000000000000         2.649076069008896E-020
   4.63000000000000         6.877202607848868E-020
   4.82000000000001         9.171653801634770E-020
   5.01000000000001         8.932461240678108E-020
   5.20000000000000         6.323499066936002E-020
   5.39000000000000         2.219750195324581E-020
   5.58000000000000        -2.060147799943217E-020
   5.77000000000000        -5.154752213348482E-020
   5.96000000000001        -6.072692245617941E-020
   6.15000000000001        -4.493436818948898E-020
   6.34000000000000        -8.672912024275841E-021
   6.53000000000000         3.713662746665645E-020