  -105.000000000000         0.000000000000000E+000
  -104.810000000000        -1.703928365011961E-021
  -104.620000000000        -4.698467299057416E-021
  -104.430000000000        -8.295912605399493E-021
  -104.240000000000        -1.172687733520747E-020
  -104.050000000000        -1.435448209812949E-020
  -103.860000000000        -1.584834252443884E-020
  -103.670000000000        -1.626835943486798E-020
  -103.480000000000        -1.603454641062706E-020
  -103.290000000000        -1.579226759078107E-020
  -103.100000000000        -1.621262848312525E-020
  -102.910000000000        -1.778649318744165E-020
  -102.720000000000        -2.067226553668884E-020
  -102.530000000000        -2.464177034009917E-020
  -102.340000000000        -2.913998178995215E-020
  -102.150000000000        -3.344128297510240E-020
  -101.960000000000        -3.685693011791584E-020
  -101.770000000000        -3.893348428825947E-020
  -101.580000000000        -3.958447166592838E-020
  -101.390000000000        -3.911677791979279E-020
  -101.200000000000        -3.814377464826023E-020
  -101.010000000000        -3.741009877160301E-020
  -100.820000000000        -3.757874572674706E-020
  -100.630000000000        -3.904212420499984E-020
  -100.440000000000        -4.181172067940685E-020
  -100.250000000000        -4.551812216688542E-020
  -100.060000000000        -4.952109149692805E-020
  -99.8700000000000        -5.309753602726824E-020
  -99.6800000000000        -5.565276374318663E-020
  -99.4900000000000        -5.689379762904411E-020
  -99.3000000000000        -5.691456724226861E-020
  -99.1100000000000        -5.616832127884535E-020
  -98.9200000000000        -5.533528619650273E-020
  -98.7300000000000        -5.512402258496319E-020
  -98.5400000000000        -5.606425669323203E-020
  -98.3500000000000        -5.835149748543510E-020
  -98.1600000000000        -6.178869275096300E-020
  -97.9700000000000        -6.584191499185136E-020
  -97.7800000000000        -6.979387191505300E-020
  -97.5900000000000        -7.295060992315660E-020
  -97.4000000000000        -7.484138570846621E-020
  -97.2100000000000        -7.535373505948971E-020
  -97.0200000000000        -7.476460282208710E-020
  -96.8300000000000        -7.365853453423690E-020
  -96.6400000000000        -7.275667958215396E-020
  -96.4500000000000        -7.270626983743134E-020
  -96.2600000000000        -7.389178344152101E-020
  -96.0700000000000        -7.632276011422102E-020
  -95.8800000000000        -7.963095423612243E-020
  -95.6900000000000        -8.317766492059580E-020
  -95.5000000000000        -8.623997985759630E-020
  -95.3100000000000        -8.822171013278841E-020
  -95.1200000000000        -8.882766163306793E-020
  -94.9300000000000        -8.815059525652868E-020
  -94.7400000000000        -8.664558847661534E-020
  -94.5500000000000        -8.499915209423336E-020
  -94.3600000000000        -8.393096471653603E-020
  -94.1700000000000        -8.398567487524703E-020
  -93.9800000000000        -8.537520908442756E-020
  -93.7900000000000        -8.791748558293370E-020
  -93.6000000000000        -9.108950583178003E-020
  -93.4100000000000        -9.417955304802006E-020
  -93.2200000000000        -9.649437104107897E-020
  -93.0300000000000        -9.756119153177467E-020
  -92.8400000000000        -9.726600027324164E-020
  -92.6500000000000        -9.588797906528502E-020
  -92.4600000000000        -9.402015928671327E-020
  -92.2700000000000        -9.239920768455727E-020
  -92.0800000000000        -9.169345794483831E-020
  -91.8900000000000        -9.231031758531246E-020
  -91.7000000000000        -9.427860975256492E-020
  -91.5100000000000        -9.723983763068715E-020
  -91.3200000000000        -1.005509256065738E-019
  -91.1300000000000        -1.034687179528023E-019
  -90.9400000000000        -1.053627711224169E-019
  -90.7500000000000        -1.058947341010670E-019
  -90.5600000000000        -1.051123419895531E-019
  -90.3700000000000        -1.034309370521109E-019
  -90.1800000000000        -1.015081985401358E-019
  -89.9900000000000        -1.000488244967388E-019
  -89.8000000000000        -9.959622544204466E-020
  -89.6100000000000        -1.003720082211842E-019
  -89.4200000000000        -1.022101263196157E-019
  -89.2300000000000        -1.046050867090922E-019
  -89.0400000000000        -1.068604561227212E-019
  -88.8500000000000        -1.082946775136375E-019
  -88.6600000000000        -1.084443902066502E-019
  -88.4700000000000        -1.072059924704883E-019
  -88.2800000000000        -1.048739985929329E-019
  -88.0900000000000        -1.020646576841006E-019
  -87.9000000000000        -9.954657002999336E-020
  -87.7100000000000        -9.802693392469008E-020
  -87.5200000000000        -9.795478668926298E-020
  -87.3300000000000        -9.939756960669460E-020
  -87.1400000000000        -1.020261065186622E-019
  -86.9500000000000        -1.052118250425336E-019
  -86.7600000000000        -1.082077773180769E-019
  -86.5700000000000        -1.103610024397347E-019
  -86.3800000000000        -1.112949191130169E-019
  -86.1900000000000        -1.110093207283185E-019
  -86.0000000000000        -1.098696363097473E-019
  -85.8100000000000        -1.084894345068594E-019
  -85.6200000000000        -1.075412341180271E-019
  -85.4300000000000        -1.075514377600982E-019
  -85.2400000000000        -1.087395961199040E-019
  -85.0500000000000        -1.109490487628162E-019
  -84.8600000000000        -1.136892055517255E-019
  -84.6700000000000        -1.162771683056688E-019
  -84.4800000000000        -1.180374743971779E-019
  -84.2900000000000        -1.185017813006103E-019
  -84.1000000000000        -1.175501708116230E-019
  -83.9100000000000        -1.154525203216843E-019
  -83.7200000000000        -1.127973124657532E-019
  -83.5300000000000        -1.103280076115800E-019
  -83.3400000000000        -1.087341371805557E-019
  -83.1500000000000        -1.084576238901179E-019
  -82.9600000000000        -1.095705141520688E-019
  -82.7700000000000        -1.117595454275530E-019
  -82.5800000000000        -1.144218628752012E-019
  -82.3900000000000        -1.168438771917699E-019
  -82.2000000000000        -1.184111468455890E-019
  -82.0100000000000        -1.187882346232267E-019
  -81.8200000000000        -1.180162668752312E-019
  -81.6300000000000        -1.164998539676771E-019
  -81.4400000000000        -1.148871980689130E-019
  -81.2500000000000        -1.138783118692597E-019
  -81.0600000000000        -1.140172603230167E-019
  -80.8700000000000        -1.155290682483527E-019
  -80.6800000000000        -1.182489796614874E-019
  -80.4900000000000        -1.216648746813425E-019
  -80.3000000000000        -1.250607202136862E-019
  -80.1100000000000        -1.277195788178392E-019
  -79.9200000000000        -1.291274435735204E-019
  -79.7300000000000        -1.291189490427687E-019
  -79.5400000000000        -1.279228314946658E-019
  -79.3500000000000        -1.260939914045213E-019
  -79.1600000000000        -1.243518023742533E-019
  -78.9700000000000        -1.233714790016326E-019
  -78.7800000000000        -1.235889981277744E-019
  -78.5900000000000        -1.250762188738934E-019
  -78.4000000000000        -1.275224808035074E-019
  -78.2100000000000        -1.303279553405783E-019
  -78.0200000000000        -1.327814456667316E-019
  -77.8300000000000        -1.342707228525562E-019
  -77.6400000000000        -1.344640349269616E-019
  -77.4500000000000        -1.334098417838714E-019
  -77.2600000000000        -1.315256021349362E-019
  -77.0700000000000        -1.294786398141539E-019
  -76.8800000000000        -1.279934514192860E-019
  -76.6900000000000        -1.276412778708078E-019
  -76.5000000000000        -1.286731414005151E-019
  -76.3100000000000        -1.309451957219970E-019
  -76.1200000000000        -1.339585957882010E-019
  -75.9300000000000        -1.370028105203144E-019
  -75.7400000000000        -1.393610684431473E-019
  -75.5500000000000        -1.405183471362400E-019
  -75.3600000000000        -1.403114304212916E-019
  -75.1700000000000        -1.389773487653853E-019
  -74.9800000000000        -1.370860291463767E-019
  -74.7900000000000        -1.353765454047267E-019
  -74.6000000000000        -1.345442246563481E-019
  -74.4100000000000        -1.350400191424413E-019
  -74.2200000000000        -1.369399793606492E-019
  -74.0300000000000        -1.399224362592504E-019
  -73.8400000000000        -1.433594443614887E-019
  -73.6500000000000        -1.464960751233445E-019
  -73.4600000000000        -1.486657795448913E-019
  -73.2700000000000        -1.494796283383692E-019
  -73.0800000000000        -1.489348513221013E-019
  -72.8900000000000        -1.474115399624296E-019
  -72.7000000000000        -1.455588178438660E-019
  -72.5100000000000        -1.441037863312784E-019
  -72.3200000000000        -1.436388476922101E-019
  -72.1300000000000        -1.444491759062972E-019
  -71.9400000000000        -1.464304025583785E-019
  -71.7500000000000        -1.491204072233121E-019
  -71.5600000000000        -1.518359859776514E-019
  -71.3700000000000        -1.538746617153100E-019
  -71.1800000000000        -1.547228524244875E-019
  -70.9900000000000        -1.542096369058736E-019
  -70.8000000000000        -1.525611081431397E-019
  -70.6100000000000        -1.503392205578363E-019
  -70.4200000000000        -1.482826581690500E-019
  -70.2300000000000        -1.470957342536431E-019
  -70.0400000000000        -1.472463883351490E-019
  -69.8500000000000        -1.488316693024178E-019
  -69.6600000000000        -1.515495602141643E-019
  -69.4700000000000        -1.547853105158756E-019
  -69.2800000000000        -1.577874239348284E-019
  -69.0900000000000        -1.598825683146340E-019
  -68.9000000000000        -1.606673778448477E-019
  -68.7100000000000        -1.601217264974753E-019
  -68.5200000000000        -1.586107508148349E-019
  -68.3300000000000        -1.567751879074303E-019
  -68.1400000000000        -1.553420879169322E-019
  -67.9500000000000        -1.549111257078956E-019
  -67.7600000000000        -1.557787608580699E-019
  -67.5700000000000        -1.578513571540828E-019
  -67.3800000000000        -1.606724089421287E-019
  -67.1900000000000        -1.635558544342412E-019
  -67.0000000000000        -1.657867123669923E-019
  -66.8100000000000        -1.668308048187438E-019
  -66.6200000000000        -1.664926870385314E-019
  -66.4300000000000        -1.649758335440676E-019
  -66.2400000000000        -1.628273617247009E-019
  -66.0500000000000        -1.607830169986000E-019
  -65.8600000000000        -1.595571294897452E-019
  -65.6700000000000        -1.596383178312825E-019
  -65.4800000000000        -1.611501227948197E-019
  -65.2900000000000        -1.638169329240392E-019
  -65.1000000000000        -1.670450033086215E-019
  -64.9100000000000        -1.700949850044504E-019
  -64.7200000000000        -1.722958878791781E-019
  -64.5300000000000        -1.732384500719792E-019
  -64.3400000000000        -1.728918927537388E-019
  -64.1500000000000        -1.716102441681074E-019
  -63.9600000000000        -1.700264296135687E-019
  -63.7700000000000        -1.688649069113425E-019
  -63.5800000000000        -1.687273186167267E-019
  -63.3900000000000        -1.699135038949468E-019
  -63.2000000000000        -1.723299324942212E-019
  -63.0100000000000        -1.755121777080483E-019
  -62.8200000000000        -1.787548874291240E-019
  -62.6300000000000        -1.813115529547169E-019
  -62.4400000000000        -1.826062737298896E-019
  -62.2500000000000        -1.823964127284983E-019
  -62.0600000000000        -1.808393647039871E-019
  -61.8700000000000        -1.784444174326389E-019
  -61.6800000000000        -1.759238861518863E-019
  -61.4900000000000        -1.739868179112000E-019
  -61.3000000000000        -1.731352094336813E-019
  -61.1100000000000        -1.735219958635449E-019
  -60.9200000000000        -1.749121384561566E-019
  -60.7300000000000        -1.767580817696562E-019
  -60.5400000000000        -1.783674153821712E-019
  -60.3500000000000        -1.791135889172121E-019
  -60.1600000000000        -1.786279307249145E-019
  -59.9700000000000        -1.769166759688498E-019
  -59.7800000000000        -1.743685663561794E-019
  -59.5900000000000        -1.716504173340669E-019
  -59.4000000000000        -1.695205913458726E-019
  -59.2100000000000        -1.686141687647379E-019
  -59.0200000000000        -1.692619200610277E-019
  -58.8300000000000        -1.713955503844938E-019
  -58.6400000000000        -1.745668326199541E-019
  -58.4500000000000        -1.780753008966664E-019
  -58.2600000000000        -1.811676938559747E-019
  -58.0700000000000        -1.832515039993706E-019
  -57.8800000000000        -1.840609119013090E-019
  -57.6900000000000        -1.837272656720362E-019
  -57.5000000000000        -1.827340356719264E-019
  -57.3100000000000        -1.817696973664341E-019
  -57.1200000000000        -1.815215154974518E-019
  -56.9300000000000        -1.824702143122878E-019
  -56.7400000000000        -1.847451659928338E-019
  -56.5500000000000        -1.880821317524307E-019
  -56.3600000000000        -1.918958139679821E-019
  -56.1700000000000        -1.954461303678704E-019
  -55.9800000000000        -1.980498817090935E-019
  -55.7900000000000        -1.992762888532901E-019
  -55.6000000000000        -1.990695961313049E-019
  -55.4100000000000        -1.977632119156494E-019
  -55.2200000000000        -1.959814396232163E-019
  -55.0300000000000        -1.944574812533466E-019
  -54.8400000000000        -1.938205898506685E-019
  -54.6500000000000        -1.944140795196387E-019
  -54.4600000000000        -1.961969120272625E-019
  -54.2700000000000        -1.987573966454129E-019
  -54.0800000000000        -2.014351107447172E-019
  -53.8900000000000        -2.035157719077015E-019
  -53.7000000000000        -2.044425050778170E-019
  -53.5100000000000        -2.039819765119104E-019
  -53.3200000000000        -2.022967942680366E-019
  -53.1300000000000        -1.999027575218107E-019
  -52.9400000000000        -1.975230661831205E-019
  -52.7500000000000        -1.958816455349510E-019
  -52.5600000000000        -1.954954951609153E-019
  -52.3700000000000        -1.965262707269915E-019
  -52.1800000000000        -1.987341156981092E-019
  -51.9900000000000        -2.015471381891407E-019
  -51.8000000000000        -2.042264859725687E-019
  -51.6100000000000        -2.060793378520793E-019
  -51.4200000000000        -2.066582319957923E-019
  -51.2300000000000        -2.058890254854249E-019
  -51.0400000000000        -2.040903850648936E-019
  -50.8500000000000        -2.018791448079945E-019
  -50.6600000000000        -1.999890243472839E-019
  -50.4700000000000        -1.990554162597169E-019
  -50.2800000000000        -1.994288367524584E-019
  -50.0900000000000        -2.010712836196721E-019
  -49.9000000000000        -2.035656266593923E-019
  -49.7100000000000        -2.062353506729790E-019
  -49.5200000000000        -2.083400173418530E-019
  -49.3300000000000        -2.092899120617930E-019
  -49.1400000000000        -2.088177786192837E-019
  -48.9500000000000        -2.070579259820054E-019
  -48.7600000000000        -2.045097666795231E-019
  -48.5700000000000        -2.018962989677316E-019
  -48.3800000000000        -1.999585008207070E-019
  -48.1900000000000        -1.992452014010754E-019
  -48.0000000000000        -1.999592708165649E-019
  -47.8100000000000        -2.019045259818833E-019
  -47.6200000000000        -2.045484234116939E-019
  -47.4300000000000        -2.071819873564758E-019
  -47.2400000000000        -2.091302653666906E-019
  -47.0500000000000        -2.099520219671613E-019
  -46.8600000000000        -2.095705402165184E-019
  -46.6700000000000        -2.082973602797122E-019
  -46.4800000000000        -2.067417985119053E-019
  -46.2900000000000        -2.056322595983596E-019
  -46.1000000000000        -2.056011080356657E-019
  -45.9100000000000        -2.069956612754394E-019
  -45.7200000000000        -2.097704427821836E-019
  -45.5300000000000        -2.134922876427536E-019
  -45.3400000000000        -2.174571113029159E-019
  -45.1500000000000        -2.208847379860598E-019
  -44.9600000000000        -2.231356100016126E-019
  -44.7700000000000        -2.238870078706904E-019
  -44.5800000000000        -2.232183021954052E-019
  -44.3900000000000        -2.215811554410500E-019
  -44.2000000000000        -2.196638122039122E-019
  -44.0100000000000        -2.181891236566847E-019
  -43.8200000000000        -2.177049989450898E-019
  -43.6300000000000        -2.184280482820749E-019
  -43.4400000000000        -2.201856322135512E-019
  -43.2500000000000        -2.224728352195252E-019
  -43.0600000000000        -2.246073637458300E-019
  -42.8700000000000        -2.259368011607340E-019
  -42.6800000000000        -2.260374084466303E-019
  -42.4900000000000        -2.248462007177711E-019
  -42.3000000000000        -2.226875483636039E-019
  -42.1100000000000        -2.201862785252230E-019
  -41.9200000000000        -2.180922435550713E-019
  -41.7300000000000        -2.170670533314202E-019
  -41.5400000000000        -2.174947189487406E-019
  -41.3500000000000        -2.193711289774208E-019
  -41.1600000000000        -2.223045279521786E-019
  -40.9700000000000        -2.256270329640508E-019
  -40.7800000000000        -2.285849970985041E-019
  -40.5900000000000        -2.305531087759104E-019
  -40.4000000000000        -2.312102459459369E-019
  -40.2100000000000        -2.306262994289356E-019
  -40.0200000000000        -2.292351261842919E-019
  -39.8300000000000        -2.277018934621853E-019
  -39.6400000000000        -2.267237068451912E-019
  -39.4500000000000        -2.268217129857323E-019
  -39.2600000000000        -2.281852760536651E-019
  -39.0700000000000        -2.306136792214569E-019
  -38.8800000000000        -2.335724589611314E-019
  -38.6900000000000        -2.363480833658255E-019
  -38.5000000000000        -2.382559170360697E-019
  -38.3100000000000        -2.388407333462227E-019
  -38.1200000000000        -2.380111198343269E-019
  -37.9300000000000        -2.360684044123547E-019
  -37.7400000000000        -2.336215498348076E-019
  -37.5500000000000        -2.314127602259227E-019
  -37.3600000000000        -2.301045393581627E-019
  -37.1700000000000        -2.300900683472815E-019
  -36.9800000000000        -2.313819054186580E-019
  -36.7900000000000        -2.336112654463977E-019
  -36.6000000000000        -2.361381128613223E-019
  -36.4100000000000        -2.382401934809115E-019
  -36.2200000000000        -2.393261848311459E-019
  -36.0300000000000        -2.391110259650510E-019
  -35.8400000000000        -2.377023196724615E-019
  -35.6500000000000        -2.355724182761646E-019
  -35.4600000000000        -2.334239979139678E-019
  -35.2700000000000        -2.319879261966384E-019
  -35.0800000000000        -2.318119473417843E-019
  -34.8900000000000        -2.331013965583042E-019
  -34.7000000000000        -2.356580931831092E-019
  -34.5100000000000        -2.389351745454715E-019
  -34.3200000000000        -2.421921393259658E-019
  -34.1300000000000        -2.447054292684103E-019
  -33.9400000000000        -2.459738231797651E-019
  -33.7500000000000        -2.458593632885362E-019
  -33.5600000000000        -2.446230980521750E-019
  -33.3700000000000        -2.428453318346301E-019
  -33.1800000000000        -2.412535659850163E-019
  -32.9900000000000        -2.405081304241711E-019
  -32.8000000000000        -2.410077801263471E-019
  -32.6100000000000        -2.427716975389669E-019
  -32.4200000000000        -2.454321325302417E-019
  -32.2300000000000        -2.483397968282514E-019
  -32.0400000000000        -2.507514397446629E-019
  -31.8500000000000        -2.520452401672304E-019
  -31.6600000000000        -2.519016023430007E-019
  -31.4700000000000        -2.503969277340435E-019
  -31.2800000000000        -2.479831037918506E-019
  -31.0900000000000        -2.453585983153108E-019
  -30.9000000000000        -2.432685732659595E-019
  -30.7100000000000        -2.422921039977008E-019
  -30.5200000000000        -2.426783289044110E-019
  -30.3300000000000        -2.442790569977272E-019
  -30.1400000000000        -2.465972156506870E-019
  -29.9500000000000        -2.489367832845129E-019
  -29.7600000000000        -2.506103961511179E-019
  -29.5700000000000        -2.511441725160700E-019
  -29.3800000000000        -2.504201679563758E-019
  -29.1900000000000        -2.487149221021865E-019
  -29.0000000000000        -2.466225878690289E-019
  -28.8100000000000        -2.448845479182904E-019
  -28.6200000000000        -2.441746022112332E-019
  -28.4300000000000        -2.449018741936575E-019
  -28.2400000000000        -2.470886699749365E-019
  -28.0500000000000        -2.503589467002534E-019
  -27.8600000000000        -2.540410088339472E-019
  -27.6700000000000        -2.573549146751219E-019
  -27.4800000000000        -2.596305521234484E-019
  -27.2900000000000        -2.604935583433312E-019
  -27.1000000000000        -2.599656936598975E-019
  -26.9100000000000        -2.584511339282596E-019
  -26.7200000000000        -2.566131788351617E-019
  -26.5300000000000        -2.551775180875776E-019
  -26.3400000000000        -2.547193407353471E-019
  -26.1500000000000        -2.554961444180630E-019
  -25.9600000000000        -2.573747497158460E-019
  -25.7700000000000        -2.598735486685879E-019
  -25.5800000000000        -2.623073887647112E-019
  -25.3900000000000        -2.639925619662677E-019
  -25.2000000000000        -2.644518882243962E-019
  -25.0100000000000        -2.635599214026513E-019
  -24.8200000000000        -2.615858036983352E-019
  -24.6300000000000        -2.591211069092329E-019
  -24.4400000000000        -2.569134098186629E-019
  -24.2500000000000        -2.556536852628679E-019
  -24.0600000000000        -2.557789731168225E-019
  -23.8700000000000        -2.573474681302025E-019
  -23.6800000000000        -2.600222631198289E-019
  -23.4900000000000        -2.631685335097111E-019
  -23.3000000000000        -2.660360387950497E-019
  -23.1100000000000        -2.679740427259890E-019
  -22.9200000000000        -2.686163583131788E-019
  -22.7300000000000        -2.679829720837788E-019
  -22.5400000000000        -2.664690409159942E-019
  -22.3500000000000        -2.647248293150620E-019
  -22.1600000000000        -2.634617740988950E-019
  -21.9700000000000        -2.632411912892931E-019
  -21.7800000000000        -2.643071015481011E-019
  -21.5900000000000        -2.665118591684739E-019
  -21.4000000000000        -2.693563951141945E-019
  -21.2100000000000        -2.721336500072839E-019
  -21.0200000000000        -2.741337580749666E-019
  -20.8300000000000        -2.748514426380049E-019
  -20.6400000000000        -2.741352330981019E-019
  -20.4500000000000        -2.722348924371477E-019
  -20.2600000000000        -2.697330232623127E-019
  -20.0700000000000        -2.673805205835600E-019
  -19.8800000000000        -2.658834775961304E-019
  -19.6900000000000        -2.657032070255127E-019
  -19.5000000000000        -2.669271796537022E-019
  -19.3100000000000        -2.692480686937973E-019
  -19.1200000000000        -2.720567400051158E-019
  -18.9300000000000        -2.746220333734707E-019
  -18.7400000000000        -2.763050465806696E-019
  -18.5500000000000        -2.767456089086811E-019
  -18.3600000000000        -2.759666773575498E-019
  -18.1700000000000        -2.743662601704394E-019
  -17.9800000000000        -2.725992462544592E-019
  -17.7900000000000        -2.713836143738146E-019
  -17.6000000000000        -2.712875365865218E-019
  -17.4100000000000        -2.725594568590688E-019
  -17.2200000000000        -2.750507141461871E-019
  -17.0300000000000        -2.782533731449568E-019
  -16.8400000000000        -2.814424866087003E-019
  -16.6500000000000        -2.838817233323888E-019
  -16.4600000000000        -2.850328732541241E-019
  -16.2700000000000        -2.847085193699381E-019
  -16.0800000000000        -2.831235747285224E-019
  -15.8900000000000        -2.808307300952491E-019
  -15.7000000000000        -2.785586244860385E-019
  -15.5100000000000        -2.769998736049330E-019
  -15.3200000000000        -2.766106603075533E-019
  -15.1300000000000        -2.774801179924660E-019
  -14.9400000000000        -2.793072773125383E-019
  -14.7500000000000        -2.814919779133095E-019
  -14.5600000000000        -2.833130712361599E-019
  -14.3700000000000        -2.841420193456728E-019
  -14.1800000000000        -2.836298417472077E-019
  -13.9900000000000        -2.818131515948747E-019
  -13.8000000000000        -2.791084800811882E-019
  -13.6100000000000        -2.761964441137130E-019
  -13.4200000000000        -2.738292520199065E-019
  -13.2300000000000        -2.726173279960489E-019
  -13.0400000000000        -2.728569285949645E-019
  -12.8500000000000        -2.744486645183285E-019
  -12.6600000000000        -2.769303251650512E-019
  -12.4700000000000        -2.796141508306940E-019
  -12.2800000000000        -2.817884427441037E-019
  -12.0900000000000        -2.829249070338609E-019
  -11.9000000000000        -2.828316784362775E-019
  -11.7100000000000        -2.817078730038682E-019
  -11.5200000000000        -2.800840800211682E-019
  -11.3300000000000        -2.786661658978570E-019
  -11.1400000000000        -2.781276941615963E-019
  -10.9500000000000        -2.789111549145926E-019
  -10.7600000000000        -2.810956993606027E-019
  -10.5700000000000        -2.843698437652295E-019
  -10.3800000000000        -2.881171859344817E-019
  -10.1900000000000        -2.915903856349736E-019
  -10.0000000000000        -2.941230230305663E-019
  -9.81000000000000        -2.953179392982113E-019
  -9.62000000000000        -2.951574943499365E-019
  -9.42999999999999        -2.940038332359620E-019
  -9.23999999999999        -2.924891404101313E-019
  -9.05000000000000        -2.913277832069394E-019
  -8.86000000000000        -2.911050027665714E-019
  -8.67000000000000        -2.921037644264769E-019
  -8.48000000000000        -2.942204085948585E-019
  -8.28999999999999        -2.969939549824644E-019
  -8.09999999999999        -2.997407764069271E-019
  -7.91000000000000        -3.017555349591541E-019
  -7.72000000000000        -3.025198185575819E-019
  -7.53000000000000        -3.018575824028241E-019
  -7.34000000000000        -2.999919538529302E-019
  -7.15000000000001        -2.974866037766156E-019
  -6.95999999999999        -2.950883440782230E-019
  -6.77000000000000        -2.935162151641533E-019
  -6.58000000000000        -2.932578492436530E-019
  -6.39000000000000        -2.944318584260181E-019
  -6.20000000000000        -2.967559768852760E-019
  -6.01000000000001        -2.996301442038784E-019
  -5.81999999999999        -3.023104305704403E-019
  -5.63000000000000        -3.041233181787788E-019
  -5.44000000000000        -3.046581270065338E-019
  -5.25000000000000        -3.038818155472610E-019
  -5.06000000000000        -3.021431070855813E-019
  -4.87000000000000        -3.000651851831479E-019
  -4.67999999999999        -2.983586141998384E-019
  -4.48999999999999        -2.976092547781148E-019
  -4.30000000000000        -2.981031004125345E-019
  -4.11000000000000        -2.997391705882302E-019
  -3.92000000000000        -3.020560466579588E-019
  -3.73000000000000        -3.043646892358570E-019
  -3.53999999999999        -3.059492771060398E-019
  -3.34999999999999        -3.062778861455300E-019
  -3.16000000000000        -3.051617349841167E-019
  -2.97000000000000        -3.028164508745260E-019
  -2.78000000000000        -2.998071303860714E-019
  -2.59000000000000        -2.968926701807236E-019
  -2.40000000000001        -2.948140970842341E-019
  -2.20999999999999        -2.940878796481506E-019
  -2.02000000000000        -2.948637396661020E-019
  -1.83000000000000        -2.968877986622493E-019
  -1.64000000000000        -2.995814435929617E-019
  -1.45000000000000        -3.022128497057879E-019
  -1.26000000000001        -3.041112936281063E-019
  -1.06999999999999        -3.048620080226543E-019
 -0.879999999999995        -3.044250045846127E-019
 -0.689999999999998        -3.031434172460540E-019
 -0.500000000000000        -3.016391048083972E-019
 -0.310000000000002        -3.006261422067220E-019
 -0.120000000000005        -3.006967754401760E-019
  7.000000000000739E-002   -3.021423811746434E-019
  0.260000000000005        -3.048616903664016E-019
  0.450000000000003        -3.083831086239347E-019
  0.640000000000001        -3.119948269502886E-019
  0.829999999999998        -3.149451480529951E-019
   1.02000000000000        -3.166550766717829E-019
   1.21000000000001        -3.168816113402077E-019
   1.40000000000001        -3.157843750402862E-019
   1.59000000000000        -3.138761854900948E-019
   1.78000000000000        -3.118718740661012E-019
   1.97000000000000        -3.104793240403278E-019
   2.16000000000000        -3.101935804500178E-019
   2.34999999999999        -3.111539859800858E-019
   2.54000000000001        -3.131058899328872E-019
   2.73000000000000        -3.154779715978332E-019
   2.92000000000000        -3.175525401931623E-019
   3.11000000000000        -3.186791470458209E-019
   3.30000000000000        -3.184692975489422E-019
   3.48999999999999        -3.169155311821350E-019
   3.68000000000001        -3.144000073492636E-019
   3.87000000000000        -3.115897168866849E-019
   4.06000000000000        -3.092483472513482E-019
   4.25000000000000        -3.080191144027158E-019
   4.44000000000000        -3.082414237448931E-019
   4.63000000000000        -3.098545023148204E-019
   4.82000000000001        -3.124159466933885E-019
   5.01000000000001        -3.152297773539620E-019
   5.20000000000000        -3.175468350013008E-019
   5.39000000000000        -3.187794842608176E-019
   5.58000000000000        -3.186686153777013E-019
   5.77000000000000        -3.173548880902184E-019
   5.96000000000001        -3.153339479990725E-019
   6.15000000000001        -3.133089519675811E-019
   6.34000000000000        -3.119834607706354E-019
   6.53000000000000        -3.118549801539270E-019