  -105.000000000000        -6.912113292487025E-019
  -104.810000000000        -1.602911473839376E-019
  -104.620000000000         3.994116922409246E-019
  -104.430000000000         4.778032592249832E-019
  -104.240000000000         3.011202874728547E-020
  -104.050000000000        -4.855835602564949E-019
  -103.860000000000        -5.499742335807344E-019
  -103.670000000000        -8.098390514663965E-020
  -103.480000000000         4.865225739832662E-019
  -103.290000000000         6.159602448173406E-019
  -103.100000000000         1.827726189488053E-019
  -102.910000000000        -4.046643559014400E-019
  -102.720000000000        -5.931601833092380E-019
  -102.530000000000        -2.110190757376731E-019
  -102.340000000000         3.700326822581850E-019
  -102.150000000000         5.910392009146408E-019
  -101.960000000000         2.396281422029693E-019
  -101.770000000000        -3.475791859606151E-019
  -101.580000000000        -6.068903973037095E-019
  -101.390000000000        -2.867614889375173E-019
  -101.200000000000         3.109050034252730E-019
  -101.010000000000         6.187353217436916E-019
  -100.820000000000         3.460583534400087E-019
  -100.630000000000        -2.434101282979822E-019
  -100.440000000000        -5.837408987075773E-019
  -100.250000000000        -3.475762391991429E-019
  -100.060000000000         2.407847972163375E-019
  -99.8700000000000         6.188684685867227E-019
  -99.6800000000000         4.230037646363365E-019
  -99.4900000000000        -1.634211474708783E-019
  -99.3000000000000        -5.837429429693339E-019
  -99.1100000000000        -4.387881541967674E-019
  -98.9200000000000         1.322496025449106E-019
  -98.7300000000000         5.845181510589709E-019
  -98.5400000000000         4.866479258582220E-019
  -98.3500000000000        -6.890468223037509E-020
  -98.1600000000000        -5.546930755519775E-019
  -97.9700000000000        -5.109834125699943E-019
  -97.7800000000000         1.682272084093739E-020
  -97.5900000000000         5.231196677656983E-019
  -97.4000000000000         5.264091450194449E-019
  -97.2100000000000         2.987348859743859E-020
  -97.0200000000000        -4.823989842928984E-019
  -96.8300000000000        -5.096028674756928E-019
  -96.6400000000000        -1.473111791848302E-020
  -96.4500000000000         5.375198572519541E-019
  -96.2600000000000         6.217526450201668E-019
  -96.0700000000000         1.517165927099733E-019
  -95.8800000000000        -4.374200552887483E-019
  -95.6900000000000        -6.031251680574800E-019
  -95.5000000000000        -2.106631115176315E-019
  -95.3100000000000         3.428518720690301E-019
  -95.1200000000000         5.131563913024201E-019
  -94.9300000000000         1.327702360785276E-019
  -94.7400000000000        -4.276514018659816E-019
  -94.5500000000000        -6.146181800146353E-019
  -94.3600000000000        -2.241462901306227E-019
  -94.1700000000000         3.977267853770532E-019
  -93.9800000000000         6.794541129781301E-019
  -93.7900000000000         3.657378324271791E-019
  -93.6000000000000        -2.401801564746080E-019
  -93.4100000000000        -5.656525242106949E-019
  -93.2200000000000        -3.134892133578694E-019
  -93.0300000000000         2.572719550389011E-019
  -92.8400000000000         5.816868156229005E-019
  -92.6500000000000         3.307022652137176E-019
  -92.4600000000000        -2.723528235140019E-019
  -92.2700000000000        -6.626312309848597E-019
  -92.0800000000000        -4.716643494981164E-019
  -91.8900000000000         1.207515847657796E-019
  -91.7000000000000         5.573620714615724E-019
  -91.5100000000000         4.343334108008429E-019
  -91.3200000000000        -1.149783989300223E-019
  -91.1300000000000        -5.495616549159061E-019
  -90.9400000000000        -4.391274329635613E-019
  -90.7500000000000         1.235341448432038E-019
  -90.5600000000000         6.092939227866291E-019
  -90.3700000000000         5.560556804758162E-019
  -90.1800000000000         9.183252389807224E-021
  -89.9900000000000        -5.211889258693296E-019
  -89.8000000000000        -5.452665836422783E-019
  -89.6100000000000        -5.776904749558796E-020
  -89.4200000000000         4.613932082859642E-019
  -89.2300000000000         5.086357095776674E-019
  -89.0400000000000         3.837347367022281E-020
  -88.8500000000000        -4.946267080269873E-019
  -88.6600000000000        -5.718010162732127E-019
  -88.4700000000000        -1.090990279211761E-019
  -88.2800000000000         4.596080342479058E-019
  -88.0900000000000         5.951628496211663E-019
  -87.9000000000000         1.682409469373285E-019
  -87.7100000000000        -4.157797137235436E-019
  -87.5200000000000        -6.020316118129819E-019
  -87.3300000000000        -2.137797334997589E-019
  -87.1400000000000         3.804923253910373E-019
  -86.9500000000000         6.189775086156516E-019
  -86.7600000000000         2.814497897242284E-019
  -86.5700000000000        -3.028660018974837E-019
  -86.3800000000000        -5.725668064358423E-019
  -86.1900000000000        -2.727568523032424E-019
  -86.0000000000000         3.008634573698129E-019
  -85.8100000000000         5.863479525092717E-019
  -85.6200000000000         2.956396254474582E-019
  -85.4300000000000        -3.066864698327136E-019
  -85.2400000000000        -6.527494996874490E-019
  -85.0500000000000        -4.113505896402464E-019
  -84.8600000000000         1.958668341674179E-019
  -84.6700000000000         6.039071545759964E-019
  -84.4800000000000         4.407096491283163E-019
  -84.2900000000000        -1.210708840012911E-019
  -84.1000000000000        -5.325431040518195E-019
  -83.9100000000000        -3.956485677109843E-019
  -83.7200000000000         1.556023434050085E-019
  -83.5300000000000         5.838916058952670E-019
  -83.3400000000000         4.638815551213062E-019
  -83.1500000000000        -1.082204930014707E-019
  -82.9600000000000        -6.025642746479762E-019
  -82.7700000000000        -5.587038545702285E-019
  -82.5800000000000        -2.429988559895283E-020
  -82.3900000000000         4.903870700121270E-019
  -82.2000000000000         4.998120140766028E-019
  -82.0100000000000         6.736857774128793E-021
  -81.8200000000000        -5.009513534746155E-019
  -81.6300000000000        -5.170491517923262E-019
  -81.4400000000000        -2.217521002782831E-021
  -81.2500000000000         5.748235946059565E-019
  -81.0600000000000         6.798922130768127E-019
  -80.8700000000000         2.190380194781460E-019
  -80.6800000000000        -3.740777089648720E-019
  -80.4900000000000        -5.521223519865759E-019
  -80.3000000000000        -1.738976253128108E-019
  -80.1100000000000         3.658918933734001E-019
  -79.9200000000000         5.191457872051567E-019
  -79.7300000000000         1.124115488114695E-019
  -79.5400000000000        -4.838300807780718E-019
  -79.3500000000000        -7.062639860469882E-019
  -79.1600000000000        -3.360000276937818E-019
  -78.9700000000000         2.903406758904416E-019
  -78.7800000000000         5.980578677575151E-019
  -78.5900000000000         3.182510324181196E-019
  -78.4000000000000        -2.605839045111865E-019
  -78.2100000000000        -5.721401980346785E-019
  -78.0200000000000        -3.141666114990453E-019
  -77.8300000000000         2.651962309060089E-019
  -77.6400000000000         6.083954400212643E-019
  -77.4500000000000         3.847830350059496E-019
  -77.2600000000000        -1.911340915698099E-019
  -77.0700000000000        -5.644658750725074E-019
  -76.8800000000000        -3.722479626587401E-019
  -76.6900000000000         2.067481734777829E-019
  -76.5000000000000         6.206533800502469E-019
  -76.3100000000000         4.708759284662100E-019
  -76.1200000000000        -1.068257561170175E-019
  -75.9300000000000        -5.703753806085856E-019
  -75.7400000000000        -4.865978137437150E-019
  -75.5500000000000         5.707194785125067E-020
  -75.3600000000000         5.369307003250015E-019
  -75.1700000000000         4.935996262148698E-019
  -74.9800000000000        -2.885183421316698E-020
  -74.7900000000000        -5.254322496512600E-019
  -74.6000000000000        -5.141795078880890E-019
  -74.4100000000000         1.323056029132324E-021
  -74.2200000000000         5.331414248312185E-019
  -74.0300000000000         5.730604227507865E-019
  -73.8400000000000         7.721480400536233E-020
  -73.6500000000000        -4.908862961484253E-019
  -73.4600000000000        -6.008609508433429E-019
  -73.2700000000000        -1.600771119076932E-019
  -73.0800000000000         3.993736349077658E-019
  -72.8900000000000         5.346598951843074E-019
  -72.7000000000000         1.114217453693705E-019
  -72.5100000000000        -4.676009333197552E-019
  -72.3200000000000        -6.463747437027814E-019
  -72.1300000000000        -2.451077479075665E-019
  -71.9400000000000         3.687478703791505E-019
  -71.7500000000000         6.301950785443760E-019
  -71.5600000000000         3.134655006972540E-019
  -71.3700000000000        -2.561630205581013E-019
  -71.1800000000000        -5.174606680233946E-019
  -70.9900000000000        -2.132193505927554E-019
  -70.8000000000000         3.621604257646778E-019
  -70.6100000000000         6.443906366627905E-019
  -70.4200000000000         3.407818173729716E-019
  -70.2300000000000        -2.859104812929371E-019
  -70.0400000000000        -6.629554766551508E-019
  -69.8500000000000        -4.497524561073266E-019
  -69.6600000000000         1.396551331764406E-019
  -69.4700000000000         5.417750391520958E-019
  -69.2800000000000         3.810909314828266E-019
  -69.0900000000000        -1.737979452499575E-019
  -68.9000000000000        -5.751640886053826E-019
  -68.7100000000000        -4.231310329332077E-019
  -68.5200000000000         1.498132134075368E-019
  -68.3300000000000         6.038877620646112E-019
  -68.1400000000000         5.072181155793033E-019
  -67.9500000000000        -5.037588138549157E-020
  -67.7600000000000        -5.406186198053986E-019
  -67.5700000000000        -4.989679396947455E-019
  -67.3800000000000         3.302632071607207E-020
  -67.1900000000000         5.475781411832032E-019
  -67.0000000000000         5.544061582526663E-019
  -66.8100000000000         4.657297485098710E-020
  -66.6200000000000        -4.949401508086438E-019
  -66.4300000000000        -5.609054126632862E-019
  -66.2400000000000        -9.903912876992158E-020
  -66.0500000000000         4.378813562456256E-019
  -65.8600000000000         5.268954495944796E-019
  -65.6700000000000         7.702292216982427E-020
  -65.4800000000000        -4.822619175743199E-019
  -65.2900000000000        -6.114248121654423E-019
  -65.1000000000000        -1.773272947090284E-019
  -64.9100000000000         4.182557423260361E-019
  -64.7200000000000         6.206319289132447E-019
  -64.5300000000000         2.499938616602637E-019
  -64.3400000000000        -3.284532079842597E-019
  -64.1500000000000        -5.546280214240282E-019
  -63.9600000000000        -2.100219729928633E-019
  -63.7700000000000         3.724579356128962E-019
  -63.5800000000000         6.266202661393918E-019
  -63.3900000000000         2.951335383616059E-019
  -63.2000000000000        -3.226476921570988E-019
  -63.0100000000000        -6.537604194454992E-019
  -62.8200000000000        -3.955327122857170E-019
  -62.6300000000000         1.977463178270973E-019
  -62.4400000000000         5.583619882757639E-019
  -62.2500000000000         3.471804888490797E-019
  -62.0600000000000        -2.227676076594439E-019
  -61.8700000000000        -5.907568698361259E-019
  -61.6800000000000        -3.861628631373160E-019
  -61.4900000000000         2.144398759606710E-019
  -61.3000000000000         6.523096351222318E-019
  -61.1100000000000         5.163886780013110E-019
  -60.9200000000000        -6.672499729726524E-020
  -60.7300000000000        -5.534713098306217E-019
  -60.5400000000000        -4.993721281780682E-019
  -60.3500000000000         2.109642811307597E-020
  -60.1600000000000         4.906694376446816E-019
  -59.9700000000000         4.476723798062278E-019
  -59.7800000000000        -7.091010546468733E-020
  -59.5900000000000        -5.653883958726118E-019
  -59.4000000000000        -5.526313741967067E-019
  -59.2100000000000        -2.950913489914991E-020
  -59.0200000000000         5.219656504350716E-019
  -58.8300000000000         5.923669545237170E-019
  -58.6400000000000         1.289229996398557E-019
  -58.4500000000000        -4.159296349067677E-019
  -58.2600000000000        -5.181319073593460E-019
  -58.0700000000000        -8.332322697664003E-020
  -57.8800000000000         4.637982264691768E-019
  -57.6900000000000         5.872854363709776E-019
  -57.5000000000000         1.542654806203924E-019
  -57.3100000000000        -4.360492706193717E-019
  -57.1200000000000        -6.319204796051669E-019
  -56.9300000000000        -2.551637097418233E-019
  -56.7400000000000         3.285933569903307E-019
  -56.5500000000000         5.592364081963291E-019
  -56.3600000000000         2.182777423223119E-019
  -56.1700000000000        -3.612483972043873E-019
  -55.9800000000000        -6.129032612527507E-019
  -55.7900000000000        -2.791697932987705E-019
  -55.6000000000000         3.403625560293203E-019
  -55.4100000000000         6.719517661076024E-019
  -55.2200000000000         4.122256888981419E-019
  -55.0300000000000        -1.842219505346924E-019
  -54.8400000000000        -5.482681476107813E-019
  -54.6500000000000        -3.391512591957488E-019
  -54.4600000000000         2.310131796096480E-019
  -54.2700000000000         6.011522635010406E-019
  -54.0800000000000         3.986558613854528E-019
  -53.8900000000000        -2.032701830937350E-019
  -53.7000000000000        -6.490901080160604E-019
  -53.5100000000000        -5.287824004429554E-019
  -53.3200000000000         3.297806037197450E-020
  -53.1300000000000         4.968024125714255E-019
  -52.9400000000000         4.235072406692965E-019
  -52.7500000000000        -1.070314708975234E-019
  -52.5600000000000        -5.733506907631026E-019
  -52.3700000000000        -5.124046765677550E-019
  -52.1800000000000         3.616619061438750E-020
  -51.9900000000000         5.661645203818201E-019
  -51.8000000000000         5.862705152960302E-019
  -51.6100000000000         8.701834095920620E-020
  -51.4200000000000        -4.515881735205559E-019
  -51.2300000000000        -5.185847443270341E-019
  -51.0400000000000        -5.919459073169342E-020
  -50.8500000000000         4.746159000871335E-019
  -50.6600000000000         5.586632030037808E-019
  -50.4700000000000         1.003612321107548E-019
  -50.2800000000000        -4.704384534962847E-019
  -50.0900000000000        -6.103530229501819E-019
  -49.9000000000000        -1.804454480098125E-019
  -49.7100000000000         4.205195253339807E-019
  -49.5200000000000         6.342146716983269E-019
  -49.3300000000000         2.722558025480440E-019
  -49.1400000000000        -3.072021309205158E-019
  -48.9500000000000        -5.441156346265746E-019
  -48.7600000000000        -2.130805802637426E-019
  -48.5700000000000         3.614269061037954E-019
  -48.3800000000000         6.166082340582106E-019
  -48.1900000000000         2.909875039053763E-019
  -48.0000000000000        -3.238087699788003E-019
  -47.8100000000000        -6.592452783788182E-019
  -47.6200000000000        -4.104791918787091E-019
  -47.4300000000000         1.741771165407075E-019
  -47.2400000000000         5.314165033786546E-019
  -47.0500000000000         3.215963022746092E-019
  -46.8600000000000        -2.471710687449881E-019
  -46.6700000000000        -6.195542842015710E-019
  -46.4800000000000        -4.256472863410652E-019
  -46.2900000000000         1.642448849072259E-019
  -46.1000000000000         6.013932260371078E-019
  -45.9100000000000         4.819442623388351E-019
  -45.7200000000000        -6.785543852522112E-020
  -45.5300000000000        -5.125336045519867E-019
  -45.3400000000000        -4.198450573753915E-019
  -45.1500000000000         1.245646240285965E-019
  -44.9600000000000         5.976724738362185E-019
  -44.7700000000000         5.387918921771334E-019
  -44.5800000000000        -9.079221977695764E-021
  -44.3900000000000        -5.381282482353257E-019
  -44.2000000000000        -5.579643446152794E-019
  -44.0100000000000        -6.179413284769830E-020
  -43.8200000000000         4.676825737818355E-019
  -43.6300000000000         5.190435221541508E-019
  -43.4400000000000         4.088774593304551E-020
  -43.2500000000000        -5.083374906186783E-019
  -43.0600000000000        -5.979616428681160E-019
  -42.8700000000000        -1.323912297743966E-019
  -42.6800000000000         4.564470819848385E-019
  -42.4900000000000         6.193488913037412E-019
  -42.3000000000000         2.113164293983220E-019
  -42.1100000000000        -3.720927846357283E-019
  -41.9200000000000        -5.728396064367430E-019
  -41.7300000000000        -2.026480421145974E-019
  -41.5400000000000         3.779827302751800E-019
  -41.3500000000000         6.049164183539805E-019
  -41.1600000000000         2.498959270709556E-019
  -40.9700000000000        -3.610045573604757E-019
  -40.7800000000000        -6.577524900251058E-019
  -40.5900000000000        -3.682081353367923E-019
  -40.4000000000000         2.251324810047806E-019
  -40.2100000000000         5.568750013270927E-019
  -40.0200000000000         3.188628021878379E-019
  -39.8300000000000        -2.467569004922307E-019
  -39.6400000000000        -5.814218924871651E-019
  -39.4500000000000        -3.472448641896447E-019
  -39.2600000000000         2.471624029784458E-019
  -39.0700000000000         6.443574654467868E-019
  -38.8800000000000         4.699048042847856E-019
  -38.6900000000000        -1.101359105913915E-019
  -38.5000000000000        -5.471170313161541E-019
  -38.3100000000000        -4.322692981368401E-019
  -38.1200000000000         1.144987004891825E-019
  -37.9300000000000         5.606523098698878E-019
  -37.7400000000000         4.715177433154244E-019
  -37.5500000000000        -7.293348764405606E-020
  -37.3600000000000        -5.541863719480633E-019
  -37.1700000000000        -5.112749458272531E-019
  -36.9800000000000         1.800682232442948E-020
  -36.7900000000000         5.323184979310449E-019
  -36.6000000000000         5.445444567255150E-019
  -36.4100000000000         4.646644165526307E-020
  -36.2200000000000        -4.830258851749509E-019
  -36.0300000000000        -5.350356561172937E-019
  -35.8400000000000        -5.746388480898048E-020
  -35.6500000000000         4.939272237263189E-019
  -35.4600000000000         5.897121974312219E-019
  -35.2700000000000         1.315674372493345E-019
  -35.0800000000000        -4.541245873908274E-019
  -34.8900000000000        -6.223290328747679E-019
  -34.7000000000000        -2.274602237343637E-019
  -34.5100000000000         3.400340638436496E-019
  -34.3200000000000         5.286473443542286E-019
  -34.1300000000000         1.545820349231164E-019
  -33.9400000000000        -4.213224665560866E-019
  -33.7500000000000        -6.385974454260196E-019
  -33.5600000000000        -2.743443812155477E-019
  -33.3700000000000         3.414657812092086E-019
  -33.1800000000000         6.384282388774640E-019
  -32.9900000000000         3.475898698004503E-019
  -32.8000000000000        -2.436311845080478E-019
  -32.6100000000000        -5.662138008604554E-019
  -32.4200000000000        -3.124019158338797E-019
  -32.2300000000000         2.709409268089334E-019
  -32.0400000000000         6.189655914096189E-019
  -31.8500000000000         3.896040237271612E-019
  -31.6600000000000        -2.086388581031442E-019
  -31.4700000000000        -6.149464526357911E-019
  -31.2800000000000        -4.504917377968356E-019
  -31.0900000000000         1.211650897722400E-019
  -30.9000000000000         5.507777646511482E-019
  -30.7100000000000         4.278756999968918E-019
  -30.5200000000000        -1.267761452789113E-019
  -30.3300000000000        -5.757625373941988E-019
  -30.1400000000000        -4.783684122979368E-019
  -29.9500000000000         8.737439182299370E-020
  -29.7600000000000         5.973563096641871E-019
  -29.5700000000000         5.791271235599391E-019
  -29.3800000000000         5.962279336770783E-020
  -29.1900000000000        -4.630248307622722E-019
  -29.0000000000000        -4.954335455356102E-019
  -28.8100000000000        -1.869193716280024E-020
  -28.6200000000000         4.958697763965828E-019
  -28.4300000000000         5.397230372970116E-019
  -28.2400000000000         5.560857182434419E-020
  -28.0500000000000        -5.062810317326399E-019
  -27.8600000000000        -6.179297446717537E-019
  -27.6700000000000        -1.774487872626258E-019
  -27.4800000000000         3.939702511285905E-019
  -27.2900000000000         5.537975816962641E-019
  -27.1000000000000         1.551533497668852E-019
  -26.9100000000000        -4.137420088871969E-019
  -26.7200000000000        -6.009550045278278E-019
  -26.5300000000000        -2.189222908131459E-019
  -26.3400000000000         3.756062945076312E-019
  -26.1500000000000         6.220953350067159E-019
  -25.9600000000000         2.912186025713380E-019
  -25.7700000000000        -2.972245880485257E-019
  -25.5800000000000        -5.808268280332066E-019
  -25.3900000000000        -2.921117751361149E-019
  -25.2000000000000         2.860578845674991E-019
  -25.0100000000000         5.914529200279944E-019
  -24.8200000000000         3.219258469931243E-019
  -24.6300000000000        -2.724754206224361E-019
  -24.4400000000000        -6.256873093074121E-019
  -24.2500000000000        -3.954180397170658E-019
  -24.0600000000000         2.094302290491714E-019
  -23.8700000000000         6.263670865213248E-019
  -23.6800000000000         4.730393166568661E-019
  -23.4900000000000        -9.141755229449017E-020
  -23.3000000000000        -5.209272080644461E-019
  -23.1100000000000        -4.052914199173621E-019
  -22.9200000000000         1.375207697639985E-019
  -22.7300000000000         5.747643363778136E-019
  -22.5400000000000         4.700266068532746E-019
  -22.3500000000000        -9.705174220595477E-020
  -22.1600000000000        -6.041205087862968E-019
  -21.9700000000000        -5.823644843260013E-019
  -21.7800000000000        -6.219107455461326E-020
  -21.5900000000000         4.561210982258098E-019
  -21.4000000000000         4.790475814443298E-019
  -21.2100000000000        -9.860127386142871E-021
  -21.0200000000000        -5.346750776110789E-019
  -20.8300000000000        -5.822772368782445E-019
  -20.6400000000000        -9.332787166007451E-020
  -20.4500000000000         4.804933814178966E-019
  -20.2600000000000         6.071952832826291E-019
  -20.0700000000000         1.810188048874790E-019
  -19.8800000000000        -3.783179406309976E-019
  -19.6900000000000        -5.275480014905948E-019
  -19.5000000000000        -1.195045713661473E-019
  -19.3100000000000         4.553835716812762E-019
  -19.1200000000000         6.417257008912996E-019
  -18.9300000000000         2.505852606110870E-019
  -18.7400000000000        -3.585759401644219E-019
  -18.5500000000000        -6.195214294066632E-019
  -18.3600000000000        -2.976678147037277E-019
  -18.1700000000000         2.883449023878412E-019
  -17.9800000000000         5.720752399660264E-019
  -17.7900000000000         2.800410515735491E-019
  -17.6000000000000        -3.072506324233572E-019
  -17.4100000000000        -6.231083228586135E-019
  -17.2200000000000        -3.564462000013640E-019
  -17.0300000000000         2.499317078653023E-019
  -16.8400000000000         6.300327460070670E-019
  -16.6500000000000         4.335609730836595E-019
  -16.4600000000000        -1.421438514268407E-019
  -16.2700000000000        -5.430719487671814E-019
  -16.0800000000000        -3.889052327614491E-019
  -15.8900000000000         1.634877583459484E-019
  -15.7000000000000         5.704024964966512E-019
  -15.5100000000000         4.226799981661122E-019
  -15.3200000000000        -1.599365049219872E-019
  -15.1300000000000        -6.395794453075611E-019
  -14.9400000000000        -5.710256649027332E-019
  -14.7500000000000        -2.418644232379295E-020
  -14.5600000000000         4.845560889599536E-019
  -14.3700000000000         4.850714068550460E-019
  -14.1800000000000        -2.568478738902878E-022
  -13.9900000000000        -4.815427718842493E-019
  -13.8000000000000        -4.733219721539877E-019
  -13.6100000000000         3.734351375917522E-020
  -13.4200000000000         5.749624162089368E-019
  -13.2300000000000         6.285355770780691E-019
  -13.0400000000000         1.403959357909721E-019
  -12.8500000000000        -4.368238428043898E-019
  -12.6600000000000        -5.695409699738467E-019
  -12.4700000000000        -1.492802878301272E-019
  -12.2800000000000         4.063943360515637E-019
  -12.0900000000000         5.540195762275486E-019
  -11.9000000000000         1.443486867358397E-019
  -11.7100000000000        -4.341375642336593E-019
  -11.5200000000000        -6.265200580990389E-019
  -11.3300000000000        -2.429239348628192E-019
  -11.1400000000000         3.586735011235727E-019
  -10.9500000000000         6.130998071468584E-019
  -10.7600000000000         2.860797854638666E-019
  -10.5700000000000        -3.036135555470742E-019
  -10.3800000000000        -5.891026919024983E-019
  -10.1900000000000        -2.967374447238485E-019
  -10.0000000000000         2.922245733030216E-019
  -9.81000000000000         6.100465048369794E-019
  -9.62000000000000         3.454548795963371E-019
  -9.42999999999999        -2.580075421056081E-019
  -9.23999999999999        -6.336292407662543E-019
  -9.05000000000000        -4.313539535277729E-019
  -8.86000000000000         1.496183017114311E-019
  -8.67000000000000         5.518081474522763E-019
  -8.48000000000000         3.915585528468568E-019
  -8.28999999999999        -1.745614814732326E-019
  -8.09999999999999        -5.988713140613526E-019
  -7.91000000000000        -4.660589705482370E-019
  -7.72000000000000         1.088695152586923E-019
  -7.53000000000000         5.893173859778475E-019
  -7.34000000000000         5.286253152188320E-019
  -7.15000000000001        -4.792513048550850E-021
  -6.95999999999999        -4.940965516711908E-019
  -6.77000000000000        -4.679723694613491E-019
  -6.58000000000000         4.912125409716995E-020
  -6.39000000000000         5.596404501398540E-019
  -6.20000000000000         5.677732898216832E-019
  -6.01000000000001         5.372954251129564E-020
  -5.81999999999999        -5.060149596488426E-019
  -5.63000000000000        -5.920769817891190E-019
  -5.44000000000000        -1.355099818425767E-019
  -5.25000000000000         4.193849447520476E-019
  -5.06000000000000         5.408663637890364E-019
  -4.87000000000000         1.171831433765012E-019
  -4.67999999999999        -4.376427051489433E-019
  -4.48999999999999        -5.804097632289288E-019
  -4.30000000000000        -1.596829604963206E-019
  -4.11000000000000         4.369480418589657E-019
  -3.92000000000000         6.511324693280009E-019
  -3.73000000000000         2.856257554843713E-019
  -3.53999999999999        -3.087797448964933E-019
  -3.34999999999999        -5.688964686010390E-019
  -3.16000000000000        -2.559239423641081E-019
  -2.97000000000000         3.184504567200997E-019
  -2.78000000000000         5.916688247187147E-019
  -2.59000000000000         2.897609700545416E-019
  -2.40000000000001        -3.089076688405854E-019
  -2.20999999999999        -6.389004131005887E-019
  -2.02000000000000        -3.886453371103829E-019
  -1.83000000000000         2.012555563610030E-019
  -1.64000000000000         5.677727083249559E-019
  -1.45000000000000         3.628653634948168E-019
  -1.26000000000001        -2.146876875734085E-019
  -1.06999999999999        -6.091256344162983E-019
 -0.879999999999995        -4.384418930091670E-019
 -0.689999999999998         1.398200100920220E-019
 -0.500000000000000         5.778036600451290E-019
 -0.310000000000002         4.603836806436636E-019
 -0.120000000000005        -9.793458407750913E-020
  7.000000000000739E-002   -5.622574661751913E-019
  0.260000000000005        -4.880617241390191E-019
  0.450000000000003         5.451866263480465E-020
  0.640000000000001         5.472926005190151E-019
  0.829999999999998         5.181153015310691E-019
   1.02000000000000        -7.782869160610222E-021
   1.21000000000001        -5.300784490725170E-019
   1.40000000000001        -5.496850577170593E-019
   1.59000000000000        -4.498680186272824E-020
   1.78000000000000         5.075686929712519E-019
   1.97000000000000         5.880930373246007E-019
   2.16000000000000         1.282137633842565E-019
   2.34999999999999        -4.254958396066139E-019
   2.54000000000001        -5.388215757207650E-019
   2.73000000000000        -1.003765034063933E-019
   2.92000000000000         4.710967017763661E-019
   3.11000000000000         6.255709058726029E-019
   3.30000000000000         2.068143277941703E-019
   3.48999999999999        -3.980482257299134E-019
   3.68000000000001        -6.275067899055001E-019
   3.87000000000000        -2.799321801745476E-019
   4.06000000000000         2.969121200939577E-019
   4.25000000000000         5.403422280898049E-019
   4.44000000000000         2.111774674181794E-019
   4.63000000000000        -3.769804833510298E-019
   4.82000000000001        -6.564459788230989E-019
   5.01000000000001        -3.479895260469869E-019
   5.20000000000000         2.710244270571977E-019
   5.39000000000000         6.300625945069037E-019
   5.58000000000000         4.085034618074900E-019
   5.77000000000000        -1.612042308639924E-019
   5.96000000000001        -5.189407841998195E-019
   6.15000000000001        -3.140448454951747E-019
   6.34000000000000         2.587709897195291E-019
   6.53000000000000         6.450784765398197E-019