  -105.000000000000         0.000000000000000E+000
  -104.810000000000        -2.495272898587816E-020
  -104.620000000000        -5.569196839231648E-020
  -104.430000000000        -7.201244570885740E-020
  -104.240000000000        -7.108422536737641E-020
  -104.050000000000        -6.906896078811844E-020
  -103.860000000000        -8.458326273411996E-020
  -103.670000000000        -1.199516345123859E-019
  -103.480000000000        -1.582435252664456E-019
  -103.290000000000        -1.789719510997094E-019
  -103.100000000000        -1.774642120950672E-019
  -102.910000000000        -1.693583815463731E-019
  -102.720000000000        -1.758609342457210E-019
  -102.530000000000        -2.037765695625324E-019
  -102.340000000000        -2.393099935134738E-019
  -102.150000000000        -2.614852376348947E-019
  -101.960000000000        -2.623239666032970E-019
  -101.770000000000        -2.545121196381723E-019
  -101.580000000000        -2.592478812862256E-019
  -101.390000000000        -2.858923862769429E-019
  -101.200000000000        -3.228889810183045E-019
  -101.010000000000        -3.486619051360139E-019
  -100.820000000000        -3.520984841387759E-019
  -100.630000000000        -3.430423565823537E-019
  -100.440000000000        -3.427733346574887E-019
  -100.250000000000        -3.635773591759670E-019
  -100.060000000000        -3.969288859295346E-019
  -99.8700000000000        -4.215880815035922E-019
  -99.6800000000000        -4.239061253616693E-019
  -99.4900000000000        -4.109537333163747E-019
  -99.3000000000000        -4.039008446947787E-019
  -99.1100000000000        -4.179210763143756E-019
  -98.9200000000000        -4.477815603004759E-019
  -98.7300000000000        -4.728678336347049E-019
  -98.5400000000000        -4.768530017157050E-019
  -98.3500000000000        -4.632701796732232E-019
  -98.1600000000000        -4.521748166592582E-019
  -97.9700000000000        -4.611038736727195E-019
  -97.7800000000000        -4.884794318799575E-019
  -97.5900000000000        -5.152476898648378E-019
  -97.4000000000000        -5.231313278433762E-019
  -97.2100000000000        -5.120115956867127E-019
  -97.0200000000000        -4.998134305916818E-019
  -96.8300000000000        -5.050298688296244E-019
  -96.6400000000000        -5.286429705834397E-019
  -96.4500000000000        -5.527878656941119E-019
  -96.2600000000000        -5.575282939579888E-019
  -96.0700000000000        -5.398234517366377E-019
  -95.8800000000000        -5.166416405184566E-019
  -95.6900000000000        -5.092506932961993E-019
  -95.5000000000000        -5.236325646408168E-019
  -95.3100000000000        -5.456193743112210E-019
  -95.1200000000000        -5.552292313999332E-019
  -94.9300000000000        -5.463141427626278E-019
  -94.7400000000000        -5.326060486028880E-019
  -94.5500000000000        -5.343361700505098E-019
  -94.3600000000000        -5.582540077966598E-019
  -94.1700000000000        -5.902635266165256E-019
  -93.9800000000000        -6.079151084842797E-019
  -93.7900000000000        -6.010383968735232E-019
  -93.6000000000000        -5.809585495121457E-019
  -93.4100000000000        -5.695492057995015E-019
  -93.2200000000000        -5.785599182108631E-019
  -93.0300000000000        -5.988875912244440E-019
  -92.8400000000000        -6.099277466611208E-019
  -92.6500000000000        -5.999690080538105E-019
  -92.4600000000000        -5.780719176722852E-019
  -92.2700000000000        -5.660067642196154E-019
  -92.0800000000000        -5.778625982054989E-019
  -91.8900000000000        -6.067455152082645E-019
  -91.7000000000000        -6.312693000009854E-019
  -91.5100000000000        -6.356723140139437E-019
  -91.3200000000000        -6.243958918969915E-019
  -91.1300000000000        -6.172701899814129E-019
  -90.9400000000000        -6.299836638082985E-019
  -90.7500000000000        -6.585496379651689E-019
  -90.5600000000000        -6.826560294931997E-019
  -90.3700000000000        -6.847669104086330E-019
  -90.1800000000000        -6.668041812588896E-019
  -89.9900000000000        -6.485099366978738E-019
  -89.8000000000000        -6.490306123607408E-019
  -89.6100000000000        -6.692354116930942E-019
  -89.4200000000000        -6.915256736400382E-019
  -89.2300000000000        -6.971596407678591E-019
  -89.0400000000000        -6.844318587799262E-019
  -88.8500000000000        -6.703187943924983E-019
  -88.6600000000000        -6.740617541648443E-019
  -88.4700000000000        -6.984467306246538E-019
  -88.2800000000000        -7.267701819924171E-019
  -88.0900000000000        -7.385017833238315E-019
  -87.9000000000000        -7.287480057839215E-019
  -87.7100000000000        -7.129207300595741E-019
  -87.5200000000000        -7.121031020006465E-019
  -87.3300000000000        -7.330188151281678E-019
  -87.1400000000000        -7.616519766350302E-019
  -86.9500000000000        -7.765493651952762E-019
  -86.7600000000000        -7.691016656944969E-019
  -86.5700000000000        -7.514936287846732E-019
  -86.3800000000000        -7.448190545433492E-019
  -86.1900000000000        -7.588141420143582E-019
  -86.0000000000000        -7.826557518535149E-019
  -85.8100000000000        -7.956361908816208E-019
  -85.6200000000000        -7.874494688241426E-019
  -85.4300000000000        -7.685901562880109E-019
  -85.2400000000000        -7.608022253128400E-019
  -85.0500000000000        -7.765785512763865E-019
  -84.8600000000000        -8.072046335259454E-019
  -84.6700000000000        -8.307599230620605E-019
  -84.4800000000000        -8.325141643179823E-019
  -84.2900000000000        -8.183587872403719E-019
  -84.1000000000000        -8.085740690752081E-019
  -83.9100000000000        -8.180141569663150E-019
  -83.7200000000000        -8.417371581517882E-019
  -83.5300000000000        -8.598429147403412E-019
  -83.3400000000000        -8.568701843560745E-019
  -83.1500000000000        -8.371513298319289E-019
  -82.9600000000000        -8.213392351051361E-019
  -82.7700000000000        -8.272797106931355E-019
  -82.5800000000000        -8.533893954311200E-019
  -82.3900000000000        -8.803763060392267E-019
  -82.2000000000000        -8.896602434198958E-019
  -82.0100000000000        -8.809009670923994E-019
  -81.8200000000000        -8.718984901992567E-019
  -81.6300000000000        -8.809803571665483E-019
  -81.4400000000000        -9.087276985135420E-019
  -81.2500000000000        -9.365550923687365E-019
  -81.0600000000000        -9.436313544586558E-019
  -80.8700000000000        -9.261635076565026E-019
  -80.6800000000000        -9.007883883511882E-019
  -80.4900000000000        -8.889174743395058E-019
  -80.3000000000000        -8.969781772345387E-019
  -80.1100000000000        -9.113165844033640E-019
  -79.9200000000000        -9.124462942214096E-019
  -79.7300000000000        -8.948348411213492E-019
  -79.5400000000000        -8.731653311091941E-019
  -79.3500000000000        -8.689620870131282E-019
  -79.1600000000000        -8.902549728133582E-019
  -78.9700000000000        -9.236774596133338E-019
  -78.7800000000000        -9.466186480136645E-019
  -78.5900000000000        -9.479699473879491E-019
  -78.4000000000000        -9.378323844919393E-019
  -78.2100000000000        -9.371019005487835E-019
  -78.0200000000000        -9.570256777546792E-019
  -77.8300000000000        -9.882908696356910E-019
  -77.6400000000000        -1.009982477580995E-018
  -77.4500000000000        -1.009711010141532E-018
  -77.2600000000000        -9.955488751383542E-019
  -77.0700000000000        -9.882866808408467E-019
  -76.8800000000000        -1.001401704633456E-018
  -76.6900000000000        -1.027954879878047E-018
  -76.5000000000000        -1.047044446060089E-018
  -76.3100000000000        -1.043728425222317E-018
  -76.1200000000000        -1.023413783366916E-018
  -75.9300000000000        -1.006955551307338E-018
  -75.7400000000000        -1.011087870487730E-018
  -75.5500000000000        -1.032786370744271E-018
  -75.3600000000000        -1.052424573683382E-018
  -75.1700000000000        -1.052679578340760E-018
  -74.9800000000000        -1.035115636491781E-018
  -74.7900000000000        -1.018593245857897E-018
  -74.6000000000000        -1.021038959436424E-018
  -74.4100000000000        -1.042046553249711E-018
  -74.2200000000000        -1.063006384740346E-018
  -74.0300000000000        -1.064719810794575E-018
  -73.8400000000000        -1.045745755587500E-018
  -73.6500000000000        -1.023984245955831E-018
  -73.4600000000000        -1.019943731615120E-018
  -73.2700000000000        -1.037594297599855E-018
  -73.0800000000000        -1.061023647324457E-018
  -72.8900000000000        -1.070035608828888E-018
  -72.7000000000000        -1.059746348117166E-018
  -72.5100000000000        -1.045434762397610E-018
  -72.3200000000000        -1.048003570370897E-018
  -72.1300000000000        -1.073906506591854E-018
  -71.9400000000000        -1.108657832512275E-018
  -71.7500000000000        -1.130097360312008E-018
  -71.5600000000000        -1.128786845776289E-018
  -71.3700000000000        -1.116160226665400E-018
  -71.1800000000000        -1.112781092596658E-018
  -70.9900000000000        -1.128082288643560E-018
  -70.8000000000000        -1.151080703246861E-018
  -70.6100000000000        -1.161005126480057E-018
  -70.4200000000000        -1.147667047729726E-018
  -70.2300000000000        -1.122026745372231E-018
  -70.0400000000000        -1.106707811389411E-018
  -69.8500000000000        -1.115321570113841E-018
  -69.6600000000000        -1.140171392503747E-018
  -69.4700000000000        -1.159979664585983E-018
  -69.2800000000000        -1.160229857754828E-018
  -69.0900000000000        -1.146722668297143E-018
  -68.9000000000000        -1.139489584662981E-018
  -68.7100000000000        -1.153019924627475E-018
  -68.5200000000000        -1.181825294880857E-018
  -68.3300000000000        -1.205222408130226E-018
  -68.1400000000000        -1.206819173169063E-018
  -67.9500000000000        -1.190105364235488E-018
  -67.7600000000000        -1.175210124619928E-018
  -67.5700000000000        -1.179831217179343E-018
  -67.3800000000000        -1.202465052361739E-018
  -67.1900000000000        -1.223906637366285E-018
  -67.0000000000000        -1.225580651474116E-018
  -66.8100000000000        -1.207240603269027E-018
  -66.6200000000000        -1.187219270671817E-018
  -66.4300000000000        -1.185065277518800E-018
  -66.2400000000000        -1.203159969762926E-018
  -66.0500000000000        -1.224829974555647E-018
  -65.8600000000000        -1.230692462387901E-018
  -65.6700000000000        -1.217534024489794E-018
  -65.4800000000000        -1.201595059101356E-018
  -65.2900000000000        -1.203065748937352E-018
  -65.1000000000000        -1.226608874492520E-018
  -64.9100000000000        -1.256553515386683E-018
  -64.7200000000000        -1.271399123982877E-018
  -64.5300000000000        -1.263839919945303E-018
  -64.3400000000000        -1.247255937501793E-018
  -64.1500000000000        -1.242529115866515E-018
  -63.9600000000000        -1.257824365804645E-018
  -63.7700000000000        -1.280701408967817E-018
  -63.5800000000000        -1.290132720655363E-018
  -63.3900000000000        -1.276943040735277E-018
  -63.2000000000000        -1.253099040080338E-018
  -63.0100000000000        -1.240902621112269E-018
  -62.8200000000000        -1.252306953286183E-018
  -62.6300000000000        -1.277990016373612E-018
  -62.4400000000000        -1.296534437387481E-018
  -62.2500000000000        -1.294921990624596E-018
  -62.0600000000000        -1.280776328214260E-018
  -61.8700000000000        -1.274672576440429E-018
  -61.6800000000000        -1.289895147667682E-018
  -61.4900000000000        -1.319058198254193E-018
  -61.3000000000000        -1.340479969318524E-018
  -61.1100000000000        -1.338353362554941E-018
  -60.9200000000000        -1.317585124515511E-018
  -60.7300000000000        -1.299225658878513E-018
  -60.5400000000000        -1.300846507526400E-018
  -60.3500000000000        -1.320494690001516E-018
  -60.1600000000000        -1.339381291421749E-018
  -59.9700000000000        -1.340554726143009E-018
  -59.7800000000000        -1.325567187953265E-018
  -59.5900000000000        -1.313139504570795E-018
  -59.4000000000000        -1.321122342279327E-018
  -59.2100000000000        -1.349055172596360E-018
  -59.0200000000000        -1.378053282683253E-018
  -58.8300000000000        -1.388208432789439E-018
  -58.6400000000000        -1.376979135837319E-018
  -58.4500000000000        -1.361095718598201E-018
  -58.2600000000000        -1.360227361179217E-018
  -58.0700000000000        -1.378063565615905E-018
  -57.8800000000000        -1.398907738546450E-018
  -57.6900000000000        -1.403008795501457E-018
  -57.5000000000000        -1.385908848203472E-018
  -57.3100000000000        -1.363239917055091E-018
  -57.1200000000000        -1.356312364576070E-018
  -56.9300000000000        -1.372197141410795E-018
  -56.7400000000000        -1.397293328167199E-018
  -56.5500000000000        -1.410527294736253E-018
  -56.3600000000000        -1.403572826969419E-018
  -56.1700000000000        -1.388738532704750E-018
  -55.9800000000000        -1.386945305579159E-018
  -55.7900000000000        -1.407277886184793E-018
  -55.6000000000000        -1.437688496328512E-018
  -55.4100000000000        -1.455812018199572E-018
  -55.2200000000000        -1.449678081314148E-018
  -55.0300000000000        -1.428662797059502E-018
  -54.8400000000000        -1.414297925219157E-018
  -54.6500000000000        -1.419725533507563E-018
  -54.4600000000000        -1.437396502252934E-018
  -54.2700000000000        -1.446727895214397E-018
  -54.0800000000000        -1.434357691463473E-018
  -53.8900000000000        -1.407596011116533E-018
  -53.7000000000000        -1.388172384379278E-018
  -53.5100000000000        -1.392180910541402E-018
  -53.3200000000000        -1.415278481359517E-018
  -53.1300000000000        -1.437185544198204E-018
  -52.9400000000000        -1.441158039943062E-018
  -52.7500000000000        -1.429841924299759E-018
  -52.5600000000000        -1.422389644755856E-018
  -52.3700000000000        -1.435635325148502E-018
  -52.1800000000000        -1.467378814365243E-018
  -51.9900000000000        -1.497816704100805E-018
  -51.8000000000000        -1.507816054650583E-018
  -51.6100000000000        -1.496651039598175E-018
  -51.4200000000000        -1.482344662437139E-018
  -51.2300000000000        -1.484340618340195E-018
  -51.0400000000000        -1.505057483513457E-018
  -50.8500000000000        -1.527911273412134E-018
  -50.6600000000000        -1.533631429317664E-018
  -50.4700000000000        -1.519183843594758E-018
  -50.2800000000000        -1.501113217392654E-018
  -50.0900000000000        -1.500025419361766E-018
  -49.9000000000000        -1.520971365459379E-018
  -49.7100000000000        -1.548431392230147E-018
  -49.5200000000000        -1.560710664136358E-018
  -49.3300000000000        -1.550094786394259E-018
  -49.1400000000000        -1.529650474180176E-018
  -48.9500000000000        -1.520296158892323E-018
  -48.7600000000000        -1.530584418014490E-018
  -48.5700000000000        -1.548564886084178E-018
  -48.3800000000000        -1.553497842843520E-018
  -48.1900000000000        -1.536171242353359E-018
  -48.0000000000000        -1.508339992972215E-018
  -47.8100000000000        -1.492198240187305E-018
  -47.6200000000000        -1.499855241951870E-018
  -47.4300000000000        -1.522330542543257E-018
  -47.2400000000000        -1.538518049227524E-018
  -47.0500000000000        -1.535521420139822E-018
  -46.8600000000000        -1.520915164540007E-018
  -46.6700000000000        -1.515231784521885E-018
  -46.4800000000000        -1.531914314163441E-018
  -46.2900000000000        -1.563962710841909E-018
  -46.1000000000000        -1.590081867175226E-018
  -45.9100000000000        -1.594490728048603E-018
  -45.7200000000000        -1.581501401051548E-018
  -45.5300000000000        -1.570961655385254E-018
  -45.3400000000000        -1.578924372843287E-018
  -45.1500000000000        -1.602043496872571E-018
  -44.9600000000000        -1.620665837974423E-018
  -44.7700000000000        -1.617712202770788E-018
  -44.5800000000000        -1.595308180259558E-018
  -44.3900000000000        -1.573231917661723E-018
  -44.2000000000000        -1.570582084825182E-018
  -44.0100000000000        -1.588074764829254E-018
  -43.8200000000000        -1.607798213029128E-018
  -43.6300000000000        -1.610638320315477E-018
  -43.4400000000000        -1.594740956452061E-018
  -43.2500000000000        -1.577367544960463E-018
  -43.0600000000000        -1.578345116880198E-018
  -42.8700000000000        -1.600909104107473E-018
  -42.6800000000000        -1.628252414729604E-018
  -42.4900000000000        -1.639117985692081E-018
  -42.3000000000000        -1.627625061678494E-018
  -42.1100000000000        -1.608503614563628E-018
  -41.9200000000000        -1.602814716974110E-018
  -41.7300000000000        -1.617805329176960E-018
  -41.5400000000000        -1.640111535700147E-018
  -41.3500000000000        -1.648772565660399E-018
  -41.1600000000000        -1.635596112918072E-018
  -40.9700000000000        -1.613398417208485E-018
  -40.7800000000000        -1.604232986019610E-018
  -40.5900000000000        -1.618812419720641E-018
  -40.4000000000000        -1.646684167107332E-018
  -40.2100000000000        -1.666428631929750E-018
  -40.0200000000000        -1.666069909204258E-018
  -39.8300000000000        -1.654200239319786E-018
  -39.6400000000000        -1.651238493543084E-018
  -39.4500000000000        -1.669266078085169E-018
  -39.2600000000000        -1.699829202224500E-018
  -39.0700000000000        -1.721469763616309E-018
  -38.8800000000000        -1.719849020505489E-018
  -38.6900000000000        -1.701264713959988E-018
  -38.5000000000000        -1.686656313786836E-018
  -38.3100000000000        -1.691798838444197E-018
  -38.1200000000000        -1.712546284764299E-018
  -37.9300000000000        -1.729160327996741E-018
  -37.7400000000000        -1.725534822842880E-018
  -37.5500000000000        -1.704887527155333E-018
  -37.3600000000000        -1.686873130371734E-018
  -37.1700000000000        -1.688864861615462E-018
  -36.9800000000000        -1.709313618403554E-018
  -36.7900000000000        -1.729112328905733E-018
  -36.6000000000000        -1.729694341632601E-018
  -36.4100000000000        -1.710618299471680E-018
  -36.2200000000000        -1.689864818767003E-018
  -36.0300000000000        -1.686548572517141E-018
  -35.8400000000000        -1.702547113453114E-018
  -35.6500000000000        -1.720620100630690E-018
  -35.4600000000000        -1.720862315031747E-018
  -35.2700000000000        -1.699815919105537E-018
  -35.0800000000000        -1.674019938694626E-018
  -34.8900000000000        -1.664617855888523E-018
  -34.7000000000000        -1.677681851169200E-018
  -34.5100000000000        -1.698957160526687E-018
  -34.3200000000000        -1.707957240179419E-018
  -34.1300000000000        -1.697873150700963E-018
  -33.9400000000000        -1.682208649761781E-018
  -33.7500000000000        -1.681753889865276E-018
  -33.5600000000000        -1.704352497748649E-018
  -33.3700000000000        -1.736854937793903E-018
  -33.1800000000000        -1.757030463137506E-018
  -32.9900000000000        -1.754158729057632E-018
  -32.8000000000000        -1.738739000677961E-018
  -32.6100000000000        -1.732114358059032E-018
  -32.4200000000000        -1.745930033651164E-018
  -32.2300000000000        -1.771023418404900E-018
  -32.0400000000000        -1.786335835700833E-018
  -31.8500000000000        -1.779303595146878E-018
  -31.6600000000000        -1.758206649336374E-018
  -31.4700000000000        -1.744641566303392E-018
  -31.2800000000000        -1.753276050210563E-018
  -31.0900000000000        -1.778173285852200E-018
  -30.9000000000000        -1.798696461753058E-018
  -30.7100000000000        -1.799336560350011E-018
  -30.5200000000000        -1.784530346177075E-018
  -30.3300000000000        -1.774300750848709E-018
  -30.1400000000000        -1.784856183120271E-018
  -29.9500000000000        -1.812680715075792E-018
  -29.7600000000000        -1.837351031486500E-018
  -29.5700000000000        -1.840456785118332E-018
  -29.3800000000000        -1.822656049589651E-018
  -29.1900000000000        -1.802702931220395E-018
  -29.0000000000000        -1.799465009241657E-018
  -28.8100000000000        -1.814112238256755E-018
  -28.6200000000000        -1.829434246203429E-018
  -28.4300000000000        -1.826855355222187E-018
  -28.2400000000000        -1.804792462594523E-018
  -28.0500000000000        -1.780722100524000E-018
  -27.8600000000000        -1.774928483699026E-018
  -27.6700000000000        -1.791442130656702E-018
  -27.4800000000000        -1.814361678834558E-018
  -27.2900000000000        -1.823058900946673E-018
  -27.1000000000000        -1.811764030359552E-018
  -26.9100000000000        -1.794868123845847E-018
  -26.7200000000000        -1.792908303852970E-018
  -26.5300000000000        -1.812642959523547E-018
  -26.3400000000000        -1.840280709892478E-018
  -26.1500000000000        -1.854359073029685E-018
  -25.9600000000000        -1.845979794573148E-018
  -25.7700000000000        -1.827087524563787E-018
  -25.5800000000000        -1.818925062182977E-018
  -25.3900000000000        -1.831730448294165E-018
  -25.2000000000000        -1.855081069487769E-018
  -25.0100000000000        -1.868105001048484E-018
  -24.8200000000000        -1.859777482196190E-018
  -24.6300000000000        -1.839828440267443E-018
  -24.4400000000000        -1.829715761023167E-018
  -24.2500000000000        -1.842190393644888E-018
  -24.0600000000000        -1.868939617500395E-018
  -23.8700000000000        -1.888128410087227E-018
  -23.6800000000000        -1.884705350850639E-018
  -23.4900000000000        -1.864205572282739E-018
  -23.3000000000000        -1.847005967352669E-018
  -23.1100000000000        -1.848611834633726E-018
  -22.9200000000000        -1.864848722173800E-018
  -22.7300000000000        -1.876121109925393E-018
  -22.5400000000000        -1.866644505133747E-018
  -22.3500000000000        -1.840199939834699E-018
  -22.1600000000000        -1.817258942429284E-018
  -21.9700000000000        -1.816126695391056E-018
  -21.7800000000000        -1.836017806236996E-018
  -21.5900000000000        -1.858154014874358E-018
  -21.4000000000000        -1.863824251865768E-018
  -21.2100000000000        -1.852200871167037E-018
  -21.0200000000000        -1.840933441066946E-018
  -20.8300000000000        -1.848967781268616E-018
  -20.6400000000000        -1.878022329721590E-018
  -20.4500000000000        -1.910446014341492E-018
  -20.2600000000000        -1.925523887892209E-018
  -20.0700000000000        -1.918682011716422E-018
  -19.8800000000000        -1.905305356684198E-018
  -19.6900000000000        -1.905585979308753E-018
  -19.5000000000000        -1.924911084787118E-018
  -19.3100000000000        -1.948550305291800E-018
  -19.1200000000000        -1.955750178858790E-018
  -18.9300000000000        -1.939783754623603E-018
  -18.7400000000000        -1.914771202480356E-018
  -18.5500000000000        -1.902703241777044E-018
  -18.3600000000000        -1.913000004675313E-018
  -18.1700000000000        -1.934042575684387E-018
  -17.9800000000000        -1.944675895717259E-018
  -17.7900000000000        -1.934657299587358E-018
  -17.6000000000000        -1.914529221495652E-018
  -17.4100000000000        -1.905492891234429E-018
  -17.2200000000000        -1.918950771428402E-018
  -17.0300000000000        -1.945276359442425E-018
  -16.8400000000000        -1.962579412802510E-018
  -16.6500000000000        -1.957138284031739E-018
  -16.4600000000000        -1.936045604132648E-018
  -16.2700000000000        -1.920084317270067E-018
  -16.0800000000000        -1.923727927757981E-018
  -15.8900000000000        -1.941411017148583E-018
  -15.7000000000000        -1.953192198462896E-018
  -15.5100000000000        -1.944381849653681E-018
  -15.3200000000000        -1.920312752910668E-018
  -15.1300000000000        -1.902017363995340E-018
  -14.9400000000000        -1.906810793055613E-018
  -14.7500000000000        -1.932218248618876E-018
  -14.5600000000000        -1.958498834750028E-018
  -14.3700000000000        -1.967286946069725E-018
  -14.1800000000000        -1.958563979601955E-018
  -13.9900000000000        -1.949850285342434E-018
  -13.8000000000000        -1.958520285147932E-018
  -13.6100000000000        -1.984277208148191E-018
  -13.4200000000000        -2.008686030301743E-018
  -13.2300000000000        -2.012338709230153E-018
  -13.0400000000000        -1.993301253826044E-018
  -12.8500000000000        -1.969195505139880E-018
  -12.6600000000000        -1.960859097178957E-018
  -12.4700000000000        -1.973083118234088E-018
  -12.2800000000000        -1.990696157679887E-018
  -12.0900000000000        -1.993638361594224E-018
  -11.9000000000000        -1.976580458806746E-018
  -11.7100000000000        -1.954311568428105E-018
  -11.5200000000000        -1.947715044118299E-018
  -11.3300000000000        -1.963735893905869E-018
  -11.1400000000000        -1.988526297741986E-018
  -10.9500000000000        -2.000368588187543E-018
  -10.7600000000000        -1.990077975595097E-018
  -10.5700000000000        -1.969459882747406E-018
  -10.3800000000000        -1.959802239254964E-018
  -10.1900000000000        -1.971411202940203E-018
  -10.0000000000000        -1.993732388379973E-018
  -9.81000000000000        -2.005504266723504E-018
  -9.62000000000000        -1.995253466242420E-018
  -9.42999999999999        -1.972531744607907E-018
  -9.23999999999999        -1.959124095243407E-018
  -9.05000000000000        -1.968590461470570E-018
  -8.86000000000000        -1.993628705420084E-018
  -8.67000000000000        -2.013265728677817E-018
  -8.48000000000000        -2.012982477812521E-018
  -8.28999999999999        -1.998563963189455E-018
  -8.09999999999999        -1.990447118047572E-018
  -7.91000000000000        -2.003949527343304E-018
  -7.72000000000000        -2.034276665475826E-018
  -7.53000000000000        -2.060673614107511E-018
  -7.34000000000000        -2.065796205105396E-018
  -7.15000000000001        -2.051835422223879E-018
  -6.95999999999999        -2.038047649063416E-018
  -6.77000000000000        -2.042096761418284E-018
  -6.58000000000000        -2.063039676310706E-018
  -6.39000000000000        -2.082209313930219E-018
  -6.20000000000000        -2.081175931299684E-018
  -6.01000000000001        -2.059645932906587E-018
  -5.81999999999999        -2.036176298028832E-018
  -5.63000000000000        -2.030973803194399E-018
  -5.44000000000000        -2.047145287402554E-018
  -5.25000000000000        -2.068208681955227E-018
  -5.06000000000000        -2.074132280002349E-018
  -4.87000000000000        -2.060530602316688E-018
  -4.67999999999999        -2.042698613155135E-018
  -4.48999999999999        -2.040665525649459E-018
  -4.30000000000000        -2.059585230596348E-018
  -4.11000000000000        -2.084269490417153E-018
  -3.92000000000000        -2.093179925926850E-018
  -3.73000000000000        -2.078584479293806E-018
  -3.53999999999999        -2.053677942887776E-018
  -3.34999999999999        -2.039918355272510E-018
  -3.16000000000000        -2.046695930173741E-018
  -2.97000000000000        -2.062712359394317E-018
  -2.78000000000000        -2.067232727127297E-018
  -2.59000000000000        -2.050393850287930E-018
  -2.40000000000001        -2.023094602429596E-018
  -2.20999999999999        -2.006946921416407E-018
  -2.02000000000000        -2.013863545316148E-018
  -1.83000000000000        -2.034810265885575E-018
  -1.64000000000000        -2.048491660870369E-018
  -1.45000000000000        -2.041676461084631E-018
  -1.26000000000001        -2.021761821676732E-018
  -1.06999999999999        -2.009597407790233E-018
 -0.879999999999995        -2.019422429306162E-018
 -0.689999999999998        -2.045075203159721E-018
 -0.500000000000000        -2.065680474648959E-018
 -0.310000000000002        -2.065427034010568E-018
 -0.120000000000005        -2.048553742500941E-018
  7.000000000000739E-002   -2.035215889476512E-018
  0.260000000000005        -2.042175530981006E-018
  0.450000000000003        -2.066754200726920E-018
  0.640000000000001        -2.089364746751716E-018
  0.829999999999998        -2.092218029897776E-018
   1.02000000000000        -2.076367350658567E-018
   1.21000000000001        -2.060797632996052E-018
   1.40000000000001        -2.064363747345058E-018
   1.59000000000000        -2.087773492277649E-018
   1.78000000000000        -2.112807260757484E-018
   1.97000000000000        -2.119517799421058E-018
   2.16000000000000        -2.104998179437213E-018
   2.34999999999999        -2.085850042595196E-018
   2.54000000000001        -2.082062305562979E-018
   2.73000000000000        -2.097726027414280E-018
   2.92000000000000        -2.117013341038553E-018
   3.11000000000000        -2.119294063728699E-018
   3.30000000000000        -2.098991676716843E-018
   3.48999999999999        -2.071223292471619E-018
   3.68000000000001        -2.057824449175244E-018
   3.87000000000000        -2.067078600994457E-018
   4.06000000000000        -2.086438304517972E-018
   4.25000000000000        -2.095079480506095E-018
   4.44000000000000        -2.084214302060176E-018
   4.63000000000000        -2.065725617040460E-018
   4.82000000000001        -2.060845927469716E-018
   5.01000000000001        -2.079663937734488E-018
   5.20000000000000        -2.111044369889554E-018
   5.39000000000000        -2.132640820227856E-018
   5.58000000000000        -2.131492010904459E-018
   5.77000000000000        -2.115596226609812E-018
   5.96000000000001        -2.105519915049354E-018
   6.15000000000001        -2.114177365798511E-018
   6.34000000000000        -2.134171835470043E-018
   6.53000000000000        -2.144824672412700E-018