  -105.000000000000        -4.720023171778284E-020
  -104.810000000000        -3.575098529178657E-020
  -104.620000000000        -1.670100754284269E-020
  -104.430000000000         4.611650319504014E-021
  -104.240000000000         2.225373869490216E-020
  -104.050000000000         3.140566029397953E-020
  -103.860000000000         2.974635778061529E-020
  -103.670000000000         1.811163253933688E-020
  -103.480000000000         2.345095735477353E-022
  -103.290000000000        -1.835567069778861E-020
  -103.100000000000        -3.195301418205637E-020
  -102.910000000000        -3.634093199254238E-020
  -102.720000000000        -3.002028958900642E-020
  -102.530000000000        -1.464561347486622E-020
  -102.340000000000         5.454577969605173E-021
  -102.150000000000         2.453335297331866E-020
  -101.960000000000         3.709398815705856E-020
  -101.770000000000         3.948938483863497E-020
  -101.580000000000         3.098839678128790E-020
  -101.390000000000         1.399749377830966E-020
  -101.200000000000        -6.629567725079338E-021
  -101.010000000000        -2.499509229366329E-020
  -100.820000000000        -3.586513914428633E-020
  -100.630000000000        -3.618332399319203E-020
  -100.440000000000        -2.595027737040326E-020
  -100.250000000000        -8.215175694295184E-021
  -100.060000000000         1.181509140449971E-020
  -99.8700000000000         2.828855441611643E-020
  -99.6800000000000         3.640426122052376E-020
  -99.4900000000000         3.380233442196599E-020
  -99.3000000000000         2.124696888220917E-020
  -99.1100000000000         2.404130717988194E-021
  -98.9200000000000        -1.722358644883904E-020
  -98.7300000000000        -3.189744376200471E-020
  -98.5400000000000        -3.731320454111453E-020
  -98.3500000000000        -3.185469455193421E-020
  -98.1600000000000        -1.706445915125926E-020
  -97.9700000000000         2.805133453925546E-021
  -97.7800000000000         2.202822479496011E-020
  -97.5900000000000         3.506820561756152E-020
  -97.4000000000000         3.818355773645757E-020
  -97.2100000000000         3.051195535806397E-020
  -97.0200000000000         1.431955818414344E-020
  -96.8300000000000        -5.656879107126167E-021
  -96.6400000000000        -2.358573981607473E-020
  -96.4500000000000        -3.423610384521647E-020
  -96.2600000000000        -3.450036201136687E-020
  -96.0700000000000        -2.429965233244820E-020
  -95.8800000000000        -6.607106996453377E-021
  -95.6900000000000         1.341816474994091E-020
  -95.5000000000000         2.993309312488624E-020
  -95.3100000000000         3.811021537153948E-020
  -95.1200000000000         3.554066140772294E-020
  -94.9300000000000         2.293463721257831E-020
  -94.7400000000000         3.917717519906036E-021
  -94.5500000000000        -1.601797796910276E-020
  -94.3600000000000        -3.110519491435779E-020
  -94.1700000000000        -3.697573547007127E-020
  -93.9800000000000        -3.193191937189897E-020
  -93.7900000000000        -1.744442521718181E-020
  -93.6000000000000         2.270721124829581E-021
  -93.4100000000000         2.147449371692812E-020
  -93.2200000000000         3.457056793249847E-020
  -93.0300000000000         3.772885731935648E-020
  -92.8400000000000         2.999528945771606E-020
  -92.6500000000000         1.356782744086291E-020
  -92.4600000000000        -6.838453640325203E-021
  -92.2700000000000        -2.535185214507093E-020
  -92.0800000000000        -3.663737895271740E-020
  -91.8900000000000        -3.743580406588191E-020
  -91.7000000000000        -2.750514434542207E-020
  -91.5100000000000        -9.691415450538727E-021
  -91.3200000000000         1.089461578000568E-020
  -91.1300000000000         2.835842594498177E-020
  -90.9400000000000         3.773103022062597E-020
  -90.7500000000000         3.640872825938703E-020
  -90.5600000000000         2.490340238028746E-020
  -90.3700000000000         6.685140568776205E-021
  -90.1800000000000        -1.283558084703799E-020
  -89.9900000000000        -2.788850384218214E-020
  -89.8000000000000        -3.402719761312304E-020
  -89.6100000000000        -2.942757117152264E-020
  -89.4200000000000        -1.542499421177067E-020
  -89.2300000000000         3.866786034554000E-021
  -89.0400000000000         2.274648262361984E-020
  -88.8500000000000         3.558195839068525E-020
  -88.6600000000000         3.845181244250701E-020
  -88.4700000000000         3.029352192225831E-020
  -88.2800000000000         1.322290945365186E-020
  -88.0900000000000        -8.067957194598498E-021
  -87.9000000000000        -2.765793764000003E-020
  -87.7100000000000        -4.009664459490618E-020
  -87.5200000000000        -4.196482417891249E-020
  -87.3300000000000        -3.284637103977679E-020
  -87.1400000000000        -1.543439368154847E-020
  -86.9500000000000         5.256682779175789E-021
  -86.7600000000000         2.334424248989978E-020
  -86.5700000000000         3.377585729572250E-020
  -86.3800000000000         3.378158055348148E-020
  -86.1900000000000         2.365889290506386E-020
  -86.0000000000000         6.662531421512028E-021
  -85.8100000000000        -1.196679817328190E-020
  -85.6200000000000        -2.654858811366979E-020
  -85.4300000000000        -3.263032459098518E-020
  -85.2400000000000        -2.829070036306227E-020
  -85.0500000000000        -1.470094587249482E-020
  -84.8600000000000         4.215901245596528E-021
  -84.6700000000000         2.292677735274685E-020
  -84.4800000000000         3.590025451736110E-020
  -84.2900000000000         3.922208843267725E-020
  -84.1000000000000         3.174626041416636E-020
  -83.9100000000000         1.544480238206094E-020
  -83.7200000000000        -5.149667638722799E-021
  -83.5300000000000        -2.425026102905237E-020
  -83.3400000000000        -3.649188755087473E-020
  -83.1500000000000        -3.848763303015982E-020
  -82.9600000000000        -2.981000037488264E-020
  -82.7700000000000        -1.311042028155018E-020
  -82.5800000000000         6.656596428795504E-021
  -82.3900000000000         2.367713747228657E-020
  -82.2000000000000         3.296902704103623E-020
  -82.0100000000000         3.182979295382853E-020
  -81.8200000000000         2.062174957226179E-020
  -81.6300000000000         2.666010836840252E-021
  -81.4400000000000        -1.672492241304154E-020
  -81.2500000000000        -3.179597377867798E-020
  -81.0600000000000        -3.802934824318462E-020
  -80.8700000000000        -3.346547057614323E-020
  -80.6800000000000        -1.927932428588199E-020
  -80.4900000000000         5.553874656896910E-022
  -80.3000000000000         2.041515036539342E-020
  -80.1100000000000         3.465356920974319E-020
  -79.9200000000000         3.923432926406884E-020
  -79.7300000000000         3.289814452496535E-020
  -79.5400000000000         1.752694022275875E-020
  -79.3500000000000        -2.400306367769773E-021
  -79.1600000000000        -2.110431184618468E-020
  -78.9700000000000        -3.318123265270195E-020
  -78.7800000000000        -3.517179002706773E-020
  -78.5900000000000        -2.656623776994684E-020
  -78.4000000000000        -9.950487741186968E-021
  -78.2100000000000         9.750255150072063E-021
  -78.0200000000000         2.670950527226211E-020
  -77.8300000000000         3.589931056562749E-020
  -77.6400000000000         3.455693123256838E-020
  -77.4500000000000         2.299297800124645E-020
  -77.2600000000000         4.507553236759297E-021
  -77.0700000000000        -1.556160459596590E-020
  -76.8800000000000        -3.138545280857781E-020
  -76.6900000000000        -3.833897723505510E-020
  -76.5000000000000        -3.435431556162636E-020
  -76.3100000000000        -2.053589320559688E-020
  -76.1200000000000        -8.535918534432353E-022
  -75.9300000000000         1.900157366427625E-020
  -75.7400000000000         3.326812270748569E-020
  -75.5500000000000         3.778934648313326E-020
  -75.3600000000000         3.122340556670109E-020
  -75.1700000000000         1.543595465657306E-020
  -74.9800000000000        -5.037004912979795E-021
  -74.7900000000000        -2.429814385793358E-020
  -74.6000000000000        -3.678989569173998E-020
  -74.4100000000000        -3.889655767630853E-020
  -74.2200000000000        -2.998605762862084E-020
  -74.0300000000000        -1.259144608413375E-020
  -73.8400000000000         8.320701949655968E-021
  -73.6500000000000         2.678466316645405E-020
  -73.4600000000000         3.755832764733717E-020
  -73.2700000000000         3.763506398187994E-020
  -73.0800000000000         2.710621449871759E-020
  -72.8900000000000         9.124951769859948E-021
  -72.7000000000000        -1.101636027634139E-020
  -72.5100000000000        -2.742639538834938E-020
  -72.3200000000000        -3.532595161095053E-020
  -72.1300000000000        -3.243485977823362E-020
  -71.9400000000000        -1.963373996820907E-020
  -71.7500000000000        -7.084235292416304E-022
  -71.5600000000000         1.875077608533595E-020
  -71.3700000000000         3.297742461166659E-020
  -71.1800000000000         3.771208387233712E-020
  -70.9900000000000         3.144912033573287E-020
  -70.8000000000000         1.588251586065511E-020
  -70.6100000000000        -4.579645332886289E-021
  -70.4200000000000        -2.408970840386323E-020
  -70.2300000000000        -3.705202207514308E-020
  -70.0400000000000        -3.974035694634493E-020
  -69.8500000000000        -3.137423668913075E-020
  -69.6600000000000        -1.434513545608931E-020
  -69.4700000000000         6.471935810486895E-021
  -69.2800000000000         2.512379609825933E-020
  -69.0900000000000         3.629736425462143E-020
  -68.9000000000000         3.685487195529578E-020
  -68.7100000000000         2.674028629551090E-020
  -68.5200000000000         8.991335866046237E-021
  -68.3300000000000        -1.114855725502929E-020
  -68.1400000000000        -2.776004934796303E-020
  -67.9500000000000        -3.597222601692442E-020
  -67.7600000000000        -3.337842509248081E-020
  -67.5700000000000        -2.073283911448697E-020
  -67.3800000000000        -1.728357453368817E-021
  -67.1900000000000         1.807721771084139E-020
  -67.0000000000000         3.287439005539210E-020
  -66.8100000000000         3.828837207656093E-020
  -66.6200000000000         3.265195884352963E-020
  -66.4300000000000         1.749635249038567E-020
  -66.2400000000000        -2.884407015674947E-021
  -66.0500000000000        -2.267194507606780E-020
  -65.8600000000000        -3.620708726847842E-020
  -65.6700000000000        -3.962926930747809E-020
  -65.4800000000000        -3.199460292748715E-020
  -65.2900000000000        -1.554737549481398E-020
  -65.1000000000000         4.933204674608965E-021
  -64.9100000000000         2.352018895017240E-020
  -64.7200000000000         3.485708260184344E-020
  -64.5300000000000         3.570968174630325E-020
  -64.3400000000000         2.590280519088467E-020
  -64.1500000000000         8.370248446188091E-021
  -63.9600000000000        -1.169783524411539E-020
  -63.7700000000000        -2.836383400582700E-020
  -63.5800000000000        -3.666962805639568E-020
  -63.3900000000000        -3.407876235607770E-020
  -63.2000000000000        -2.121375663580686E-020
  -63.0100000000000        -1.674917098297233E-021
  -62.8200000000000         1.900399433470176E-020
  -62.6300000000000         3.495691829418964E-020
  -62.4400000000000         4.167816555578614E-020
  -62.2500000000000         3.731820008642586E-020
  -62.0600000000000         2.321050545254743E-020
  -61.8700000000000         3.478781423946145E-021
  -61.6800000000000        -1.616241108216780E-020
  -61.4900000000000        -3.006813748386924E-020
  -61.3000000000000        -3.430456807153209E-020
  -61.1100000000000        -2.779379952210537E-020
  -60.9200000000000        -1.262605875036068E-020
  -60.7300000000000         6.554285345834020E-021
  -60.5400000000000         2.391025145357609E-020
  -60.3500000000000         3.412276253015595E-020
  -60.1600000000000         3.395004331764503E-020
  -59.9700000000000         2.318157497522924E-020
  -59.7800000000000         4.710232948532566E-021
  -59.5900000000000        -1.629703695064278E-020
  -59.4000000000000        -3.388929105428142E-020
  -59.2100000000000        -4.305190796189493E-020
  -59.0200000000000        -4.116008385530429E-020
  -58.8300000000000        -2.874382027684273E-020
  -58.6400000000000        -9.340333552689744E-021
  -58.4500000000000         1.152563206105079E-020
  -58.2600000000000         2.793858215824156E-020
  -58.0700000000000         3.530200114840379E-020
  -57.8800000000000         3.166354934103379E-020
  -57.6900000000000         1.827101858274298E-020
  -57.5000000000000        -8.003239506242991E-022
  -57.3100000000000        -1.983812843518141E-020
  -57.1200000000000        -3.315458957945588E-020
  -56.9300000000000        -3.673830652935975E-020
  -56.7400000000000        -2.941867254988740E-020
  -56.5500000000000        -1.320544199319866E-020
  -56.3600000000000         7.295451957425483E-021
  -56.1700000000000         2.622063874418977E-020
  -55.9800000000000         3.815357886499956E-020
  -55.7900000000000         3.969805723495173E-020
  -55.6000000000000         3.046236824571521E-020
  -55.4100000000000         1.316864478608259E-020
  -55.2200000000000        -7.141659904803755E-021
  -55.0300000000000        -2.457249216596953E-020
  -54.8400000000000        -3.408257816200548E-020
  -54.6500000000000        -3.294578500425414E-020
  -54.4600000000000        -2.154160970987665E-020
  -54.2700000000000        -3.247354048584287E-021
  -54.0800000000000         1.653886250193595E-020
  -53.8900000000000         3.196476434540032E-020
  -53.7000000000000         3.842830293689637E-020
  -53.5100000000000         3.392392459743171E-020
  -53.3200000000000         1.963585879091620E-020
  -53.1300000000000        -3.973797101312322E-022
  -52.9400000000000        -2.045071164877300E-020
  -52.7500000000000        -3.477202975439950E-020
  -52.5600000000000        -3.925002604188105E-020
  -52.3700000000000        -3.260580069366769E-020
  -52.1800000000000        -1.676392021921869E-020
  -51.9900000000000         3.702900487631112E-021
  -51.8000000000000         2.289462337721037E-020
  -51.6100000000000         3.528968797223551E-020
  -51.4200000000000         3.734350842327953E-020
  -51.2300000000000         2.851617479678340E-020
  -51.0400000000000         1.142935834813933E-020
  -50.8500000000000        -8.895285212975766E-021
  -50.6600000000000        -2.649618762171077E-020
  -50.4700000000000        -3.620577784787764E-020
  -50.2800000000000        -3.515308516543953E-020
  -50.0900000000000        -2.359823192538276E-020
  -49.9000000000000        -4.858198722067387E-021
  -49.7100000000000         1.565255802528539E-020
  -49.5200000000000         3.198814262974866E-020
  -49.3300000000000         3.939136184070112E-020
  -49.1400000000000         3.567089182185635E-020
  -48.9500000000000         2.183674972864230E-020
  -48.7600000000000         1.809097210785296E-021
  -48.5700000000000        -1.871660844229920E-020
  -48.3800000000000        -3.391963233775842E-020
  -48.1900000000000        -3.953930291194015E-020
  -48.0000000000000        -3.410486841631367E-020
  -47.8100000000000        -1.935297131557243E-020
  -47.6200000000000         2.862461226765838E-022
  -47.4300000000000         1.898298987720661E-020
  -47.2400000000000         3.120557921729013E-020
  -47.0500000000000         3.333070224691056E-020
  -46.8600000000000         2.470078078014920E-020
  -46.6700000000000         7.822211385060040E-021
  -46.4800000000000        -1.235520371914672E-020
  -46.2900000000000        -2.987222578536994E-020
  -46.1000000000000        -3.949320782458471E-020
  -45.9100000000000        -3.823346999918332E-020
  -45.7200000000000        -2.623444193423576E-020
  -45.5300000000000        -6.730714670144377E-021
  -45.3400000000000         1.488080268749099E-020
  -45.1500000000000         3.259708220473824E-020
  -44.9600000000000         4.153667995775848E-020
  -44.7700000000000         3.933804832030061E-020
  -44.5800000000000         2.682662268892268E-020
  -44.3900000000000         7.761675423339643E-021
  -44.2000000000000        -1.226190276759784E-020
  -44.0100000000000        -2.743944143026691E-020
  -43.8200000000000        -3.343972433739651E-020
  -43.6300000000000        -2.865746799144270E-020
  -43.4400000000000        -1.467088849024341E-020
  -43.2500000000000         4.229209963137354E-021
  -43.0600000000000         2.230169283658873E-020
  -42.8700000000000         3.403961576198280E-020
  -42.6800000000000         3.578434943921068E-020
  -42.4900000000000         2.679902009163424E-020
  -42.3000000000000         9.490789036391495E-021
  -42.1100000000000        -1.128074427227555E-020
  -41.9200000000000        -2.960788771469979E-020
  -41.7300000000000        -4.024531415433502E-020
  -41.5400000000000        -4.013142413739268E-020
  -41.3500000000000        -2.927947219051009E-020
  -41.1600000000000        -1.077856058488866E-020
  -40.9700000000000         1.009808524705865E-020
  -40.7800000000000         2.741973565227225E-020
  -40.5900000000000         3.631508330692037E-020
  -40.4000000000000         3.437904950215439E-020
  -40.2100000000000         2.236085118123037E-020
  -40.0200000000000         3.935165580690203E-021
  -39.8300000000000        -1.537523836876532E-020
  -39.6400000000000        -2.981143372674012E-020
  -39.4500000000000        -3.505697859810675E-020
  -39.2600000000000        -2.949695567476583E-020
  -39.0700000000000        -1.469187179730500E-020
  -38.8800000000000         5.073554985610518E-021
  -38.6900000000000         2.403852449999486E-020
  -38.5000000000000         3.664868033493646E-020
  -38.3100000000000         3.918088149719849E-020
  -38.1200000000000         3.083384792454917E-020
  -37.9300000000000         1.396507356163281E-020
  -37.7400000000000        -6.594597469864283E-021
  -37.5500000000000        -2.494650252423741E-020
  -37.3600000000000        -3.583794617392548E-020
  -37.1700000000000        -3.618581945312574E-020
  -36.9800000000000        -2.597016499620691E-020
  -36.7900000000000        -8.240647844459443E-021
  -36.6000000000000         1.176639322258749E-020
  -36.4100000000000         2.814651715664349E-020
  -36.2200000000000         3.604294228058881E-020
  -36.0300000000000         3.306225558157068E-020
  -35.8400000000000         1.997770370380252E-020
  -35.6500000000000         5.129907451503979E-022
  -35.4600000000000        -1.973264944230668E-020
  -35.2700000000000        -3.490561945915368E-020
  -35.0800000000000        -4.059357538431887E-020
  -34.8900000000000        -3.510380632368950E-020
  -34.7000000000000        -1.995525588801165E-020
  -34.5100000000000         5.572460351238634E-022
  -34.3200000000000         2.060041102630906E-020
  -34.1300000000000         3.448465460082575E-020
  -33.9400000000000         3.830619951755229E-020
  -33.7500000000000         3.107494030837251E-020
  -33.5600000000000         1.500002717960644E-020
  -33.3700000000000        -5.152364762636226E-021
  -33.1800000000000        -2.344405232045750E-020
  -32.9900000000000        -3.448989648258561E-020
  -32.8000000000000        -3.502126621727439E-020
  -32.6100000000000        -2.483428195720604E-020
  -32.4200000000000        -6.848457250273012E-021
  -32.2300000000000         1.374020447640297E-020
  -32.0400000000000         3.096516603446016E-020
  -31.8500000000000         3.981823398330314E-020
  -31.6600000000000         3.770184999245003E-020
  -31.4700000000000         2.518419205639457E-020
  -31.2800000000000         5.836053583010823E-021
  -31.0900000000000        -1.480555199968017E-020
  -30.9000000000000        -3.084642052887654E-020
  -30.7100000000000        -3.774776107947499E-020
  -30.5200000000000        -3.364274755140925E-020
  -30.3300000000000        -1.987342270481054E-020
  -30.1400000000000        -5.930465613897963E-022
  -29.9500000000000         1.844750047703464E-020
  -29.7600000000000         3.157441832833370E-020
  -29.5700000000000         3.484157686000973E-020
  -29.3800000000000         2.718119929349304E-020
  -29.1900000000000         1.072266977751574E-020
  -29.0000000000000        -9.814246050390752E-021
  -28.8100000000000        -2.847906492192063E-020
  -28.6200000000000        -3.981212436236733E-020
  -28.4300000000000        -4.043002212893933E-020
  -28.2400000000000        -3.001332254952516E-020
  -28.0500000000000        -1.140679801598114E-020
  -27.8600000000000         1.019823524983222E-020
  -27.6700000000000         2.876089730881989E-020
  -27.4800000000000         3.913105895965619E-020
  -27.2900000000000         3.852827987026644E-020
  -27.1000000000000         2.733227280343980E-020
  -26.9100000000000         8.958320262047842E-021
  -26.7200000000000        -1.114388768736207E-020
  -26.5300000000000        -2.707710236436846E-020
  -26.3400000000000        -3.421000096804034E-020
  -26.1500000000000        -3.052082036196931E-020
  -25.9600000000000        -1.717987963875461E-020
  -25.7700000000000         1.799414310767690E-021
  -25.5800000000000         2.073869514035258E-020
  -25.3900000000000         3.395697904232686E-020
  -25.2000000000000         3.743194127073267E-020
  -25.0100000000000         2.997647874158578E-020
  -24.8200000000000         1.358944833202492E-020
  -24.6300000000000        -7.119105222500161E-021
  -24.4400000000000        -2.625962700207930E-020
  -24.2500000000000        -3.836599472990125E-020
  -24.0600000000000        -3.997803765721636E-020
  -23.8700000000000        -3.064542870488502E-020
  -23.6800000000000        -1.306026039490136E-020
  -23.4900000000000         7.722025056611464E-021
  -23.3000000000000         2.574795995566205E-020
  -23.1100000000000         3.589164387117502E-020
  -22.9200000000000         3.533800045955136E-020
  -22.7300000000000         2.439182654804856E-020
  -22.5400000000000         6.378959366970111E-021
  -22.3500000000000        -1.332843171094655E-020
  -22.1600000000000        -2.887735198241107E-020
  -21.9700000000000        -3.563692710277092E-020
  -21.7800000000000        -3.154701832589326E-020
  -21.5900000000000        -1.772239128386977E-020
  -21.4000000000000         1.863741070115097E-021
  -21.2100000000000         2.152761289214805E-020
  -21.0200000000000         3.552419680455896E-020
  -20.8300000000000         3.972005825321839E-020
  -20.6400000000000         3.280141609560242E-020
  -20.4500000000000         1.666283971968827E-020
  -20.2600000000000        -4.137576068758728E-021
  -20.0700000000000        -2.369694435798095E-020
  -19.8800000000000        -3.647569021639827E-020
  -19.6900000000000        -3.889870356806576E-020
  -19.5000000000000        -3.038549617466707E-020
  -19.3100000000000        -1.351197427212118E-020
  -19.1200000000000         6.741771273231836E-021
  -18.9300000000000         2.443989366083001E-020
  -18.7400000000000         3.441692186114956E-020
  -18.5500000000000         3.378099388206841E-020
  -18.3600000000000         2.275583479166810E-020
  -18.1700000000000         4.614867835726520E-021
  -17.9800000000000        -1.527374059101248E-020
  -17.7900000000000        -3.101257876320877E-020
  -17.6000000000000        -3.789468309805468E-020
  -17.4100000000000        -3.377664860308346E-020
  -17.2200000000000        -1.970641860530361E-020
  -17.0300000000000         3.752225769044158E-022
  -16.8400000000000         2.077220886579008E-020
  -16.6500000000000         3.568107484634821E-020
  -16.4600000000000         4.087268160446767E-020
  -16.2700000000000         3.491941155761001E-020
  -16.0800000000000         1.960941805700036E-020
  -15.8900000000000        -5.744882011872949E-022
  -15.7000000000000        -1.976051878407201E-020
  -15.5100000000000        -3.239716298409491E-020
  -15.3200000000000        -3.486623219646939E-020
  -15.1300000000000        -2.652913116784998E-020
  -14.9400000000000        -9.904190601081676E-021
  -14.7500000000000         1.007222376512145E-020
  -14.5600000000000         2.748324690685533E-020
  -14.3700000000000         3.715029661988979E-020
  -14.1800000000000         3.613608182459345E-020
  -13.9900000000000         2.459782164414332E-020
  -13.8000000000000         5.744167694977399E-021
  -13.6100000000000        -1.509262807946398E-020
  -13.4200000000000        -3.200188559415540E-020
  -13.2300000000000        -4.020843830396554E-020
  -13.0400000000000        -3.745527214538514E-020
  -12.8500000000000        -2.465165438666777E-020
  -12.6600000000000        -5.600139028257437E-021
  -12.4700000000000         1.411450837210806E-020
  -12.2800000000000         2.874868763580403E-020
  -12.0900000000000         3.406351488478093E-020
  -11.9000000000000         2.854783475972130E-020
  -11.7100000000000         1.385007064516942E-020
  -11.5200000000000        -5.703015495533974E-021
  -11.3300000000000        -2.436128495984713E-020
  -11.1400000000000        -3.661862851127249E-020
  -10.9500000000000        -3.881118263196251E-020
  -10.7600000000000        -3.018282433841513E-020
  -10.5700000000000        -1.310797131925959E-020
  -10.3800000000000         7.593974203881998E-021
  -10.1900000000000         2.605435747643711E-020
  -10.0000000000000         3.705598692375735E-020
  -9.81000000000000         3.754463201993627E-020
  -9.62000000000000         2.751291317727840E-020
  -9.42999999999999         1.000087844477031E-020
  -9.23999999999999        -9.787690377800712E-021
  -9.05000000000000        -2.599935631091747E-020
  -8.86000000000000        -3.383773130951534E-020
  -8.67000000000000        -3.096627447302022E-020
  -8.48000000000000        -1.819673737463283E-020
  -8.28999999999999         7.403036881750275E-022
  -8.09999999999999         2.027874992342708E-020
  -7.91000000000000         3.463919539609759E-020
  -7.72000000000000         3.951578263672276E-020
  -7.53000000000000         3.333496939435037E-020
  -7.34000000000000         1.772081790639237E-020
  -7.15000000000001        -2.966492463215994E-021
  -6.95999999999999        -2.288450926101922E-020
  -6.77000000000000        -3.639232669167617E-020
  -6.58000000000000        -3.967798068878890E-020
  -6.39000000000000        -3.185898273941551E-020
  -6.20000000000000        -1.523681050815736E-020
  -6.01000000000001         5.370663491428648E-021
  -5.81999999999999         2.402766643278038E-020
  -5.63000000000000         3.540384433749183E-020
  -5.44000000000000         3.631912152431745E-020
  -5.25000000000000         2.665919674257031E-020
  -5.06000000000000         9.396494203705361E-021
  -4.87000000000000        -1.028672906160710E-020
  -4.67999999999999        -2.651555572259524E-020
  -4.48999999999999        -3.443781318956466E-020
  -4.30000000000000        -3.164056901041952E-020
  -4.11000000000000        -1.885888903138323E-020
  -3.92000000000000         2.280745659435858E-022
  -3.73000000000000         2.005691711122800E-020
  -3.53999999999999         3.479165735990281E-020
  -3.34999999999999         4.002105819677450E-020
  -3.16000000000000         3.404800410463723E-020
  -2.97000000000000         1.839435952531964E-020
  -2.78000000000000        -2.627708673321490E-021
  -2.59000000000000        -2.315476755840189E-020
  -2.40000000000001        -3.746137563451401E-020
  -2.20999999999999        -4.160879374058106E-020
  -2.02000000000000        -3.457614898049605E-020
  -1.83000000000000        -1.854808683005373E-020
  -1.64000000000000         1.724066977452658E-021
  -1.45000000000000         2.030366178692154E-020
  -1.26000000000001         3.179306171108966E-020
  -1.06999999999999         3.290077098586224E-020
 -0.879999999999995         2.339567591460380E-020
 -0.689999999999998         6.169670335123001E-021
 -0.500000000000000        -1.361079878064987E-020
 -0.310000000000002        -3.001650512823552E-020
 -0.120000000000005        -3.808788091449887E-020
  7.000000000000739E-002   -3.528264424628361E-020
  0.260000000000005        -2.221908769459121E-020
  0.450000000000003        -2.501386947947228E-021
  0.640000000000001         1.832125273261736E-020
  0.829999999999998         3.435990260162355E-020
   1.02000000000000         4.109124516241075E-020
   1.21000000000001         3.666955590986884E-020
   1.40000000000001         2.246407895484554E-020
   1.59000000000000         2.662655783995045E-021
   1.78000000000000        -1.694629911967577E-020
   1.97000000000000        -3.065945804607322E-020
   2.16000000000000        -3.451936621546012E-020
   2.34999999999999        -2.746533026962284E-020
   2.54000000000001        -1.163927180455619E-020
   2.73000000000000         8.241359269160774E-021
   2.92000000000000         2.625932805181752E-020
   3.11000000000000         3.702095151072709E-020
   3.30000000000000         3.722761412544422E-020
   3.48999999999999         2.664148105441129E-020
   3.68000000000001         8.165280601308229E-021
   3.87000000000000        -1.298949659950076E-020
   4.06000000000000        -3.080711320510664E-020
   4.25000000000000        -4.020892495317518E-020
   4.44000000000000        -3.852546337257586E-020
   4.63000000000000        -2.627052101498214E-020
   4.82000000000001        -6.991309750841065E-021
   5.01000000000001         1.376102529735882E-020
   5.20000000000000         3.003901351307777E-020
   5.39000000000000         3.721656904800599E-020
   5.58000000000000         3.332017740627663E-020
   5.77000000000000         1.959038237293653E-020
   5.96000000000001         1.123529181585219E-022
   6.15000000000001        -1.937686522287106E-020
   6.34000000000000        -3.315818781821054E-020
   6.53000000000000        -3.719290043168789E-020