  -105.000000000000         4.960162652109818E-020
  -104.810000000000         1.367731332156352E-019
  -104.620000000000         1.918937156267706E-019
  -104.430000000000         2.045981440105689E-019
  -104.240000000000         1.763659356582921E-019
  -104.050000000000         1.199765239576656E-019
  -103.860000000000         5.571329012393218E-020
  -103.670000000000         5.420437066854235E-021
  -103.480000000000        -1.385910432758752E-020
  -103.290000000000         5.183993816839918E-021
  -103.100000000000         5.805221381754817E-020
  -102.910000000000         1.298207315434323E-019
  -102.720000000000         1.995581992363532E-019
  -102.530000000000         2.464965615667289E-019
  -102.340000000000         2.561552059356620E-019
  -102.150000000000         2.246415873286078E-019
  -101.960000000000         1.598788640303602E-019
  -101.770000000000         7.939920325884893E-020
  -101.580000000000         5.335730999119433E-021
  -101.390000000000        -4.193897853109256E-020
  -101.200000000000        -4.968187109567642E-020
  -101.010000000000        -1.644824970729145E-020
  -100.820000000000         4.750858909955938E-020
  -100.630000000000         1.232230569082942E-019
  -100.440000000000         1.885180768874522E-019
  -100.250000000000         2.244214010307945E-019
  -100.060000000000         2.206371178083519E-019
  -99.8700000000000         1.784914725616385E-019
  -99.6800000000000         1.105063739222571E-019
  -99.4900000000000         3.672911946214172E-020
  -99.3000000000000        -2.111684683640830E-020
  -99.1100000000000        -4.596523267290534E-020
  -98.9200000000000        -3.038666359731940E-020
  -98.7300000000000         2.123372503060094E-020
  -98.5400000000000         9.395734060628115E-020
  -98.3500000000000         1.666269089039008E-019
  -98.1600000000000         2.180127666355438E-019
  -97.9700000000000         2.329801045844061E-019
  -97.7800000000000         2.068825595109577E-019
  -97.5900000000000         1.469070677426604E-019
  -97.4000000000000         6.998316998662189E-020
  -97.2100000000000        -2.133158709237842E-021
  -97.0200000000000        -4.917351363610271E-020
  -96.8300000000000        -5.823687308659364E-020
  -96.6400000000000        -2.752774138255152E-020
  -96.4500000000000         3.313559963253603E-020
  -96.2600000000000         1.051934631664909E-019
  -96.0700000000000         1.667637271463948E-019
  -95.8800000000000         1.990293173544908E-019
  -95.6900000000000         1.917322927326807E-019
  -95.5000000000000         1.461733830673000E-019
  -95.3100000000000         7.484421564034763E-020
  -95.1200000000000        -2.199342990177016E-021
  -94.9300000000000        -6.316747359600616E-020
  -94.7400000000000        -9.087654476563974E-020
  -94.5500000000000        -7.775751174801269E-020
  -94.3600000000000        -2.807510231437652E-020
  -94.1700000000000         4.329341728424869E-020
  -93.9800000000000         1.151730070723665E-019
  -93.7900000000000         1.662498264587156E-019
  -93.6000000000000         1.812822202429121E-019
  -93.4100000000000         1.555510376059002E-019
  -93.2200000000000         9.624864201353594E-020
  -93.0300000000000         2.040089455029911E-020
  -92.8400000000000        -5.007121286219589E-020
  -92.6500000000000        -9.471265260573680E-020
  -92.4600000000000        -1.004720352439316E-019
  -92.2700000000000        -6.549730139116990E-020
  -92.0800000000000         3.070590700261498E-022
  -91.8900000000000         7.812196563907844E-020
  -91.7000000000000         1.456338320861432E-019
  -91.5100000000000         1.834649005766833E-019
  -91.3200000000000         1.807502943191075E-019
  -91.1300000000000         1.382428884571842E-019
  -90.9400000000000         6.804492461056414E-020
  -90.7500000000000        -9.951195175892127E-021
  -90.5600000000000        -7.386991078312634E-020
  -90.3700000000000        -1.062101095133069E-019
  -90.1800000000000        -9.890084727175122E-020
  -89.9900000000000        -5.558959362493045E-020
  -89.8000000000000         9.491085656663802E-021
  -89.6100000000000         7.573693916287322E-020
  -89.4200000000000         1.222340537309756E-019
  -89.2300000000000         1.339076380765631E-019
  -89.0400000000000         1.059739388129791E-019
  -88.8500000000000         4.540360665871405E-020
  -88.6600000000000        -3.102972969598712E-020
  -88.4700000000000        -1.015518740431002E-019
  -88.2800000000000        -1.456510718029691E-019
  -88.0900000000000        -1.499901041117949E-019
  -87.9000000000000        -1.122621865599749E-019
  -87.7100000000000        -4.188441373186607E-020
  -87.5200000000000         4.266353197149603E-020
  -87.3300000000000         1.190840091482873E-019
  -87.1400000000000         1.675796018552375E-019
  -86.9500000000000         1.764307004533745E-019
  -86.7600000000000         1.452340761088938E-019
  -86.5700000000000         8.487899588148905E-020
  -86.3800000000000         1.427855028978075E-020
  -86.1900000000000        -4.519001939049552E-020
  -86.0000000000000        -7.592184983082471E-020
  -85.8100000000000        -6.919060177290478E-020
  -85.6200000000000        -2.764778985378726E-020
  -85.4300000000000         3.550224426423519E-020
  -85.2400000000000         1.004041219413051E-019
  -85.0500000000000         1.463932144127517E-019
  -84.8600000000000         1.580844151803141E-019
  -84.6700000000000         1.299474952910961E-019
  -84.4800000000000         6.804403839477785E-020
  -84.2900000000000        -1.158677969495805E-020
  -84.1000000000000        -8.744521648783787E-020
  -83.9100000000000        -1.387026362841318E-019
  -83.7200000000000        -1.511828651084944E-019
  -83.5300000000000        -1.214592673504010E-019
  -83.3400000000000        -5.787163279971327E-020
  -83.1500000000000         2.184167332352626E-020
  -82.9600000000000         9.561836715375687E-020
  -82.7700000000000         1.433906233942116E-019
  -82.5800000000000         1.528233906443637E-019
  -82.3900000000000         1.228150231680742E-019
  -82.2000000000000         6.374738850356004E-020
  -82.0100000000000        -5.588812653602831E-021
  -81.8200000000000        -6.350548082083797E-020
  -81.6300000000000        -9.176927159824108E-020
  -81.4400000000000        -8.094998628054023E-020
  -81.2500000000000        -3.320553308711455E-020
  -81.0600000000000         3.831662468653661E-020
  -80.8700000000000         1.132971279741610E-019
  -80.6800000000000         1.701725269748625E-019
  -80.4900000000000         1.924395949108354E-019
  -80.3000000000000         1.734879740847365E-019
  -80.1100000000000         1.185456999868282E-019
  -79.9200000000000         4.317118588379450E-020
  -79.7300000000000        -3.126463385460770E-020
  -79.5400000000000        -8.378714416386072E-020
  -79.3500000000000        -9.990845759603907E-020
  -79.1600000000000        -7.582270608274866E-020
  -78.9700000000000        -1.947869729170492E-020
  -78.7800000000000         5.178641969529607E-020
  -78.5900000000000         1.163602092045771E-019
  -78.4000000000000         1.547149572989983E-019
  -78.2100000000000         1.551485784222042E-019
  -78.0200000000000         1.172225904391555E-019
  -77.8300000000000         5.188879741635135E-020
  -77.6400000000000        -2.173291700936469E-020
  -77.4500000000000        -8.197980812429968E-020
  -77.2600000000000        -1.110206182908942E-019
  -77.0700000000000        -1.001036684200974E-019
  -76.8800000000000        -5.213636287504864E-020
  -76.6900000000000         1.915804407702486E-020
  -76.5000000000000         9.325321470351352E-020
  -76.3100000000000         1.488197087904807E-019
  -76.1200000000000         1.699497157625820E-019
  -75.9300000000000         1.507822785635954E-019
  -75.7400000000000         9.718111876921265E-020
  -75.5500000000000         2.499065475725274E-020
  -75.3600000000000        -4.459762884263675E-020
  -75.1700000000000        -9.119969756538067E-020
  -74.9800000000000        -1.011218113003972E-019
  -74.7900000000000        -7.127857586895544E-020
  -74.6000000000000        -1.003276779717234E-020
  -74.4100000000000         6.526790233815718E-020
  -74.2200000000000         1.333335105655120E-019
  -74.0300000000000         1.750880257200927E-019
  -73.8400000000000         1.791511165654013E-019
  -73.6500000000000         1.450568425073645E-019
  -73.4600000000000         8.328502614356062E-020
  -73.2700000000000         1.211470990519351E-020
  -73.0800000000000        -4.776460808894167E-020
  -72.8900000000000        -7.930012908896421E-020
  -72.7000000000000        -7.401562937773447E-020
  -72.5100000000000        -3.441496706062938E-020
  -72.3200000000000         2.682722787714124E-020
  -72.1300000000000         9.062390904776302E-020
  -71.9400000000000         1.370723451838085E-019
  -71.7500000000000         1.512669416152611E-019
  -71.5600000000000         1.276626777294446E-019
  -71.3700000000000         7.174713404559179E-020
  -71.1800000000000        -1.454666740657615E-021
  -70.9900000000000        -7.161983387047097E-020
  -70.8000000000000        -1.189062318900936E-019
  -70.6100000000000        -1.296217033622015E-019
  -70.4200000000000        -1.001632322187019E-019
  -70.2300000000000        -3.809718407819508E-020
  -70.0400000000000         3.993568748233490E-020
  -69.8500000000000         1.129045560605369E-019
  -69.6600000000000         1.613355344471685E-019
  -69.4700000000000         1.728239201433992E-019
  -69.2800000000000         1.455261011799775E-019
  -69.0900000000000         8.861918590032490E-020
  -68.9000000000000         1.959117708241037E-020
  -68.7100000000000        -4.085674617004848E-020
  -68.5200000000000        -7.482327132942474E-020
  -68.3300000000000        -7.239984616607080E-020
  -68.1400000000000        -3.454543462516497E-020
  -67.9500000000000         2.718753542537031E-020
  -67.7600000000000         9.400053649312217E-020
  -67.5700000000000         1.453090824310628E-019
  -67.3800000000000         1.647473198675361E-019
  -67.1900000000000         1.449926937267130E-019
  -67.0000000000000         9.002144738535825E-020
  -66.8100000000000         1.413125010467295E-020
  -66.6200000000000        -6.201920688051747E-020
  -66.4300000000000        -1.172500430946633E-019
  -66.2400000000000        -1.359191604302926E-019
  -66.0500000000000        -1.124496528513100E-019
  -65.8600000000000        -5.299535970350894E-020
  -65.6700000000000         2.626466274404256E-020
  -65.4800000000000         1.037303343663437E-019
  -65.2900000000000         1.585615991609547E-019
  -65.1000000000000         1.766483382272431E-019
  -64.9100000000000         1.546339254314666E-019
  -64.7200000000000         1.008154070846066E-019
  -64.5300000000000         3.264918504459276E-020
  -64.3400000000000        -2.841697495319943E-020
  -64.1500000000000        -6.327990269139302E-020
  -63.9600000000000        -6.083574605455272E-020
  -63.7700000000000        -2.130210221392991E-020
  -63.5800000000000         4.376696366819093E-020
  -63.3900000000000         1.147897901719808E-019
  -63.2000000000000         1.698412702955266E-019
  -63.0100000000000         1.910671310614322E-019
  -62.8200000000000         1.699613424971901E-019
  -62.6300000000000         1.099632461965437E-019
  -62.4400000000000         2.560665154025012E-020
  -62.2500000000000        -6.154861952475206E-020
  -62.0600000000000        -1.290414934157931E-019
  -61.8700000000000        -1.599295195787854E-019
  -61.6800000000000        -1.476426336870730E-019
  -61.4900000000000        -9.784505934008921E-020
  -61.3000000000000        -2.673929085211718E-020
  -61.1100000000000         4.371048113926540E-020
  -60.9200000000000         9.224101652026977E-020
  -60.7300000000000         1.045367485231483E-019
  -60.5400000000000         7.741944173924676E-020
  -60.3500000000000         1.974934809532805E-020
  -60.1600000000000        -5.022108549414483E-020
  -59.9700000000000        -1.102546717942242E-019
  -59.7800000000000        -1.407024781099273E-019
  -59.5900000000000        -1.303122553759954E-019
  -59.4000000000000        -7.957871319372546E-020
  -59.2100000000000        -6.712538305237561E-022
  -59.0200000000000         8.602728643128551E-020
  -58.8300000000000         1.577629569001083E-019
  -58.6400000000000         1.959475442870951E-019
  -58.4500000000000         1.915046443555145E-019
  -58.2600000000000         1.474763099874782E-019
  -58.0700000000000         7.812573554143285E-020
  -57.8800000000000         4.785561014170842E-021
  -57.6900000000000        -5.034792770316776E-020
  -57.5000000000000        -7.066952903358006E-020
  -57.3100000000000        -4.998526446222050E-020
  -57.1200000000000         5.713640552496421E-021
  -56.9300000000000         8.004772111869221E-020
  -56.7400000000000         1.510941977735875E-019
  -56.5500000000000         1.978536672295952E-019
  -56.3600000000000         2.064274389954349E-019
  -56.1700000000000         1.740819648151616E-019
  -55.9800000000000         1.100123127865732E-019
  -55.7900000000000         3.260105072411585E-020
  -55.6000000000000        -3.600050691730302E-020
  -55.4100000000000        -7.636946267046549E-020
  -55.2200000000000        -7.749029145859068E-020
  -55.0300000000000        -3.997123668624067E-020
  -54.8400000000000         2.412493589846839E-020
  -54.6500000000000         9.477960629930770E-020
  -54.4600000000000         1.498340662078744E-019
  -54.2700000000000         1.714475148558560E-019
  -54.0800000000000         1.513364900391898E-019
  -53.8900000000000         9.327527402888191E-020
  -53.7000000000000         1.211251677048223E-020
  -53.5100000000000        -7.043811996343569E-020
  -53.3200000000000        -1.320273574324039E-019
  -53.1300000000000        -1.561044865446492E-019
  -52.9400000000000        -1.366681696820041E-019
  -52.7500000000000        -7.994229846962465E-020
  -52.5600000000000        -2.500111230041706E-021
  -52.3700000000000         7.359045674379098E-020
  -52.1800000000000         1.271595658945311E-019
  -51.9900000000000         1.439929130577275E-019
  -51.8000000000000         1.208008177003006E-019
  -51.6100000000000         6.597520138716708E-020
  -51.4200000000000        -3.043359245614455E-021
  -51.2300000000000        -6.498481469985024E-020
  -51.0400000000000        -1.010185928168413E-019
  -50.8500000000000        -1.002547129057744E-019
  -50.6600000000000        -6.289774112783750E-020
  -50.4700000000000        -1.556957461133118E-022
  -50.2800000000000         6.906172411124359E-020
  -50.0900000000000         1.236972748822627E-019
  -49.9000000000000         1.467413366535776E-019
  -49.7100000000000         1.302672906627827E-019
  -49.5200000000000         7.783963958593559E-020
  -49.3300000000000         3.587276896579797E-021
  -49.1400000000000        -7.179992471979548E-020
  -48.9500000000000        -1.269989616542440E-019
  -48.7600000000000        -1.461892542369644E-019
  -48.5700000000000        -1.236124628339012E-019
  -48.3800000000000        -6.523063264112219E-020
  -48.1900000000000         1.299305104714349E-020
  -48.0000000000000         8.967865148158077E-020
  -47.8100000000000         1.441388979421639E-019
  -47.6200000000000         1.622487350199113E-019
  -47.4300000000000         1.404012257278788E-019
  -47.2400000000000         8.644093195788255E-020
  -47.0500000000000         1.733330400221808E-020
  -46.8600000000000        -4.574728216965848E-020
  -46.6700000000000        -8.350350947428655E-020
  -46.4800000000000        -8.404293535560476E-020
  -46.2900000000000        -4.627895897687502E-020
  -46.1000000000000         1.976029534451846E-020
  -45.9100000000000         9.580545975359442E-020
  -45.7200000000000         1.605864824883700E-019
  -45.5300000000000         1.959416637458799E-019
  -45.3400000000000         1.920351477996879E-019
  -45.1500000000000         1.501693119749694E-019
  -44.9600000000000         8.237066444527742E-020
  -44.7700000000000         7.866828924855609E-021
  -44.5800000000000        -5.251934768968381E-020
  -44.3900000000000        -8.242402412947475E-020
  -44.2000000000000        -7.467987637568010E-020
  -44.0100000000000        -3.335503357950031E-020
  -43.8200000000000         2.750307939138925E-020
  -43.6300000000000         8.805348084440582E-020
  -43.4400000000000         1.285524801033666E-019
  -43.2500000000000         1.352244371281066E-019
  -43.0600000000000         1.043941744501808E-019
  -42.8700000000000         4.367176281047430E-020
  -42.6800000000000        -3.016267855995894E-020
  -42.4900000000000        -9.597126942684378E-020
  -42.3000000000000        -1.343836498370561E-019
  -42.1100000000000        -1.334658189049015E-019
  -41.9200000000000        -9.228426406292965E-020
  -41.7300000000000        -2.131317803880351E-020
  -41.5400000000000         6.046213437535538E-020
  -41.3500000000000         1.309339666283026E-019
  -41.1600000000000         1.712065395392323E-019
  -40.9700000000000         1.710366572275481E-019
  -40.7800000000000         1.317837783657164E-019
  -40.5900000000000         6.598893558383030E-020
  -40.4000000000000        -6.310046943713935E-021
  -40.2100000000000        -6.345179726524219E-020
  -40.0200000000000        -8.848643506216830E-020
  -39.8300000000000        -7.411172128280173E-020
  -39.6400000000000        -2.476952825089925E-020
  -39.4500000000000         4.469793315778448E-020
  -39.2600000000000         1.134248880614874E-019
  -39.0700000000000         1.606435883114128E-019
  -38.8800000000000         1.717619416068301E-019
  -38.6900000000000         1.426293210119268E-019
  -38.5000000000000         8.075511864738314E-020
  -38.3100000000000         3.132899624547413E-021
  -38.1200000000000        -6.869014905457491E-020
  -37.9300000000000        -1.148606416750467E-019
  -37.7400000000000        -1.229676561272822E-019
  -37.5500000000000        -9.162541641733655E-020
  -37.3600000000000        -3.085123936902961E-020
  -37.1700000000000         4.087131625160617E-020
  -36.9800000000000         1.019911147979555E-019
  -36.7900000000000         1.341804518285882E-019
  -36.6000000000000         1.276896786810588E-019
  -36.4100000000000         8.420858201071173E-020
  -36.2200000000000         1.640018169361311E-020
  -36.0300000000000        -5.576119566693103E-020
  -35.8400000000000        -1.107842422508400E-019
  -35.6500000000000        -1.319013323631984E-019
  -35.4600000000000        -1.119411413093233E-019
  -35.2700000000000        -5.542259825893987E-020
  -35.0800000000000         2.272568409599730E-020
  -34.8900000000000         1.014337346252452E-019
  -34.7000000000000         1.595011250080701E-019
  -34.5100000000000         1.816192945406274E-019
  -34.3200000000000         1.626887797355147E-019
  -34.1300000000000         1.092121360544490E-019
  -33.9400000000000         3.737818067728237E-020
  -33.7500000000000        -3.160742124300635E-020
  -33.5600000000000        -7.761053034253507E-020
  -33.3700000000000        -8.734149142573663E-020
  -33.1800000000000        -5.816851731642374E-020
  -32.9900000000000         1.119208068310097E-021
  -32.8000000000000         7.282427054626732E-020
  -32.6100000000000         1.354191310802406E-019
  -32.4200000000000         1.697403880228187E-019
  -32.2300000000000         1.645236128603383E-019
  -32.0400000000000         1.196855270866859E-019
  -31.8500000000000         4.640327315974198E-020
  -31.6600000000000        -3.603719595186651E-020
  -31.4700000000000        -1.057182747762657E-019
  -31.2800000000000        -1.443176019777068E-019
  -31.0900000000000        -1.422938929172851E-019
  -30.9000000000000        -1.015411539969801E-019
  -30.7100000000000        -3.475259308463897E-020
  -30.5200000000000         3.831059760792146E-020
  -30.3300000000000         9.655693316801483E-020
  -30.1400000000000         1.236506322219394E-019
  -29.9500000000000         1.126995811876722E-019
  -29.7600000000000         6.820606187556531E-020
  -29.5700000000000         4.723593426432962E-021
  -29.3800000000000        -5.739854241279540E-020
  -29.1900000000000        -9.797021511577114E-020
  -29.0000000000000        -1.029088708525719E-019
  -28.8100000000000        -6.845998309880129E-020
  -28.6200000000000        -2.444967537847251E-021
  -28.4300000000000         7.785950408076193E-020
  -28.2400000000000         1.506256933017732E-019
  -28.0500000000000         1.957534768309547E-019
  -27.8600000000000         2.006948152012487E-019
  -27.6700000000000         1.641108237789989E-019
  -27.4800000000000         9.627683132694476E-020
  -27.2900000000000         1.611143286080094E-020
  -27.1000000000000        -5.429616877600141E-020
  -26.9100000000000        -9.605567815466297E-020
  -26.7200000000000        -9.888485296663292E-020
  -26.5300000000000        -6.398943295603955E-020
  -26.3400000000000        -3.585590875357270E-021
  -26.1500000000000         6.278575711880293E-020
  -25.9600000000000         1.140727589833691E-019
  -25.7700000000000         1.339573314224656E-019
  -25.5800000000000         1.157043549199322E-019
  -25.3900000000000         6.418917730929354E-020
  -25.2000000000000        -5.501116251103248E-021
  -25.0100000000000        -7.249301122532125E-020
  -24.8200000000000        -1.162890286947116E-019
  -24.6300000000000        -1.228607340894731E-019
  -24.4400000000000        -8.887194441886120E-020
  -24.2500000000000        -2.277055451323903E-020
  -24.0600000000000         5.758965943912134E-020
  -23.8700000000000         1.301055766853589E-019
  -23.6800000000000         1.748435029518444E-019
  -23.4900000000000         1.798289302527490E-019
  -23.3000000000000         1.444992409376430E-019
  -23.1100000000000         7.980311217777083E-020
  -22.9200000000000         4.926732271147015E-021
  -22.7300000000000        -5.837488067293348E-020
  -22.5400000000000        -9.216224839727496E-020
  -22.3500000000000        -8.753082910913086E-020
  -22.1600000000000        -4.713829704715299E-020
  -21.9700000000000         1.568572919894090E-020
  -21.7800000000000         8.096652100671814E-020
  -21.5900000000000         1.280543237870615E-019
  -21.4000000000000         1.417825213009142E-019
  -21.2100000000000         1.170018905267167E-019
  -21.0200000000000         6.015139860860938E-020
  -20.8300000000000        -1.260012440920049E-020
  -20.6400000000000        -8.009291678153098E-020
  -20.4500000000000        -1.223995181656282E-019
  -20.2600000000000        -1.267014162824589E-019
  -20.0700000000000        -9.109040554009523E-020
  -19.8800000000000        -2.517790902035908E-020
  -19.6900000000000         5.266331579240551E-020
  -19.5000000000000         1.206145342783926E-019
  -19.3100000000000         1.597314228044650E-019
  -19.1200000000000         1.594289982610300E-019
  -18.9300000000000         1.205363649928649E-019
  -18.7400000000000         5.503693394152970E-020
  -18.5500000000000        -1.742615392746667E-020
  -18.3600000000000        -7.526505694218569E-020
  -18.1700000000000        -1.012258486028845E-019
  -17.9800000000000        -8.740461218443462E-020
  -17.7900000000000        -3.753954387349731E-020
  -17.6000000000000         3.408148790110570E-020
  -17.4100000000000         1.067663626061826E-019
  -17.2200000000000         1.594037682650731E-019
  -17.0300000000000         1.765532350655000E-019
  -16.8400000000000         1.528844550763042E-019
  -16.6500000000000         9.469377911459333E-020
  -16.4600000000000         1.807255322574924E-020
  -16.2700000000000        -5.573749496315356E-020
  -16.0800000000000        -1.064646866580473E-019
  -15.8900000000000        -1.206435502213424E-019
  -15.7000000000000        -9.548527922956875E-020
  -15.5100000000000        -3.966621567482029E-020
  -15.3200000000000         2.919525823271871E-020
  -15.1300000000000         8.965350020923484E-020
  -14.9400000000000         1.226741369784875E-019
  -14.7500000000000         1.171926740166522E-019
  -14.5600000000000         7.337696209497005E-020
  -14.3700000000000         2.644696247252558E-021
  -14.1800000000000        -7.556893283290018E-020
  -13.9900000000000        -1.393612430744191E-019
  -13.8000000000000        -1.706309595658154E-019
  -13.6100000000000        -1.602574736388449E-019
  -13.4200000000000        -1.106968899776750E-019
  -13.2300000000000        -3.525316021119271E-020
  -13.0400000000000         4.575419097045717E-020
  -12.8500000000000         1.108111458215944E-019
  -12.6600000000000         1.433356441040092E-019
  -12.4700000000000         1.363479291251134E-019
  -12.2800000000000         9.435875309329854E-020
  -12.0900000000000         3.195808176362434E-020
  -11.9000000000000        -3.047392616408772E-020
  -11.7100000000000        -7.269833487258305E-020
  -11.5200000000000        -8.048659206350768E-020
  -11.3300000000000        -4.973969448467271E-020
  -11.1400000000000         1.232259621376201E-020
  -10.9500000000000         8.923719878351263E-020
  -10.7600000000000         1.600373695153849E-019
  -10.5700000000000         2.052888470156901E-019
  -10.3800000000000         2.126730631733778E-019
  -10.1900000000000         1.804964983535775E-019
  -10.0000000000000         1.181139880271529E-019
  -9.81000000000000         4.315738025625938E-020
  -9.62000000000000        -2.360812004154714E-020
  -9.42999999999999        -6.428880818628634E-020
  -9.23999999999999        -6.897698314457667E-020
  -9.05000000000000        -3.850280856534677E-020
  -8.86000000000000         1.594813536659263E-020
  -8.67000000000000         7.621754335827003E-020
  -8.48000000000000         1.225627386066460E-019
  -8.28999999999999         1.394778092847971E-019
  -8.09999999999999         1.202554638730882E-019
  -7.91000000000000         6.897739735592018E-020
  -7.72000000000000        -6.270930516010806E-022
  -7.53000000000000        -6.911847233418688E-020
  -7.34000000000000        -1.169490896720763E-019
  -7.15000000000001        -1.301211085565271E-019
  -6.95999999999999        -1.042735036603541E-019
  -6.77000000000000        -4.602028535848727E-020
  -6.58000000000000         2.885593169452549E-020
  -6.39000000000000         9.985257816473232E-020
  -6.20000000000000         1.475674474339782E-019
  -6.01000000000001         1.592115221328526E-019
  -5.81999999999999         1.322185451751464E-019
  -5.63000000000000         7.490457619165661E-020
  -5.44000000000000         3.982964669086254E-021
  -5.25000000000000        -6.034043700403953E-020
  -5.06000000000000        -1.002478264821297E-019
  -4.87000000000000        -1.054368270002904E-019
  -4.67999999999999        -7.600844301254490E-020
  -4.48999999999999        -2.230416533339455E-020
  -4.30000000000000         3.823071381905003E-020
  -4.11000000000000         8.622918058021846E-020
  -3.92000000000000         1.061219490146905E-019
  -3.73000000000000         9.074386216362507E-020
  -3.53999999999999         4.350417564536068E-020
  -3.34999999999999        -2.250986972154683E-020
  -3.16000000000000        -8.825707915346351E-020
  -2.97000000000000        -1.342388460604414E-019
  -2.78000000000000        -1.461882757916095E-019
  -2.59000000000000        -1.193012786602759E-019
  -2.40000000000001        -5.976152995810371E-020
  -2.20999999999999         1.692471171311577E-020
  -2.02000000000000         9.033991274867043E-020
  -1.83000000000000         1.410401196672968E-019
  -1.64000000000000         1.561829197394339E-019
  -1.45000000000000         1.332379161625517E-019
  -1.26000000000001         8.068575348698002E-020
  -1.06999999999999         1.549695108291496E-020
 -0.879999999999995        -4.186848930204722E-020
 -0.689999999999998        -7.346662601996138E-020
 -0.500000000000000        -6.911884954194554E-020
 -0.310000000000002        -2.938164350290045E-020
 -0.120000000000005         3.461259326323872E-020
  7.000000000000739E-002    1.043848964642267E-019
  0.260000000000005         1.594654787450451E-019
  0.450000000000003         1.833296007377693E-019
  0.640000000000001         1.682166817801972E-019
  0.829999999999998         1.174554048885745E-019
   1.02000000000000         4.460829055062885E-020
   1.21000000000001        -3.035594328323974E-020
   1.40000000000001        -8.678784157932253E-020
   1.59000000000000        -1.093335608289717E-019
   1.78000000000000        -9.242190660354311E-020
   1.97000000000000        -4.193510261193909E-020
   2.16000000000000         2.645774696792010E-020
   2.34999999999999         9.184408196538058E-020
   2.54000000000001         1.341632445442463E-019
   2.73000000000000         1.400618822773034E-019
   2.92000000000000         1.067930598262510E-019
   3.11000000000000         4.302467446719472E-020
   3.30000000000000        -3.366545868083926E-020
   3.48999999999999        -1.018587336766799E-019
   3.68000000000001        -1.424467998341227E-019
   3.87000000000000        -1.440996501980980E-019
   4.06000000000000        -1.065021123652748E-019
   4.25000000000000        -4.044219757489689E-020
   4.44000000000000         3.527779798635874E-020
   4.63000000000000         9.922808798066026E-020
   4.82000000000001         1.334977002330112E-019
   5.01000000000001         1.288467327839742E-019
   5.20000000000000         8.738637170729408E-020
   5.39000000000000         2.199723146213820E-020
   5.58000000000000        -4.737366474112482E-020
   5.77000000000000        -9.948629398568031E-020
   5.96000000000001        -1.179877254897890E-019
   6.15000000000001        -9.620371053023085E-020
   6.34000000000000        -3.913400335158238E-020
   6.53000000000000         3.794691005827026E-020