  -105.000000000000         0.000000000000000E+000
  -104.810000000000         1.884861807801731E-020
  -104.620000000000         5.197379062194138E-020
  -104.430000000000         9.176823001619014E-020
  -104.240000000000         1.297210853459575E-019
  -104.050000000000         1.587872855663411E-019
  -103.860000000000         1.753121644498705E-019
  -103.670000000000         1.799583358134354E-019
  -103.480000000000         1.773719305352750E-019
  -103.290000000000         1.746918761689521E-019
  -103.100000000000         1.793418481856743E-019
  -102.910000000000         1.967517174196204E-019
  -102.720000000000         2.286737261721785E-019
  -102.530000000000         2.725838331294346E-019
  -102.340000000000         3.223424195675355E-019
  -102.150000000000         3.699228113849861E-019
  -101.960000000000         4.077062227524063E-019
  -101.770000000000         4.306767797165230E-019
  -101.580000000000         4.378779199907690E-019
  -101.390000000000         4.327043574961884E-019
  -101.200000000000         4.219411081489539E-019
  -101.010000000000         4.138252464798313E-019
  -100.820000000000         4.156907732601831E-019
  -100.630000000000         4.318785103376640E-019
  -100.440000000000         4.625155348853349E-019
  -100.250000000000         5.035153795548957E-019
  -100.060000000000         5.477956672770368E-019
  -99.8700000000000         5.873574843220695E-019
  -99.6800000000000         6.156224268504594E-019
  -99.4900000000000         6.293499064125272E-019
  -99.3000000000000         6.295794922460733E-019
  -99.1100000000000         6.213255046146919E-019
  -98.9200000000000         6.121127038303692E-019
  -98.7300000000000         6.097785724477107E-019
  -98.5400000000000         6.201815193419975E-019
  -98.3500000000000         6.454823618780973E-019
  -98.1600000000000         6.834997447254797E-019
  -97.9700000000000         7.283272131996040E-019
  -97.7800000000000         7.720321844675543E-019
  -97.5900000000000         8.069425858137681E-019
  -97.4000000000000         8.278568702097652E-019
  -97.2100000000000         8.335361904086843E-019
  -97.0200000000000         8.270462699002548E-019
  -96.8300000000000         8.148502552269653E-019
  -96.6400000000000         8.049162581273492E-019
  -96.4500000000000         8.043897135015956E-019
  -96.2600000000000         8.175077859877129E-019
  -96.0700000000000         8.443632295048623E-019
  -95.8800000000000         8.808780023033429E-019
  -95.6900000000000         9.199943700995689E-019
  -95.5000000000000         9.537362735417616E-019
  -95.3100000000000         9.755402556651427E-019
  -95.1200000000000         9.821770754850938E-019
  -94.9300000000000         9.747045053288756E-019
  -94.7400000000000         9.581734355186116E-019
  -94.5500000000000         9.401714183179327E-019
  -94.3600000000000         9.286255810543667E-019
  -94.1700000000000         9.295028794384695E-019
  -93.9800000000000         9.450770796223812E-019
  -93.7900000000000         9.732686221259688E-019
  -93.6000000000000         1.008252013676693E-018
  -93.4100000000000         1.042155865818275E-018
  -93.2200000000000         1.067361407966935E-018
  -93.0300000000000         1.078730349783419E-018
  -92.8400000000000         1.075113747896049E-018
  -92.6500000000000         1.059703288895785E-018
  -92.4600000000000         1.039122939905869E-018
  -92.2700000000000         1.021523915503091E-018
  -92.0800000000000         1.014233965377224E-018
  -91.8900000000000         1.021640597949701E-018
  -91.7000000000000         1.043920312320074E-018
  -91.5100000000000         1.076981454142435E-018
  -91.3200000000000         1.113636974539213E-018
  -91.1300000000000         1.145666565983696E-018
  -90.9400000000000         1.166169272152943E-018
  -90.7500000000000         1.171523637335710E-018
  -90.5600000000000         1.162387817986104E-018
  -90.3700000000000         1.143453071238122E-018
  -90.1800000000000         1.122027976371048E-018
  -89.9900000000000         1.105870749274856E-018
  -89.8000000000000         1.100903930793574E-018
  -89.6100000000000         1.109477361824389E-018
  -89.4200000000000         1.129683967675466E-018
  -89.2300000000000         1.155926302242159E-018
  -89.0400000000000         1.180568870144560E-018
  -88.8500000000000         1.196196398991091E-018
  -88.6600000000000         1.197822240674871E-018
  -88.4700000000000         1.184405101706617E-018
  -88.2800000000000         1.159232528538493E-018
  -88.0900000000000         1.129057694421488E-018
  -87.9000000000000         1.102236288976011E-018
  -87.7100000000000         1.086398063528697E-018
  -87.5200000000000         1.086320211757902E-018
  -87.3300000000000         1.102610205677866E-018
  -87.1400000000000         1.131572135234251E-018
  -86.9500000000000         1.166290454382856E-018
  -86.7600000000000         1.198615801406533E-018
  -86.5700000000000         1.221479403304236E-018
  -86.3800000000000         1.230869819841499E-018
  -86.1900000000000         1.226905252414352E-018
  -86.0000000000000         1.213697612473111E-018
  -85.8100000000000         1.198054949478639E-018
  -85.6200000000000         1.187405183799407E-018
  -85.4300000000000         1.187548789334200E-018
  -85.2400000000000         1.200896036619816E-018
  -85.0500000000000         1.225702355671896E-018
  -84.8600000000000         1.256525458096662E-018
  -84.6700000000000         1.285774433440415E-018
  -84.4800000000000         1.305905506307279E-018
  -84.2900000000000         1.311631168030431E-018
  -84.1000000000000         1.301502530023195E-018
  -83.9100000000000         1.278401985765052E-018
  -83.7200000000000         1.248795528235224E-018
  -83.5300000000000         1.220952497023825E-018
  -83.3400000000000         1.202641006642072E-018
  -83.1500000000000         1.198961276559934E-018
  -82.9600000000000         1.210940842505012E-018
  -82.7700000000000         1.235296256078361E-018
  -82.5800000000000         1.265429279394812E-018
  -82.3900000000000         1.293369144523219E-018
  -82.2000000000000         1.312098988198681E-018
  -82.0100000000000         1.317593152154572E-018
  -81.8200000000000         1.309975239390311E-018
  -81.6300000000000         1.293461069442654E-018
  -81.4400000000000         1.275102916182979E-018
  -81.2500000000000         1.262700074656048E-018
  -81.0600000000000         1.262484813609876E-018
  -80.8700000000000         1.277260392036932E-018
  -80.6800000000000         1.305537722240057E-018
  -80.4900000000000         1.341925952287380E-018
  -80.3000000000000         1.378664768306175E-018
  -80.1100000000000         1.407851382439579E-018
  -79.9200000000000         1.423712134301169E-018
  -79.7300000000000         1.424256433075422E-018
  -79.5400000000000         1.411831573436419E-018
  -79.3500000000000         1.392417318293154E-018
  -79.1600000000000         1.373866359549924E-018
  -78.9700000000000         1.363604689981710E-018
  -78.7800000000000         1.366464454579076E-018
  -78.5900000000000         1.383283529465923E-018
  -78.4000000000000         1.410681334076816E-018
  -78.2100000000000         1.442075213239542E-018
  -78.0200000000000         1.469637793877253E-018
  -77.8300000000000         1.486619797606421E-018
  -77.6400000000000         1.489355536895466E-018
  -77.4500000000000         1.478361289142863E-018
  -77.2600000000000         1.458203209808233E-018
  -77.0700000000000         1.436173454192323E-018
  -76.8800000000000         1.420163815808596E-018
  -76.6900000000000         1.416361636299805E-018
  -76.5000000000000         1.427443872557865E-018
  -76.3100000000000         1.451797857887140E-018
  -76.1200000000000         1.483995361898248E-018
  -75.9300000000000         1.516378749876921E-018
  -75.7400000000000         1.541292627752414E-018
  -75.5500000000000         1.553307575009222E-018
  -75.3600000000000         1.550789076560170E-018
  -75.1700000000000         1.536360476049020E-018
  -74.9800000000000         1.516133191485326E-018
  -74.7900000000000         1.497934187754869E-018
  -74.6000000000000         1.489047332655122E-018
  -74.4100000000000         1.494121735991943E-018
  -74.2200000000000         1.513849135543623E-018
  -74.0300000000000         1.544788470006838E-018
  -73.8400000000000         1.580382585317258E-018
  -73.6500000000000         1.612865894301690E-018
  -73.4600000000000         1.635504185470056E-018
  -73.2700000000000         1.644514204236243E-018
  -73.0800000000000         1.640107775234030E-018
  -72.8900000000000         1.626363653162446E-018
  -72.7000000000000         1.609973726180223E-018
  -72.5100000000000         1.598237713998907E-018
  -72.3200000000000         1.596896038697184E-018
  -72.1300000000000         1.608432060592221E-018
  -71.9400000000000         1.631333124135334E-018
  -71.7500000000000         1.660519551762068E-018
  -71.5600000000000         1.688814561949134E-018
  -71.3700000000000         1.709031369299257E-018
  -71.1800000000000         1.716078472886458E-018
  -70.9900000000000         1.708478595937807E-018
  -70.8000000000000         1.688862936015680E-018
  -70.6100000000000         1.663294227819571E-018
  -70.4200000000000         1.639606688738043E-018
  -70.2300000000000         1.625232199576465E-018
  -70.0400000000000         1.625129758788329E-018
  -69.8500000000000         1.640407760819752E-018
  -69.6600000000000         1.668033490091333E-018
  -69.4700000000000         1.701715263909676E-018
  -69.2800000000000         1.733706579745824E-018
  -69.0900000000000         1.757015182358068E-018
  -68.9000000000000         1.767381870387948E-018
  -68.7100000000000         1.764459829649384E-018
  -68.5200000000000         1.751856306843330E-018
  -68.3300000000000         1.736026986544202E-018
  -68.1400000000000         1.724344365300223E-018
  -67.9500000000000         1.722899721386639E-018
  -67.7600000000000         1.734675628761863E-018
  -67.5700000000000         1.758619925254026E-018
  -67.3800000000000         1.789893080085667E-018
  -67.1900000000000         1.821223906803689E-018
  -67.0000000000000         1.844990303701818E-018
  -66.8100000000000         1.855432056810125E-018
  -66.6200000000000         1.850360178741593E-018
  -66.4300000000000         1.831864758195528E-018
  -66.2400000000000         1.805805162365622E-018
  -66.0500000000000         1.780215477232017E-018
  -65.8600000000000         1.763074294282123E-018
  -65.6700000000000         1.760077240544684E-018
  -65.4800000000000         1.773054866124860E-018
  -65.2900000000000         1.799494767603895E-018
  -65.1000000000000         1.833308273806023E-018
  -64.9100000000000         1.866621136130247E-018
  -64.7200000000000         1.892069165469980E-018
  -64.5300000000000         1.904930990822397E-018
  -64.3400000000000         1.904475855786925E-018
  -64.1500000000000         1.894132540340182E-018
  -63.9600000000000         1.880429492764196E-018
  -63.7700000000000         1.871014956839452E-018
  -63.5800000000000         1.872334693922902E-018
  -63.3900000000000         1.887646403033364E-018
  -63.2000000000000         1.915954814188255E-018
  -63.0100000000000         1.952186085745665E-018
  -62.8200000000000         1.988560323991600E-018
  -62.6300000000000         2.016771395894597E-018
  -62.4400000000000         2.030346357546286E-018
  -62.2500000000000         2.026501923479892E-018
  -62.0600000000000         2.006957882126880E-018
  -61.8700000000000         1.977466155981890E-018
  -61.6800000000000         1.946184664686942E-018
  -61.4900000000000         1.921361955180803E-018
  -61.3000000000000         1.909003542137708E-018
  -61.1100000000000         1.911201024656998E-018
  -60.9200000000000         1.925613524970629E-018
  -60.7300000000000         1.946252610934700E-018
  -60.5400000000000         1.965337489409426E-018
  -60.3500000000000         1.975671998795614E-018
  -60.1600000000000         1.972842241685650E-018
  -59.9700000000000         1.956587986307840E-018
  -59.7800000000000         1.930945466403845E-018
  -59.5900000000000         1.903121044626067E-018
  -59.4000000000000         1.881426809360966E-018
  -59.2100000000000         1.872881133612451E-018
  -59.0200000000000         1.881171732905368E-018
  -58.8300000000000         1.905571502456339E-018
  -58.6400000000000         1.941121656527409E-018
  -58.4500000000000         1.980031569285436E-018
  -58.2600000000000         2.013893421382504E-018
  -58.0700000000000         2.036072567080678E-018
  -57.8800000000000         2.043581200888249E-018
  -57.6900000000000         2.037891080266063E-018
  -57.5000000000000         2.024448988361045E-018
  -57.3100000000000         2.011036659233302E-018
  -57.1200000000000         2.005454587865401E-018
  -56.9300000000000         2.013207842643251E-018
  -56.7400000000000         2.035872721890504E-018
  -56.5500000000000         2.070623637797213E-018
  -56.3600000000000         2.111057115437750E-018
  -56.1700000000000         2.149066064615479E-018
  -55.9800000000000         2.177208262067512E-018
  -55.7900000000000         2.190870743474377E-018
  -55.6000000000000         2.189596661342675E-018
  -55.4100000000000         2.177190550845801E-018
  -55.2200000000000         2.160576265527899E-018
  -55.0300000000000         2.147744240091537E-018
  -54.8400000000000         2.145387195587127E-018
  -54.6500000000000         2.156911715732955E-018
  -54.4600000000000         2.181403445980864E-018
  -54.2700000000000         2.213848660891948E-018
  -54.0800000000000         2.246553501626090E-018
  -53.8900000000000         2.271356527106839E-018
  -53.7000000000000         2.281998105757065E-018
  -53.5100000000000         2.275959283479623E-018
  -53.3200000000000         2.255231620170959E-018
  -53.1300000000000         2.225788887655310E-018
  -52.9400000000000         2.195911915283992E-018
  -52.7500000000000         2.173854983176148E-018
  -52.5600000000000         2.165533841865535E-018
  -52.3700000000000         2.172904940908732E-018
  -52.1800000000000         2.193498215428176E-018
  -51.9900000000000         2.221225575948654E-018
  -51.8000000000000         2.248215522390112E-018
  -51.6100000000000         2.267129886674768E-018
  -51.4200000000000         2.273286098917236E-018
  -51.2300000000000         2.265973410161435E-018
  -51.0400000000000         2.248591869331293E-018
  -50.8500000000000         2.227586344891035E-018
  -50.6600000000000         2.210495078427099E-018
  -50.4700000000000         2.203685203262457E-018
  -50.2800000000000         2.210435914043576E-018
  -50.0900000000000         2.229928658424730E-018
  -49.9000000000000         2.257440878498836E-018
  -49.7100000000000         2.285690366353090E-018
  -49.5200000000000         2.306942448950693E-018
  -49.3300000000000         2.315269429395745E-018
  -49.1400000000000         2.308305614171393E-018
  -48.9500000000000         2.287985458002222E-018
  -48.7600000000000         2.260046008742780E-018
  -48.5700000000000         2.232433541392176E-018
  -48.3800000000000         2.213073272865898E-018
  -48.1900000000000         2.207645900988550E-018
  -48.0000000000000         2.218010632263813E-018
  -47.8100000000000         2.241723788551551E-018
  -47.6200000000000         2.272783413481835E-018
  -47.4300000000000         2.303378307859117E-018
  -47.2400000000000         2.326135879258429E-018
  -47.0500000000000         2.336225862003112E-018
  -46.8600000000000         2.332722534779272E-018
  -46.6700000000000         2.318841894778642E-018
  -46.4800000000000         2.300991201179043E-018
  -46.2900000000000         2.286905579343512E-018
  -46.1000000000000         2.283405196767830E-018
  -45.9100000000000         2.294414491574429E-018
  -45.7200000000000         2.319811271474196E-018
  -45.5300000000000         2.355437354920010E-018
  -45.3400000000000         2.394269103697631E-018
  -45.1500000000000         2.428410711083891E-018
  -44.9600000000000         2.451333442248119E-018
  -44.7700000000000         2.459711563573097E-018
  -44.5800000000000         2.454322837239565E-018
  -44.3900000000000         2.439754211451017E-018
  -44.2000000000000         2.423001708070364E-018
  -44.0100000000000         2.411375858428259E-018
  -43.8200000000000         2.410326795310154E-018
  -43.6300000000000         2.421827028596987E-018
  -43.4400000000000         2.443787118031028E-018
  -43.2500000000000         2.470676971036266E-018
  -43.0600000000000         2.495172404139708E-018
  -42.8700000000000         2.510346757327334E-018
  -42.6800000000000         2.511767674007689E-018
  -42.4900000000000         2.498884939474550E-018
  -42.3000000000000         2.475298591625488E-018
  -42.1100000000000         2.447819152536469E-018
  -41.9200000000000         2.424581580441626E-018
  -41.7300000000000         2.412751132192556E-018
  -41.5400000000000         2.416482572786881E-018
  -41.3500000000000         2.435726743255191E-018
  -41.1600000000000         2.466237480105635E-018
  -40.9700000000000         2.500785228280099E-018
  -40.7800000000000         2.531231409852104E-018
  -40.5900000000000         2.550863064059071E-018
  -40.4000000000000         2.556307205373959E-018
  -40.2100000000000         2.548465246220460E-018
  -40.0200000000000         2.532195522413167E-018
  -39.8300000000000         2.514840400896836E-018
  -39.6400000000000         2.504033068325703E-018
  -39.4500000000000         2.505427980161495E-018
  -39.2600000000000         2.521018282925661E-018
  -39.0700000000000         2.548529437624860E-018
  -38.8800000000000         2.582062846483998E-018
  -38.6900000000000         2.613798975435455E-018
  -38.5000000000000         2.636261988468530E-018
  -38.3100000000000         2.644485920521461E-018
  -38.1200000000000         2.637452490325858E-018
  -37.9300000000000         2.618383663880722E-018
  -37.7400000000000         2.593805446489340E-018
  -37.5500000000000         2.571655954552355E-018
  -37.3600000000000         2.558987788250752E-018
  -37.1700000000000         2.559932483592124E-018
  -36.9800000000000         2.574518888426363E-018
  -36.7900000000000         2.598689107215347E-018
  -36.6000000000000         2.625507460121226E-018
  -36.4100000000000         2.647211185114149E-018
  -36.2200000000000         2.657506721285297E-018
  -36.0300000000000         2.653443254157722E-018
  -35.8400000000000         2.636317466931863E-018
  -35.6500000000000         2.611345242102403E-018
  -35.4600000000000         2.586194960633848E-018
  -35.2700000000000         2.568807608404860E-018
  -35.0800000000000         2.565134373295450E-018
  -34.8900000000000         2.577443368361339E-018
  -34.7000000000000         2.603679192453044E-018
  -34.5100000000000         2.638053795864405E-018
  -34.3200000000000         2.672694524378482E-018
  -34.1300000000000         2.699875532163901E-018
  -33.9400000000000         2.714195136079172E-018
  -33.7500000000000         2.714079240821268E-018
  -33.5600000000000         2.702184316006830E-018
  -33.3700000000000         2.684587239291105E-018
  -33.1800000000000         2.668994549265050E-018
  -32.9900000000000         2.662483202710864E-018
  -32.8000000000000         2.669419848331008E-018
  -32.6100000000000         2.690156425518446E-018
  -32.4200000000000         2.720879118141499E-018
  -32.2300000000000         2.754657772967117E-018
  -32.0400000000000         2.783398091028428E-018
  -31.8500000000000         2.800138273260058E-018
  -31.6600000000000         2.801031334829130E-018
  -31.4700000000000         2.786444138798348E-018
  -31.2800000000000         2.760858390414149E-018
  -31.0900000000000         2.731603450046819E-018
  -30.9000000000000         2.706786711105580E-018
  -30.7100000000000         2.693017811527967E-018
  -30.5200000000000         2.693580725733417E-018
  -30.3300000000000         2.707575838618977E-018
  -30.1400000000000         2.730272360337262E-018
  -29.9500000000000         2.754563078863314E-018
  -29.7600000000000         2.773098201188578E-018
  -29.5700000000000         2.780481382376028E-018
  -29.3800000000000         2.774893166690622E-018
  -29.1900000000000         2.758669936259166E-018
  -29.0000000000000         2.737664484946630E-018
  -28.8100000000000         2.719564565335189E-018
  -28.6200000000000         2.711649691369085E-018
  -28.4300000000000         2.718635477670807E-018
  -28.2400000000000         2.741236302919774E-018
  -28.0500000000000         2.775873241125480E-018
  -27.8600000000000         2.815622624115537E-018
  -27.6700000000000         2.852137270901955E-018
  -27.4800000000000         2.877984737151556E-018
  -27.2900000000000         2.888722466806194E-018
  -27.1000000000000         2.884107081638662E-018
  -26.9100000000000         2.868089922671314E-018
  -26.7200000000000         2.847605923939890E-018
  -26.5300000000000         2.830513678543994E-018
  -26.3400000000000         2.823289939416595E-018
  -26.1500000000000         2.829151154011358E-018
  -25.9600000000000         2.847148527121740E-018
  -25.7700000000000         2.872498802425038E-018
  -25.5800000000000         2.898052313062277E-018
  -25.3900000000000         2.916466457294612E-018
  -25.2000000000000         2.922444200439809E-018
  -25.0100000000000         2.914376033119193E-018
  -24.8200000000000         2.894896856174187E-018
  -24.6300000000000         2.870186202215202E-018
  -24.4400000000000         2.848209777220187E-018
  -24.2500000000000         2.836414863336035E-018
  -24.0600000000000         2.839556966505155E-018
  -23.8700000000000         2.858298933922901E-018
  -23.6800000000000         2.888997085645591E-018
  -23.4900000000000         2.924739465044602E-018
  -23.3000000000000         2.957332079141636E-018
  -23.1100000000000         2.979649176600906E-018
  -22.9200000000000         2.987657261769189E-018
  -22.7300000000000         2.981521334863942E-018
  -22.5400000000000         2.965474807113474E-018
  -22.3500000000000         2.946499680472978E-018
  -22.1600000000000         2.932213092052004E-018
  -21.9700000000000         2.928587127595059E-018
  -21.7800000000000         2.938173669147602E-018
  -21.5900000000000         2.959354405577612E-018
  -21.4000000000000         2.986834312186685E-018
  -21.2100000000000         3.013231763671959E-018
  -21.0200000000000         3.031295030586837E-018
  -20.8300000000000         3.036089295143231E-018
  -20.6400000000000         3.026506983311341E-018
  -20.4500000000000         3.005653986766249E-018
  -20.2600000000000         2.979995166408402E-018
  -20.0700000000000         2.957507448578914E-018
  -19.8800000000000         2.945380812303166E-018
  -19.6900000000000         2.947939843151178E-018
  -19.5000000000000         2.965392872304281E-018
  -19.3100000000000         2.993773366176967E-018
  -19.1200000000000         3.026090812969977E-018
  -18.9300000000000         3.054356385516159E-018
  -18.7400000000000         3.071894631667265E-018
  -18.5500000000000         3.075270420413940E-018
  -18.3600000000000         3.065272693174828E-018
  -18.1700000000000         3.046669698775909E-018
  -17.9800000000000         3.026806870705732E-018
  -17.7900000000000         3.013455946145825E-018
  -17.6000000000000         3.012541844033804E-018
  -17.4100000000000         3.026406911548245E-018
  -17.2200000000000         3.053113061824153E-018
  -17.0300000000000         3.086980343488972E-018
  -16.8400000000000         3.120203291149044E-018
  -16.6500000000000         3.145076436417968E-018
  -16.4600000000000         3.156186927212589E-018
  -16.2700000000000         3.151944006643753E-018
  -16.0800000000000         3.135006679126591E-018
  -15.8900000000000         3.111487425713696E-018
  -15.7000000000000         3.089162130042480E-018
  -15.5100000000000         3.075203019606459E-018
  -15.3200000000000         3.074088968086049E-018
  -15.1300000000000         3.086297217734892E-018
  -14.9400000000000         3.108157298165558E-018
  -14.7500000000000         3.132913389786716E-018
  -14.5600000000000         3.152690514291885E-018
  -14.3700000000000         3.160796635382805E-018
  -14.1800000000000         3.153695498865841E-018
  -13.9900000000000         3.132080440906304E-018
  -13.8000000000000         3.100738226497562E-018
  -13.6100000000000         3.067240676271294E-018
  -13.4200000000000         3.039840386514801E-018
  -13.2300000000000         3.025175858079777E-018
  -13.0400000000000         3.026444185634548E-018
  -12.8500000000000         3.042562450648551E-018
  -12.6600000000000         3.068552421046754E-018
  -12.4700000000000         3.097029995408075E-018
  -12.2800000000000         3.120364634114298E-018
  -12.0900000000000         3.132886321583529E-018
  -11.9000000000000         3.132508705184474E-018
  -11.7100000000000         3.121306229641175E-018
  -11.5200000000000         3.104883337932893E-018
  -11.3300000000000         3.090721324657042E-018
  -11.1400000000000         3.085982254028716E-018
  -10.9500000000000         3.095403911218272E-018
  -10.7600000000000         3.119892389566452E-018
  -10.5700000000000         3.156218111634118E-018
  -10.3800000000000         3.197902151432414E-018
  -10.1900000000000         3.237033875640000E-018
  -10.0000000000000         3.266490820806773E-018
  -9.81000000000000         3.281917191090320E-018
  -9.62000000000000         3.282890625304152E-018
  -9.42999999999999         3.272946105474531E-018
  -9.23999999999999         3.258460878193363E-018
  -9.05000000000000         3.246734851879592E-018
  -8.86000000000000         3.243829810938531E-018
  -8.67000000000000         3.252795143318898E-018
  -8.48000000000000         3.272792477414673E-018
  -8.28999999999999         3.299368983989422E-018
  -8.09999999999999         3.325794044942897E-018
  -7.91000000000000         3.345066060261196E-018
  -7.72000000000000         3.352005455938146E-018
  -7.53000000000000         3.344827764901588E-018
  -7.34000000000000         3.325740436451155E-018
  -7.15000000000001         3.300387110826198E-018
  -6.95999999999999         3.276294415199674E-018
  -6.77000000000000         3.260763179435264E-018
  -6.58000000000000         3.258806706763450E-018
  -6.39000000000000         3.271728433479184E-018
  -6.20000000000000         3.296750686466048E-018
  -6.01000000000001         3.327804063504095E-018
  -5.81999999999999         3.357251064876532E-018
  -5.63000000000000         3.378047110670652E-018
  -5.44000000000000         3.385714803829361E-018
  -5.25000000000000         3.379560637244904E-018
  -5.06000000000000         3.362785437767827E-018
  -4.87000000000000         3.341466463181695E-018
  -4.67999999999999         3.322719443507716E-018
  -4.48999999999999         3.312583254836927E-018
  -4.30000000000000         3.314243860681026E-018
  -4.11000000000000         3.327110926088166E-018
  -3.92000000000000         3.347010949301509E-018
  -3.73000000000000         3.367437266713749E-018
  -3.53999999999999         3.381493616923686E-018
  -3.34999999999999         3.383968853458986E-018
  -3.16000000000000         3.372939866429499E-018
  -2.97000000000000         3.350431163380670E-018
  -2.78000000000000         3.321929104926531E-018
  -2.59000000000000         3.294879618579857E-018
  -2.40000000000001         3.276594619035627E-018
  -2.20999999999999         3.272170237195779E-018
  -2.02000000000000         3.283026009486610E-018
  -1.83000000000000         3.306499404040273E-018
  -1.64000000000000         3.336621254960183E-018
  -1.45000000000000         3.365848913541258E-018
  -1.26000000000001         3.387251663101952E-018
  -1.06999999999999         3.396509499866310E-018
 -0.879999999999995         3.393140504513460E-018
 -0.689999999999998         3.380599473931532E-018
 -0.500000000000000         3.365223186625874E-018
 -0.310000000000002         3.354334311105593E-018
 -0.120000000000005         3.354058162094773E-018
  7.000000000000739E-002    3.367487096545625E-018
  0.260000000000005         3.393724422751179E-018
  0.450000000000003         3.428083978468741E-018
  0.640000000000001         3.463389671031531E-018
  0.829999999999998         3.492006317545216E-018
   1.02000000000000         3.508022724889189E-018
   1.21000000000001         3.508957467954455E-018
   1.40000000000001         3.496487466441559E-018
   1.59000000000000         3.475978088154312E-018
   1.78000000000000         3.454940713326550E-018
   1.97000000000000         3.440857763644967E-018
   2.16000000000000         3.439005374334013E-018
   2.34999999999999         3.450911707492776E-018
   2.54000000000001         3.473906125480858E-018
   2.73000000000000         3.501893740419590E-018
   2.92000000000000         3.527129640746234E-018
   3.11000000000000         3.542475103153566E-018
   3.30000000000000         3.543479017043767E-018
   3.48999999999999         3.529682228854847E-018
   3.68000000000001         3.504772698246629E-018
   3.87000000000000         3.475552444917880E-018
   4.06000000000000         3.450014831171352E-018
   4.25000000000000         3.435081642219075E-018
   4.44000000000000         3.434646796092890E-018
   4.63000000000000         3.448487205453892E-018
   4.82000000000001         3.472353469525541E-018
   5.01000000000001         3.499216331542436E-018
   5.20000000000000         3.521315227983451E-018
   5.39000000000000         3.532423152791208E-018
   5.58000000000000         3.529674175939064E-018
   5.77000000000000         3.514421160189580E-018
   5.96000000000001         3.491869384224505E-018
   6.15000000000001         3.469585824503461E-018
   6.34000000000000         3.455311974223018E-018
   6.53000000000000         3.454714903229860E-018