  -105.000000000000        -6.566507627862675E-020
  -104.810000000000        -1.465578115587275E-019
  -104.620000000000        -1.238413597973138E-019
  -104.430000000000        -4.050593940805256E-020
  -104.240000000000         7.746012949312991E-021
  -104.050000000000        -3.552378254406191E-020
  -103.860000000000        -1.339017729585987E-019
  -103.670000000000        -1.938427961376992E-019
  -103.480000000000        -1.553166225982197E-019
  -103.290000000000        -5.058075481216205E-020
  -103.100000000000         2.529886724562181E-020
  -102.910000000000         4.219152235121512E-021
  -102.720000000000        -9.057417898989288E-020
  -102.530000000000        -1.669712085993494E-019
  -102.340000000000        -1.518649159799007E-019
  -102.150000000000        -6.056308707848228E-020
  -101.960000000000         1.835031051769066E-020
  -101.770000000000         8.094961360714316E-021
  -101.580000000000        -8.257964904939653E-020
  -101.390000000000        -1.674765782423131E-019
  -101.200000000000        -1.651829443659763E-019
  -101.010000000000        -7.686711347492470E-020
  -100.820000000000         1.478828566752681E-020
  -100.630000000000         2.453986705601930E-020
  -100.440000000000        -5.403948050950886E-020
  -100.250000000000        -1.425146086106473E-019
  -100.060000000000        -1.526597955990138E-019
  -99.8700000000000        -7.099273534772312E-020
  -99.6800000000000         2.798512680846748E-020
  -99.4900000000000         5.264547543918601E-020
  -99.3000000000000        -1.833511315263415E-020
  -99.1100000000000        -1.154755673834138E-019
  -98.9200000000000        -1.445967297903402E-019
  -98.7300000000000        -7.650379319797140E-020
  -98.5400000000000         2.525698410916194E-020
  -98.3500000000000         6.494259225380740E-020
  -98.1600000000000         5.700805264483923E-021
  -97.9700000000000        -9.553846110710342E-020
  -97.7800000000000        -1.424837268213638E-019
  -97.5900000000000        -9.118919990373342E-020
  -97.4000000000000         8.516037310855174E-021
  -97.2100000000000         6.136288750445910E-020
  -97.0200000000000         1.837296541339040E-020
  -96.8300000000000        -7.586721050462578E-020
  -96.6400000000000        -1.256789391170725E-019
  -96.4500000000000        -7.601400888039273E-020
  -96.2600000000000         3.411687883545874E-020
  -96.0700000000000         1.075964564198220E-019
  -95.8800000000000         8.045462747483842E-020
  -95.6900000000000        -1.839716874305331E-020
  -95.5000000000000        -9.570705530268888E-020
  -95.3100000000000        -8.314912305030600E-020
  -95.1200000000000        -1.828338030018236E-021
  -94.9300000000000         5.953469157117179E-020
  -94.7400000000000         3.152098082136369E-020
  -94.5500000000000        -6.749462945729490E-020
  -94.3600000000000        -1.471772541210944E-019
  -94.1700000000000        -1.306871070726835E-019
  -93.9800000000000        -2.835492172894110E-020
  -93.7900000000000         7.093831308456326E-020
  -93.6000000000000         8.286629230005751E-020
  -93.4100000000000         6.312187634953728E-021
  -93.2200000000000        -7.720627743405989E-020
  -93.0300000000000        -8.254691697436186E-020
  -92.8400000000000        -2.845833761490718E-021
  -92.6500000000000         8.383112891798800E-020
  -92.4600000000000         8.937432587946098E-020
  -92.2700000000000         5.508407020691349E-022
  -92.0800000000000        -1.072072394438136E-019
  -91.8900000000000        -1.405439520933856E-019
  -91.7000000000000        -7.612315475178715E-020
  -91.5100000000000         1.808791606314230E-020
  -91.3200000000000         4.842664219087027E-020
  -91.1300000000000        -1.470466292449294E-020
  -90.9400000000000        -1.086301262730424E-019
  -90.7500000000000        -1.386114886444763E-019
  -90.5600000000000        -6.899282221964215E-020
  -90.3700000000000         4.171539009029015E-020
  -90.1800000000000         9.541308871252440E-020
  -89.9900000000000         4.677254973196978E-020
  -89.8000000000000        -5.454072367163297E-020
  -89.6100000000000        -1.118291086297303E-019
  -89.4200000000000        -7.348481335464451E-020
  -89.2300000000000         1.866793384240048E-020
  -89.0400000000000         7.063380625095005E-020
  -88.8500000000000         2.728974898705743E-020
  -88.6600000000000        -7.402088482146155E-020
  -88.4700000000000        -1.387063890199285E-019
  -88.2800000000000        -1.054080334188892E-019
  -88.0900000000000        -5.204799451327333E-021
  -87.9000000000000         6.731856122172968E-020
  -87.7100000000000         4.380237837703925E-020
  -87.5200000000000        -5.288969754893066E-020
  -87.3300000000000        -1.303917753536410E-019
  -87.1400000000000        -1.145540791239696E-019
  -86.9500000000000        -1.960444489333415E-020
  -86.7600000000000         6.593614844895444E-020
  -86.5700000000000         6.390160829249518E-020
  -86.3800000000000        -1.926450849917079E-020
  -86.1900000000000        -9.957025607938386E-020
  -86.0000000000000        -9.690012859805966E-020
  -85.8100000000000        -1.261504465954663E-020
  -85.6200000000000         7.117377524634271E-020
  -85.4300000000000         7.012432502974342E-020
  -85.2400000000000        -2.102209207467201E-020
  -85.0500000000000        -1.221116005608030E-019
  -84.8600000000000        -1.425825573307217E-019
  -84.6700000000000        -6.660402840009739E-020
  -84.4800000000000         3.263456795181234E-020
  -84.2900000000000         6.300025063887974E-020
  -84.1000000000000         9.069217738342301E-022
  -83.9100000000000        -8.727128704363212E-020
  -83.7200000000000        -1.100756783526998E-019
  -83.5300000000000        -3.982375316917364E-020
  -83.3400000000000         5.971469712740083E-020
  -83.1500000000000         9.350249802878516E-020
  -82.9600000000000         2.597794510208772E-020
  -82.7700000000000        -8.434252717364176E-020
  -82.5800000000000        -1.397278824897140E-019
  -82.3900000000000        -9.544959997046244E-020
  -82.2000000000000        -1.380686982033116E-021
  -82.0100000000000         4.674145584378640E-020
  -81.8200000000000        -2.089212477598318E-022
  -81.6300000000000        -9.691896924811931E-020
  -81.4400000000000        -1.462493031636546E-019
  -81.2500000000000        -9.185172617135317E-020
  -81.0600000000000         2.734627555850991E-020
  -80.8700000000000         1.127446476512310E-019
  -80.6800000000000         9.801587714999203E-020
  -80.4900000000000         1.002687135960447E-020
  -80.3000000000000        -5.894502648383729E-020
  -80.1100000000000        -4.070557101808128E-020
  -79.9200000000000         4.337300863688162E-020
  -79.7300000000000         1.033709555584611E-019
  -79.5400000000000         6.808619502163387E-020
  -79.3500000000000        -4.497274132674682E-020
  -79.1600000000000        -1.439878226321200E-019
  -78.9700000000000        -1.483254610534373E-019
  -78.7800000000000        -6.392759940688140E-020
  -78.5900000000000         2.312174610980391E-020
  -78.4000000000000         2.860012326096254E-020
  -78.2100000000000        -5.050866648089463E-020
  -78.0200000000000        -1.347078133865984E-019
  -77.8300000000000        -1.393599995429369E-019
  -77.6400000000000        -5.636879080484589E-020
  -77.4500000000000         3.798316432273943E-020
  -77.2600000000000         5.637981394917272E-020
  -77.0700000000000        -1.540218288184745E-020
  -76.8800000000000        -1.043899974663160E-019
  -76.6900000000000        -1.201124774385069E-019
  -76.5000000000000        -4.150932985334409E-020
  -76.3100000000000         6.218595445571930E-020
  -76.1200000000000         9.677072082889260E-020
  -75.9300000000000         3.243661283996029E-020
  -75.7400000000000        -6.797584062350827E-020
  -75.5500000000000        -1.087807978832924E-019
  -75.3600000000000        -5.235054630654842E-020
  -75.1700000000000         4.554983471473933E-020
  -74.9800000000000         8.970087495490111E-020
  -74.7900000000000         3.704388698778053E-020
  -74.6000000000000        -6.171922997845763E-020
  -74.4100000000000        -1.104405929050585E-019
  -74.2200000000000        -5.966646722332519E-020
  -74.0300000000000         4.542270829696527E-020
  -73.8400000000000         1.071988548387994E-019
  -73.6500000000000         6.790006308520845E-020
  -73.4600000000000        -3.581592537900953E-020
  -73.2700000000000        -1.081050413403579E-019
  -73.0800000000000        -8.537187165535106E-020
  -72.8900000000000         3.361313703395873E-021
  -72.7000000000000         6.473906955599526E-020
  -72.5100000000000         3.090204670070871E-020
  -72.3200000000000        -7.492564261643226E-020
  -72.1300000000000        -1.596164793194153E-019
  -71.9400000000000        -1.478706676846149E-019
  -71.7500000000000        -5.297108753687984E-020
  -71.5600000000000         3.667666749107501E-020
  -71.3700000000000         4.212040310429452E-020
  -71.1800000000000        -3.137384731094758E-020
  -70.9900000000000        -1.007884490794818E-019
  -70.8000000000000        -8.663904693814917E-020
  -70.6100000000000         8.983303992460314E-021
  -70.4200000000000         1.025746871258577E-019
  -70.2300000000000         1.077874640534610E-019
  -70.0400000000000         1.764519804839268E-020
  -69.8500000000000        -8.806205556404269E-020
  -69.6600000000000        -1.175213012424769E-019
  -69.4700000000000        -5.278543487126595E-020
  -69.2800000000000         3.488683233905170E-020
  -69.0900000000000         5.457966603117425E-020
  -68.9000000000000        -1.657172718508303E-020
  -68.7100000000000        -1.114097637312491E-019
  -68.5200000000000        -1.373749565861878E-019
  -68.3300000000000        -6.577336391633378E-020
  -68.1400000000000         3.978169445983809E-020
  -67.9500000000000         8.318170670825019E-020
  -67.7600000000000         2.703722909511563E-020
  -67.5700000000000        -7.172349405739807E-020
  -67.3800000000000        -1.159879478603720E-019
  -67.1900000000000        -6.083052397994092E-020
  -67.0000000000000         4.385798446646671E-020
  -66.8100000000000         1.009510021113138E-019
  -66.6200000000000         5.835612039533642E-020
  -66.4300000000000        -4.194920813449692E-020
  -66.2400000000000        -1.046439395706517E-019
  -66.0500000000000        -7.245392796045980E-020
  -65.8600000000000         1.919986859435019E-020
  -65.6700000000000         7.657211391195905E-020
  -65.4800000000000         3.807440934853196E-020
  -65.2900000000000        -6.582582997674543E-020
  -65.1000000000000        -1.407572801298202E-019
  -64.9100000000000        -1.178690776062045E-019
  -64.7200000000000        -1.917474883847276E-020
  -64.5300000000000         6.353470126601054E-020
  -64.3400000000000         5.608106336523092E-020
  -64.1500000000000        -2.781165342855642E-020
  -63.9600000000000        -1.004534028981611E-019
  -63.7700000000000        -8.502198644925798E-020
  -63.5800000000000         9.890442717209379E-021
  -63.3900000000000         9.745705414480415E-020
  -63.2000000000000         9.484320953423234E-020
  -63.0100000000000         2.084438931985509E-021
  -62.8200000000000        -9.759840858248003E-020
  -62.6300000000000        -1.163881160560489E-019
  -62.4400000000000        -4.455782697627706E-020
  -62.2500000000000         4.146870835058307E-020
  -62.0600000000000         5.328793206359848E-020
  -61.8700000000000        -2.399689329848064E-020
  -61.6800000000000        -1.168042679309576E-019
  -61.4900000000000        -1.331179517127389E-019
  -61.3000000000000        -5.077674815986312E-020
  -61.1100000000000         6.024959158687346E-020
  -60.9200000000000         1.029676412537578E-019
  -60.7300000000000         4.404899207660852E-020
  -60.5400000000000        -5.597113453421705E-020
  -60.3500000000000        -1.014073260403913E-019
  -60.1600000000000        -5.278956879340434E-020
  -59.9700000000000         3.635290386443206E-020
  -59.7800000000000         7.214531992687839E-020
  -59.5900000000000         1.169696229983498E-020
  -59.4000000000000        -9.451491585675030E-020
  -59.2100000000000        -1.498182642208567E-019
  -59.0200000000000        -1.030348952449441E-019
  -58.8300000000000         2.826702226140803E-021
  -58.6400000000000         7.134924787168021E-020
  -58.4500000000000         4.408361752132356E-020
  -58.2600000000000        -4.465222899395724E-020
  -58.0700000000000        -1.017904667558759E-019
  -57.8800000000000        -6.564534180408493E-020
  -57.6900000000000         3.420760616572973E-020
  -57.5000000000000         1.046549432799099E-019
  -57.3100000000000         7.788548323000684E-020
  -57.1200000000000        -2.357164304132434E-020
  -56.9300000000000        -1.078446410292884E-019
  -56.7400000000000        -1.008688245406802E-019
  -56.5500000000000        -1.652499684794757E-020
  -56.3600000000000         5.733884745132336E-020
  -56.1700000000000         4.375663523752620E-020
  -55.9800000000000        -4.878777231590192E-020
  -55.7900000000000        -1.335347124982964E-019
  -55.6000000000000        -1.277214000388942E-019
  -55.4100000000000        -3.155153943588653E-020
  -55.2200000000000         7.144531878965917E-020
  -55.0300000000000         9.310567393418688E-020
  -54.8400000000000         2.351911461036688E-020
  -54.6500000000000        -6.078572903625347E-020
  -54.4600000000000        -7.105884659693305E-020
  -54.2700000000000         7.996870498582365E-021
  -54.0800000000000         1.029786423627992E-019
  -53.8900000000000         1.215402818005124E-019
  -53.7000000000000         4.056605414508183E-020
  -53.5100000000000        -7.133183415852467E-020
  -53.3200000000000        -1.184332464652679E-019
  -53.1300000000000        -6.810410153564486E-020
  -52.9400000000000         1.932531552222375E-020
  -52.7500000000000         4.939051365054221E-020
  -52.5600000000000        -1.524579170721726E-020
  -52.3700000000000        -1.183925516036487E-019
  -52.1800000000000        -1.636352077692187E-019
  -51.9900000000000        -1.064137902245789E-019
  -51.8000000000000         3.067538164816884E-021
  -51.6100000000000         6.702997950906434E-020
  -51.4200000000000         3.239584541573611E-020
  -51.2300000000000        -5.977058177978492E-020
  -51.0400000000000        -1.146596186103640E-019
  -50.8500000000000        -7.519459422159720E-020
  -50.6600000000000         2.296692057203965E-020
  -50.4700000000000         8.557424190792055E-020
  -50.2800000000000         5.041690587629521E-020
  -50.0900000000000        -5.225828438611911E-020
  -49.9000000000000        -1.273841391273186E-019
  -49.7100000000000        -1.045771017815226E-019
  -49.5200000000000        -4.377353063453351E-021
  -49.3300000000000         8.173734198995188E-020
  -49.1400000000000         7.841744079456705E-020
  -48.9500000000000        -2.457746932406510E-021
  -48.7600000000000        -7.439138734698665E-020
  -48.5700000000000        -6.029848639218163E-020
  -48.3800000000000         3.261485192320892E-020
  -48.1900000000000         1.188364470297497E-019
  -48.0000000000000         1.157184267527744E-019
  -47.8100000000000         2.232829215880067E-020
  -47.6200000000000        -7.929553251566437E-020
  -47.4300000000000        -1.017442296727745E-019
  -47.2400000000000        -3.471283578043512E-020
  -47.0500000000000         4.632338075662495E-020
  -46.8600000000000         5.339377794193896E-020
  -46.6700000000000        -2.894513058798415E-020
  -46.4800000000000        -1.282392797895346E-019
  -46.2900000000000        -1.530725079257493E-019
  -46.1000000000000        -8.033688738603760E-020
  -45.9100000000000         2.258017400967697E-020
  -45.7200000000000         6.191861227197030E-020
  -45.5300000000000         6.781653179635554E-021
  -45.3400000000000        -8.179431970346538E-020
  -45.1500000000000        -1.098459608714109E-019
  -44.9600000000000        -4.123343657425346E-020
  -44.7700000000000         6.673067819701496E-020
  -44.5800000000000         1.170533818659615E-019
  -44.3900000000000         6.506867219572449E-020
  -44.2000000000000        -3.906012412508299E-020
  -44.0100000000000        -9.793717948406586E-020
  -43.8200000000000        -5.937777759532282E-020
  -43.6300000000000         3.436120151859586E-020
  -43.4400000000000         8.755467198687952E-020
  -43.2500000000000         4.314694624174439E-020
  -43.0600000000000        -6.195147143950108E-020
  -42.8700000000000        -1.313349943405398E-019
  -42.6800000000000        -1.005496883805478E-019
  -42.4900000000000         1.650929081867316E-021
  -42.3000000000000         8.056413454856333E-020
  -42.1100000000000         6.529038080100973E-020
  -41.9200000000000        -2.447819635087503E-020
  -41.7300000000000        -9.814952296325235E-020
  -41.5400000000000        -8.149272758799701E-020
  -41.3500000000000         1.188269153177323E-020
  -41.1600000000000         9.308986434714216E-020
  -40.9700000000000         8.253454446963776E-020
  -40.7800000000000        -1.424737503199249E-020
  -40.5900000000000        -1.117136344413728E-019
  -40.4000000000000        -1.253058216029139E-019
  -40.2100000000000        -5.101511078138595E-020
  -40.0200000000000         3.217998055253248E-020
  -39.8300000000000         3.903004121361516E-020
  -39.6400000000000        -3.964694411942745E-020
  -39.4500000000000        -1.278702860037244E-019
  -39.2600000000000        -1.373781198187883E-019
  -39.0700000000000        -5.268373231839117E-020
  -38.8800000000000         5.317118330610819E-020
  -38.6900000000000         8.734922820698062E-020
  -38.5000000000000         2.491019872576379E-020
  -38.3100000000000        -6.813150257227065E-020
  -38.1200000000000        -9.831970934879811E-020
  -37.9300000000000        -3.418036336468645E-020
  -37.7400000000000         6.387579168791824E-020
  -37.5500000000000         1.017412959766982E-019
  -37.3600000000000         4.216490931544692E-020
  -37.1700000000000        -5.905391587320815E-020
  -36.9800000000000        -1.059143876059764E-019
  -36.7900000000000        -5.363348218170633E-020
  -36.6000000000000         4.866849851066683E-020
  -36.4100000000000         1.048145338568408E-019
  -36.2200000000000         6.334138672247041E-020
  -36.0300000000000        -3.337445970029283E-020
  -35.8400000000000        -8.966191608828887E-020
  -35.6500000000000        -4.819789889114171E-020
  -35.4600000000000         5.474784611882467E-020
  -35.2700000000000         1.232694114134775E-019
  -35.0800000000000         9.262648215003572E-020
  -34.8900000000000        -9.636611775195821E-021
  -34.7000000000000        -9.036659115306331E-020
  -34.5100000000000        -7.967207634268114E-020
  -34.3200000000000         2.852657436117285E-021
  -34.1300000000000         6.775944846746505E-020
  -33.9400000000000         4.241910746233287E-020
  -33.7500000000000        -5.827328417596722E-020
  -33.5600000000000        -1.450027577069161E-019
  -33.3700000000000        -1.386262247075183E-019
  -33.1800000000000        -4.553629279928445E-020
  -32.9900000000000         4.813542752511741E-020
  -32.8000000000000         5.801150262789563E-020
  -32.6100000000000        -1.892377098211218E-020
  -32.4200000000000        -1.023922640680740E-019
  -32.2300000000000        -1.063310580254438E-019
  -32.0400000000000        -2.178993879468136E-020
  -31.8500000000000         7.402417464331276E-020
  -31.6600000000000         9.121586537759441E-020
  -31.4700000000000         1.297526085739554E-020
  -31.2800000000000        -8.824136723370402E-020
  -31.0900000000000        -1.195273987960406E-019
  -30.9000000000000        -5.569282762581873E-020
  -30.7100000000000         3.727925151574507E-020
  -30.5200000000000         6.588370921395323E-020
  -30.3300000000000        -8.574656399922343E-022
  -30.1400000000000        -1.009999058607451E-019
  -29.9500000000000        -1.381443378058647E-019
  -29.7600000000000        -7.309492116458252E-020
  -29.5700000000000         3.867100499170947E-020
  -29.3800000000000         9.935224709983591E-020
  -29.1900000000000         6.102905354735231E-020
  -29.0000000000000        -3.002449220094653E-020
  -28.8100000000000        -7.886641305729555E-020
  -28.6200000000000        -3.353451833008623E-020
  -28.4300000000000         6.484679897080526E-020
  -28.2400000000000         1.214033018373340E-019
  -28.0500000000000         7.858941814604595E-020
  -27.8600000000000        -2.821060561237145E-020
  -27.6700000000000        -1.037715661461375E-019
  -27.4800000000000        -8.320202707887086E-020
  -27.2900000000000         6.835917039490314E-021
  -27.1000000000000         7.418625552848948E-020
  -26.9100000000000         4.962033291205990E-020
  -26.7200000000000        -4.677588336236746E-020
  -26.5300000000000        -1.246642264197599E-019
  -26.3400000000000        -1.097792460687838E-019
  -26.1500000000000        -1.499759126492087E-020
  -25.9600000000000         7.176723280499426E-020
  -25.7700000000000         7.119666418466144E-020
  -25.5800000000000        -1.221822034310312E-020
  -25.3900000000000        -9.514738764418866E-020
  -25.2000000000000        -9.572250724820715E-020
  -25.0100000000000        -1.235898081163527E-020
  -24.8200000000000         7.441200205537102E-020
  -24.6300000000000         7.910979256058640E-020
  -24.4400000000000        -6.215666782749210E-021
  -24.2500000000000        -1.032206749400746E-019
  -24.0600000000000        -1.208895169535246E-019
  -23.8700000000000        -4.148877197432740E-020
  -23.6800000000000         6.295483632760074E-020
  -23.4900000000000         9.920890394202645E-020
  -23.3000000000000         4.103615170792752E-020
  -23.1100000000000        -4.695461795034425E-020
  -22.9200000000000        -7.239282971491381E-020
  -22.7300000000000        -4.725744631441671E-021
  -22.5400000000000         9.452939497551172E-020
  -22.3500000000000         1.299620071170071E-019
  -22.1600000000000         6.335064327274319E-020
  -21.9700000000000        -4.936543107292510E-020
  -21.7800000000000        -1.105982091665835E-019
  -21.5900000000000        -7.317485691781979E-020
  -21.4000000000000         1.566616765084348E-020
  -21.2100000000000         6.023897578637122E-020
  -21.0200000000000         8.508131311635158E-021
  -20.8300000000000        -9.760233856485057E-020
  -20.6400000000000        -1.617848238759908E-019
  -20.4500000000000        -1.250041004489977E-019
  -20.2600000000000        -2.167367730244780E-020
  -20.0700000000000         5.320666107371248E-020
  -19.8800000000000         3.446324317807823E-020
  -19.6900000000000        -5.159402132347306E-020
  -19.5000000000000        -1.130640157448636E-019
  -19.3100000000000        -8.115551071492629E-020
  -19.1200000000000         2.306987017946840E-020
  -18.9300000000000         1.078394115221951E-019
  -18.7400000000000         9.758029696462828E-020
  -18.5500000000000         4.661046855375187E-021
  -18.3600000000000        -8.247193133511194E-020
  -18.1700000000000        -8.335760800512117E-020
  -17.9800000000000        -1.617694481503727E-021
  -17.7900000000000         7.933335321475595E-020
  -17.6000000000000         7.674844303402418E-020
  -17.4100000000000        -1.163565771776303E-020
  -17.2200000000000        -1.046933373894609E-019
  -17.0300000000000        -1.148122141423867E-019
  -16.8400000000000        -3.121559102451169E-020
  -16.6500000000000         6.982581228910732E-020
  -16.4600000000000         9.751043884650508E-020
  -16.2700000000000         3.241493782807299E-020
  -16.0800000000000        -5.612289441714694E-020
  -15.8900000000000        -7.753755448661951E-020
  -15.7000000000000        -7.817980276572554E-021
  -15.5100000000000         8.652485671638998E-020
  -15.3200000000000         1.114854885745818E-019
  -15.1300000000000         3.553147330277476E-020
  -14.9400000000000        -7.947601216720322E-020
  -14.7500000000000        -1.360211623537232E-019
  -14.5600000000000        -9.228604592328795E-020
  -14.3700000000000        -1.714338208630036E-022
  -14.1800000000000         4.588594928234678E-020
  -13.9900000000000         1.149854053235451E-022
  -13.8000000000000        -9.059716527830897E-020
  -13.6100000000000        -1.320151188258162E-019
  -13.4200000000000        -7.384605547884548E-020
  -13.2300000000000         4.048625388342007E-020
  -13.0400000000000         1.135347476059790E-019
  -12.8500000000000         8.537409643970428E-020
  -12.6600000000000        -1.023056077422824E-020
  -12.4700000000000        -7.851858026560576E-020
  -12.2800000000000        -5.409274568456932E-020
  -12.0900000000000         3.714657598194634E-020
  -11.9000000000000         1.034915609634682E-019
  -11.7100000000000         7.596161760117535E-020
  -11.5200000000000        -2.480085652043096E-020
  -11.3300000000000        -1.073980358518075E-019
  -11.1400000000000        -9.640182705703590E-020
  -10.9500000000000        -4.083362771344944E-021
  -10.7600000000000         8.133869852667393E-020
  -10.5700000000000         7.967299036876916E-020
  -10.3800000000000        -5.135053138940221E-021
  -10.1900000000000        -8.928986611844313E-020
  -10.0000000000000        -8.971858890342171E-020
  -9.81000000000000        -4.002836480121625E-021
  -9.62000000000000         8.676979504104343E-020
  -9.42999999999999         9.507729210266270E-020
  -9.23999999999999         1.037179772983577E-020
  -9.05000000000000        -9.080160572809681E-020
  -8.86000000000000        -1.175664926506493E-019
  -8.67000000000000        -5.093097998009708E-020
  -8.48000000000000         3.868885654832053E-020
  -8.28999999999999         5.930357832881484E-020
  -8.09999999999999        -1.417253724697074E-020
  -7.91000000000000        -1.153409142848817E-019
  -7.72000000000000        -1.492739125373885E-019
  -7.53000000000000        -8.294615691991720E-020
  -7.34000000000000         2.325839969376735E-020
  -7.15000000000001         7.302251589994405E-020
  -6.95999999999999         2.562805475156861E-020
  -6.77000000000000        -6.576849275602268E-020
  -6.58000000000000        -1.055593487156197E-019
  -6.39000000000000        -4.772698681310240E-020
  -6.20000000000000         5.937731848324365E-020
  -6.01000000000001         1.184200875548766E-019
  -5.81999999999999         7.545297292680962E-020
  -5.63000000000000        -2.886576150979672E-020
  -5.44000000000000        -9.798652305480784E-020
  -5.25000000000000        -7.101840157840809E-020
  -5.06000000000000         2.020547273299490E-020
  -4.87000000000000         8.272017591372098E-020
  -4.67999999999999         5.227651754533898E-020
  -4.48999999999999        -4.443846695055887E-020
  -4.30000000000000        -1.147472757044576E-019
  -4.11000000000000        -8.840709297500627E-020
  -3.92000000000000         1.496055558775557E-020
  -3.73000000000000         1.039525869449309E-019
  -3.53999999999999         1.017529579507793E-019
  -3.34999999999999         1.837371766851376E-020
  -3.16000000000000        -5.998422137317522E-020
  -2.97000000000000        -5.404420250935602E-020
  -2.78000000000000         3.241712922733134E-020
  -2.59000000000000         1.161529597307907E-019
  -2.40000000000001         1.143340233461165E-019
  -2.20999999999999         2.429225556170496E-020
  -2.02000000000000        -7.332459070833734E-020
  -1.83000000000000        -9.112661987952844E-020
  -1.64000000000000        -1.806893473436232E-020
  -1.45000000000000         7.034168208851607E-020
  -1.26000000000001         8.441856130104989E-020
  -1.06999999999999         6.156295712027764E-021
 -0.879999999999995        -9.336261939339144E-020
 -0.689999999999998        -1.217316982705202E-019
 -0.500000000000000        -5.355744960749088E-020
 -0.310000000000002         4.507034775794441E-020
 -0.120000000000005         7.950301193172908E-020
  7.000000000000739E-002    1.678476715772253E-020
  0.260000000000005        -8.299555592212746E-020
  0.450000000000003        -1.241821467650278E-019
  0.640000000000001        -6.701007676541493E-020
  0.829999999999998         3.420367392934306E-020
   1.02000000000000         8.268525500453666E-020
   1.21000000000001         3.158842977238956E-020
   1.40000000000001        -7.098910337262019E-020
   1.59000000000000        -1.274829300327000E-019
   1.78000000000000        -8.353765037739021E-020
   1.97000000000000         2.055021400071578E-020
   2.16000000000000         8.859936006805722E-020
   2.34999999999999         6.035756282693327E-020
   2.54000000000001        -3.125259162916771E-020
   2.73000000000000        -9.197640914624775E-020
   2.92000000000000        -5.675799030110036E-020
   3.11000000000000         4.742543242555169E-020
   3.30000000000000         1.265020296238952E-019
   3.48999999999999         1.083348093199996E-019
   3.68000000000001         1.090708283463528E-020
   3.87000000000000        -7.529961932296925E-020
   4.06000000000000        -7.368652503062528E-020
   4.25000000000000         5.852638046832169E-021
   4.44000000000000         7.724700912009068E-020
   4.63000000000000         6.149572260646988E-020
   4.82000000000001        -3.667979130007235E-020
   5.01000000000001        -1.321011642627305E-019
   5.20000000000000        -1.394128486667605E-019
   5.39000000000000        -5.380958161817086E-020
   5.58000000000000         4.485419373169655E-020
   5.77000000000000         6.834762067132883E-020
   5.96000000000001         3.733844240266709E-021
   6.15000000000001        -7.539979058075774E-020
   6.34000000000000        -8.065080687944408E-020
   6.53000000000000         5.214892415194055E-021