  -105.000000000000        -4.829567021599777E-019
  -104.810000000000        -1.119971441988081E-019
  -104.620000000000         2.790731640220514E-019
  -104.430000000000         3.338461890803164E-019
  -104.240000000000         2.103958966324174E-020
  -104.050000000000        -3.392823811051164E-019
  -103.860000000000        -3.842728096564852E-019
  -103.670000000000        -5.658427665940250E-020
  -103.480000000000         3.399384018694389E-019
  -103.290000000000         4.303777748946939E-019
  -103.100000000000         1.277055255917734E-019
  -102.910000000000        -2.827423371595868E-019
  -102.720000000000        -4.144482338627820E-019
  -102.530000000000        -1.474453921678876E-019
  -102.340000000000         2.585456331182635E-019
  -102.150000000000         4.129787495336427E-019
  -101.960000000000         1.674452773305930E-019
  -101.770000000000        -2.428789013694326E-019
  -101.580000000000        -4.241070085343856E-019
  -101.390000000000        -2.003960491223256E-019
  -101.200000000000         2.173453427020049E-019
  -101.010000000000         4.325527669653517E-019
  -100.820000000000         2.419033256364034E-019
  -100.630000000000        -1.703869129037765E-019
  -100.440000000000        -4.085618236112654E-019
  -100.250000000000        -2.433703506016777E-019
  -100.060000000000         1.686470256577349E-019
  -99.8700000000000         4.339377070472658E-019
  -99.6800000000000         2.973824111710458E-019
  -99.4900000000000        -1.135504481025078E-019
  -99.3000000000000        -4.095195348356395E-019
  -99.1100000000000        -3.102499618944293E-019
  -98.9200000000000         8.846595062071433E-020
  -98.7300000000000         4.065214006627205E-019
  -98.5400000000000         3.418590632902328E-019
  -98.3500000000000        -4.244163631175156E-020
  -98.1600000000000        -3.794891940679377E-019
  -97.9700000000000        -3.491649974681402E-019
  -97.7800000000000         1.656227300862128E-020
  -97.5900000000000         3.649900663078746E-019
  -97.4000000000000         3.608230947289481E-019
  -97.2100000000000         7.712533551261862E-021
  -97.0200000000000        -3.545536372032598E-019
  -96.8300000000000        -3.745227202876211E-019
  -96.6400000000000        -2.511385690068766E-020
  -96.4500000000000         3.693462742881144E-019
  -96.2600000000000         4.406948269000208E-019
  -96.0700000000000         1.261208837561102E-019
  -95.8800000000000        -2.736585864696023E-019
  -95.6900000000000        -3.826728150193359E-019
  -95.5000000000000        -1.089659179549989E-019
  -95.3100000000000         2.689161094162379E-019
  -95.1200000000000         3.709651448328128E-019
  -94.9300000000000         8.243477921357867E-020
  -94.7400000000000        -3.329736117563949E-019
  -94.5500000000000        -4.821834216359906E-019
  -94.3600000000000        -2.170354063190046E-019
  -94.1700000000000         2.229590266579175E-019
  -93.9800000000000         4.362428844431911E-019
  -93.7900000000000         2.390616773576104E-019
  -93.6000000000000        -1.624130495637559E-019
  -93.4100000000000        -3.717222610243360E-019
  -93.2200000000000        -1.822755397310643E-019
  -93.0300000000000         2.253098105903902E-019
  -92.8400000000000         4.564691003471736E-019
  -92.6500000000000         2.804120025497152E-019
  -92.4600000000000        -1.481829158089340E-019
  -92.2700000000000        -4.349485001282845E-019
  -92.0800000000000        -3.203811875366495E-019
  -91.8900000000000         7.400956737309498E-020
  -91.7000000000000         3.630828526251205E-019
  -91.5100000000000         2.668067396091394E-019
  -91.3200000000000        -1.221614934949822E-019
  -91.1300000000000        -4.274244338091384E-019
  -90.9400000000000        -3.488130799476732E-019
  -90.7500000000000         5.028115472965686E-020
  -90.5600000000000         4.020639698146867E-019
  -90.3700000000000         3.836488585112022E-019
  -90.1800000000000         2.353912081207720E-020
  -89.9900000000000        -3.273252529071537E-019
  -89.8000000000000        -3.322926956093825E-019
  -89.6100000000000         8.847715652534423E-021
  -89.4200000000000         3.606729442475487E-019
  -89.2300000000000         3.747681281651045E-019
  -89.0400000000000         2.525415336463264E-020
  -88.8500000000000        -3.637346264573579E-019
  -88.6600000000000        -4.255328810746222E-019
  -88.4700000000000        -1.006985347931498E-019
  -88.2800000000000         3.048369697246600E-019
  -88.0900000000000         4.097048181365560E-019
  -87.9000000000000         1.190959581996164E-019
  -87.7100000000000        -2.865037230558166E-019
  -87.5200000000000        -4.199593384280794E-019
  -87.3300000000000        -1.563842960079343E-019
  -87.1400000000000         2.494952795389916E-019
  -86.9500000000000         4.084576905496978E-019
  -86.7600000000000         1.698319074423295E-019
  -86.5700000000000        -2.338129639705817E-019
  -86.3800000000000        -4.090035942446271E-019
  -86.1900000000000        -1.787903951705064E-019
  -86.0000000000000         2.457591718481018E-019
  -85.8100000000000         4.646964922680090E-019
  -85.6200000000000         2.692236535036563E-019
  -85.4300000000000        -1.598414403234538E-019
  -85.2400000000000        -4.239872074932307E-019
  -85.0500000000000        -2.851877901230161E-019
  -84.8600000000000         1.097802865525811E-019
  -84.6700000000000         3.723081922100286E-019
  -84.4800000000000         2.454770181738963E-019
  -84.2900000000000        -1.491231721556323E-019
  -84.1000000000000        -4.277866729393594E-019
  -83.9100000000000        -3.130222106314491E-019
  -83.7200000000000         9.887250244159914E-020
  -83.5300000000000         4.271547248215638E-019
  -83.3400000000000         3.679487051501612E-019
  -83.1500000000000        -1.678553867474304E-020
  -82.9600000000000        -3.581743145955401E-019
  -82.7700000000000        -3.316956901911608E-019
  -82.5800000000000         3.370503254494058E-020
  -82.3900000000000         3.837204174102407E-019
  -82.2000000000000         3.773467530684367E-019
  -82.0100000000000         1.263352267731003E-020
  -81.8200000000000        -3.712088851416598E-019
  -81.6300000000000        -4.165575312572861E-019
  -81.4400000000000        -8.680541408679116E-020
  -81.2500000000000         3.005693992629252E-019
  -81.0600000000000         3.780852763612362E-019
  -80.8700000000000         7.912004169753859E-020
  -80.6800000000000        -2.995461404963800E-019
  -80.4900000000000        -3.833564721401356E-019
  -80.3000000000000        -8.043271177466624E-020
  -80.1100000000000         3.282273421675314E-019
  -79.9200000000000         4.551550903099015E-019
  -79.7300000000000         1.750594531788375E-019
  -79.5400000000000        -2.556312070965848E-019
  -79.3500000000000        -4.419310881776874E-019
  -79.1600000000000        -2.244443076626908E-019
  -78.9700000000000         1.719788686326468E-019
  -78.7800000000000         3.566029192937449E-019
  -78.5900000000000         1.488930866313213E-019
  -78.4000000000000        -2.481301944383675E-019
  -78.2100000000000        -4.433279097200723E-019
  -78.0200000000000        -2.341464269032648E-019
  -77.8300000000000         1.963388425168132E-019
  -77.6400000000000         4.510531583981486E-019
  -77.4500000000000         2.962402191033986E-019
  -77.2600000000000        -1.152492261126153E-019
  -77.0700000000000        -3.885502777464864E-019
  -76.8800000000000        -2.624160765715213E-019
  -76.6900000000000         1.423227799033705E-019
  -76.5000000000000         4.387707052875687E-019
  -76.3100000000000         3.433690289493935E-019
  -76.1200000000000        -5.416400524211082E-020
  -75.9300000000000        -3.773542439413254E-019
  -75.7400000000000        -3.226431572748777E-019
  -75.5500000000000         5.098727278113267E-020
  -75.3600000000000         3.786866772044573E-019
  -75.1700000000000         3.389497827212186E-019
  -74.9800000000000        -3.794127454853650E-020
  -74.7900000000000        -3.973931364408411E-019
  -74.6000000000000        -3.981958350276830E-019
  -74.4100000000000        -3.806374926254810E-020
  -74.2200000000000         3.435688761208618E-019
  -74.0300000000000         3.879816802432935E-019
  -73.8400000000000         5.771425477730969E-020
  -73.6500000000000        -3.288453559459775E-019
  -73.4600000000000        -4.017325311791909E-019
  -73.2700000000000        -9.248407992215768E-020
  -73.0800000000000         3.011566687007839E-019
  -72.8900000000000         4.008033479290767E-019
  -72.7000000000000         1.098858964462147E-019
  -72.5100000000000        -2.938291748545472E-019
  -72.3200000000000        -4.237836990032994E-019
  -72.1300000000000        -1.541816943754792E-019
  -71.9400000000000         2.593169953103226E-019
  -71.7500000000000         4.231106970822248E-019
  -71.5600000000000         1.813997838189223E-019
  -71.3700000000000        -2.344982565511131E-019
  -71.1800000000000        -4.263253731873691E-019
  -70.9900000000000        -2.085226440992505E-019
  -70.8000000000000         2.151793892570419E-019
  -70.6100000000000         4.462085393969958E-019
  -70.4200000000000         2.702745426785899E-019
  -70.2300000000000        -1.402694674700398E-019
  -70.0400000000000        -3.927421789446504E-019
  -69.8500000000000        -2.498065851432350E-019
  -69.6600000000000         1.440367545941418E-019
  -69.4700000000000         4.015230192231380E-019
  -69.2800000000000         2.645063608064987E-019
  -69.0900000000000        -1.471940160065655E-019
  -68.9000000000000        -4.484051342522942E-019
  -68.7100000000000        -3.552238486746615E-019
  -68.5200000000000         4.445279923025737E-020
  -68.3300000000000         3.745442029336210E-019
  -68.1400000000000         3.288553847575742E-019
  -67.9500000000000        -3.773771768039008E-020
  -67.7600000000000        -3.630320692249339E-019
  -67.5700000000000        -3.252185281420465E-019
  -67.3800000000000         4.797231209588497E-020
  -67.1900000000000         4.049769514912165E-019
  -67.0000000000000         4.064906229106003E-019
  -66.8100000000000         5.015121743264735E-020
  -66.6200000000000        -3.266627195501904E-019
  -66.4300000000000        -3.685379317250160E-019
  -66.2400000000000        -4.128282225007653E-020
  -66.0500000000000         3.350864326873284E-019
  -65.8600000000000         3.917795816832899E-019
  -65.6700000000000         6.410412522541924E-020
  -65.4800000000000        -3.453152046630762E-019
  -65.2900000000000        -4.537313358085028E-019
  -65.1000000000000        -1.618909605507964E-019
  -64.9100000000000         2.524239231289164E-019
  -64.7200000000000         3.993089410285351E-019
  -64.5300000000000         1.473365328422821E-019
  -64.3400000000000        -2.528039625980898E-019
  -64.1500000000000        -4.090853520923403E-019
  -63.9600000000000        -1.637704034979686E-019
  -63.7700000000000         2.547925129160022E-019
  -63.5800000000000         4.496760727582591E-019
  -63.3900000000000         2.345072249413035E-019
  -63.2000000000000        -1.881974386681739E-019
  -63.0100000000000        -4.197285942310570E-019
  -62.8200000000000        -2.447426801797859E-019
  -62.6300000000000         1.643198657566569E-019
  -62.4400000000000         4.126980630444348E-019
  -62.2500000000000         2.607689292167292E-019
  -62.0600000000000        -1.469565169632482E-019
  -61.8700000000000        -4.204034150345265E-019
  -61.6800000000000        -2.975267522956275E-019
  -61.4900000000000         1.048461569833538E-019
  -61.3000000000000         4.028215921751943E-019
  -61.1100000000000         3.124242293448569E-019
  -60.9200000000000        -7.910337901344545E-020
  -60.7300000000000        -3.964769706206105E-019
  -60.5400000000000        -3.346636342856112E-019
  -60.3500000000000         4.936263240786222E-020
  -60.1600000000000         3.901430311503830E-019
  -59.9700000000000         3.620922473587130E-019
  -59.7800000000000        -9.721448706255044E-021
  -59.5900000000000        -3.731955510339852E-019
  -59.4000000000000        -3.844771874379991E-019
  -59.2100000000000        -3.494403430320582E-020
  -59.0200000000000         3.414219326208512E-019
  -58.8300000000000         3.868269899893529E-019
  -58.6400000000000         6.082270939953070E-020
  -58.4500000000000        -3.214525464695076E-019
  -58.2600000000000        -3.908094344193403E-019
  -58.0700000000000        -7.748814902456918E-020
  -57.8800000000000         3.215738738690585E-019
  -57.6900000000000         4.261533360387728E-019
  -57.5000000000000         1.357207836137148E-019
  -57.3100000000000        -2.747294488739988E-019
  -57.1200000000000        -4.170520150749525E-019
  -56.9300000000000        -1.599189878381907E-019
  -56.7400000000000         2.465786573179904E-019
  -56.5500000000000         4.106707403220723E-019
  -56.3600000000000         1.739642318041636E-019
  -56.1700000000000        -2.370659007690895E-019
  -55.9800000000000        -4.282280071386962E-019
  -55.7900000000000        -2.152935961883597E-019
  -55.6000000000000         1.993160669555966E-019
  -55.4100000000000         4.195328663344860E-019
  -55.2200000000000         2.339061653977506E-019
  -55.0300000000000        -1.817084781946274E-019
  -54.8400000000000        -4.306980604246569E-019
  -54.6500000000000        -2.734287346450175E-019
  -54.4600000000000         1.439224655557260E-019
  -54.2700000000000         4.283031709760711E-019
  -54.0800000000000         3.141968124527525E-019
  -53.8900000000000        -8.394271074472930E-020
  -53.7000000000000        -3.819174222998032E-019
  -53.5100000000000        -2.930832700902277E-019
  -53.3200000000000         9.757265227046962E-020
  -53.1300000000000         4.138302186244934E-019
  -52.9400000000000         3.469184643791898E-019
  -52.7500000000000        -4.920088079778498E-020
  -52.5600000000000        -4.080559292238291E-019
  -52.3700000000000        -3.989492253993313E-019
  -52.1800000000000        -4.074381462441583E-020
  -51.9900000000000         3.182637885529619E-019
  -51.8000000000000         3.342184830811207E-019
  -51.6100000000000        -4.055349689473048E-021
  -51.4200000000000        -3.654003959593776E-019
  -51.2300000000000        -3.939091661111206E-019
  -51.0400000000000        -5.039217334309241E-020
  -50.8500000000000         3.486297066539668E-019
  -50.6600000000000         4.321024973530791E-019
  -50.4700000000000         1.279758251043245E-019
  -50.2800000000000        -2.689673624166482E-019
  -50.0900000000000        -3.793647241687477E-019
  -49.9000000000000        -1.013248961895462E-019
  -49.7100000000000         2.933378579449373E-019
  -49.5200000000000         4.200139012769906E-019
  -49.3300000000000         1.501968282591532E-019
  -49.1400000000000        -2.639266461416125E-019
  -48.9500000000000        -4.290090329354449E-019
  -48.7600000000000        -1.862024963106765E-019
  -48.5700000000000         2.360781879915400E-019
  -48.3800000000000         4.387723007501033E-019
  -48.1900000000000         2.315491312712333E-019
  -48.0000000000000        -1.868865673671991E-019
  -47.8100000000000        -4.190354228062329E-019
  -47.6200000000000        -2.477789115045647E-019
  -47.4300000000000         1.568875819974903E-019
  -47.2400000000000         4.008845032976976E-019
  -47.0500000000000         2.436161470053421E-019
  -46.8600000000000        -1.706672271712696E-019
  -46.6700000000000        -4.493286586756973E-019
  -46.4800000000000        -3.254142321488419E-019
  -46.2900000000000         8.800959030548953E-020
  -46.1000000000000         4.055795206658358E-019
  -45.9100000000000         3.360210500681117E-019
  -45.7200000000000        -4.215505631676106E-020
  -45.5300000000000        -3.579966110779570E-019
  -45.3400000000000        -3.042349458581257E-019
  -45.1500000000000         6.824310608886229E-020
  -44.9600000000000         3.993729682017474E-019
  -44.7700000000000         3.654422277822860E-019
  -44.5800000000000        -9.800979311664287E-021
  -44.3900000000000        -3.761737999064502E-019
  -44.2000000000000        -3.900445947068543E-019
  -44.0100000000000        -4.153398446716176E-020
  -43.8200000000000         3.359662247886808E-019
  -43.6300000000000         3.832762606756660E-019
  -43.4400000000000         5.752118112505173E-020
  -43.2500000000000        -3.277325087282583E-019
  -43.0600000000000        -4.029476037477825E-019
  -42.8700000000000        -9.645029859488131E-020
  -42.6800000000000         2.968527384920610E-019
  -42.4900000000000         3.974755944321949E-019
  -42.3000000000000         1.046083876608322E-019
  -42.1100000000000        -3.060658842184360E-019
  -41.9200000000000        -4.436923585867728E-019
  -41.7300000000000        -1.742951823797087E-019
  -41.5400000000000         2.510438579968360E-019
  -41.3500000000000         4.347307764413579E-019
  -41.1600000000000         2.106640469726103E-019
  -40.9700000000000        -1.991385549982349E-019
  -40.7800000000000        -3.982897385202504E-019
  -40.5900000000000        -1.951565657992147E-019
  -40.4000000000000         2.146470397059681E-019
  -40.2100000000000         4.358332986770376E-019
  -40.0200000000000         2.516279588492612E-019
  -39.8300000000000        -1.683825232841944E-019
  -39.6400000000000        -4.294094035507190E-019
  -39.4500000000000        -2.879728042900520E-019
  -39.2600000000000         1.161601262210570E-019
  -39.0700000000000         3.943593476588310E-019
  -38.8800000000000         2.809296385606854E-019
  -38.6900000000000        -1.132024495644298E-019
  -38.5000000000000        -4.068002006344674E-019
  -38.3100000000000        -3.128357354147094E-019
  -38.1200000000000         8.649260879223280E-020
  -37.9300000000000         4.168638316100937E-019
  -37.7400000000000         3.681635186546035E-019
  -37.5500000000000        -9.926585781649458E-021
  -37.3600000000000        -3.557676606979697E-019
  -37.1700000000000        -3.413935935964250E-019
  -36.9800000000000         1.459071466108189E-020
  -36.7900000000000         3.656513272983426E-019
  -36.6000000000000         3.693663368146340E-019
  -36.4100000000000         1.588906482010539E-020
  -36.2200000000000        -3.608260789985069E-019
  -36.0300000000000        -4.006807375942589E-019
  -35.8400000000000        -6.157281918468791E-020
  -35.6500000000000         3.388145350596011E-019
  -35.4600000000000         4.241852692392515E-019
  -35.2700000000000         1.165184567803363E-019
  -35.0800000000000        -2.915030164924801E-019
  -34.8900000000000        -4.165161548415376E-019
  -34.7000000000000        -1.491328469073015E-019
  -34.5100000000000         2.440884976306361E-019
  -34.3200000000000         3.777302014363457E-019
  -34.1300000000000         1.177434765286781E-019
  -33.9400000000000        -2.892496749675758E-019
  -33.7500000000000        -4.516295580359922E-019
  -33.5600000000000        -2.080607508376378E-019
  -33.3700000000000         2.168548502058384E-019
  -33.1800000000000         4.254762521677934E-019
  -32.9900000000000         2.252792185334332E-019
  -32.8000000000000        -1.882134693920734E-019
  -32.6100000000000        -4.178566590865357E-019
  -32.4200000000000        -2.431479596532016E-019
  -32.2300000000000         1.701087532550010E-019
  -32.0400000000000         4.289112444179301E-019
  -31.8500000000000         2.889780888543953E-019
  -31.6600000000000        -1.121378055054203E-019
  -31.4700000000000        -3.876219189336218E-019
  -31.2800000000000        -2.723580064399296E-019
  -31.0900000000000         1.226659585459087E-019
  -30.9000000000000         4.156574728422609E-019
  -30.7100000000000         3.189154392559493E-019
  -30.5200000000000        -8.462859495746106E-020
  -30.3300000000000        -4.178770617248673E-019
  -30.1400000000000        -3.673643553213219E-019
  -29.9500000000000         1.858837169688068E-020
  -29.7600000000000         3.760455226144185E-019
  -29.5700000000000         3.716532672396679E-019
  -29.3800000000000         1.838176265603372E-020
  -29.1900000000000        -3.394790230743300E-019
  -29.0000000000000        -3.564565893247257E-019
  -28.8100000000000        -1.583657270962147E-020
  -28.6200000000000         3.551415558554728E-019
  -28.4300000000000         3.991479524000305E-019
  -28.2400000000000         7.155851803379130E-020
  -28.0500000000000        -3.160830613102112E-019
  -27.8600000000000        -3.938097123858063E-019
  -27.6700000000000        -8.731991820986758E-020
  -27.4800000000000         3.100867436804848E-019
  -27.2900000000000         4.163996808574590E-019
  -27.1000000000000         1.248322268456430E-019
  -26.9100000000000        -2.938821662025545E-019
  -26.7200000000000        -4.486256635248405E-019
  -26.5300000000000        -1.997321132371090E-019
  -26.3400000000000         2.092762462763555E-019
  -26.1500000000000         3.858480031923556E-019
  -25.9600000000000         1.641622922754790E-019
  -25.7700000000000        -2.370747125251636E-019
  -25.5800000000000        -4.251965985600964E-019
  -25.3900000000000        -2.106914753046264E-019
  -25.2000000000000         2.096255394565365E-019
  -25.0100000000000         4.388703234357674E-019
  -24.8200000000000         2.589156239330555E-019
  -24.6300000000000        -1.597697651079265E-019
  -24.4400000000000        -4.187080574848489E-019
  -24.2500000000000        -2.701133779250107E-019
  -24.0600000000000         1.475206042370415E-019
  -23.8700000000000         4.414164868033505E-019
  -23.6800000000000         3.376602388827310E-019
  -23.4900000000000        -5.999073469565823E-020
  -23.3000000000000        -3.712122912363718E-019
  -23.1100000000000        -3.029104896167478E-019
  -22.9200000000000         7.143783308687416E-020
  -22.7300000000000         3.835437140754860E-019
  -22.5400000000000         3.244546404187176E-019
  -22.3500000000000        -5.803967247089099E-020
  -22.1600000000000        -4.036692265636725E-019
  -21.9700000000000        -3.833833157645964E-019
  -21.7800000000000        -1.415472302302407E-020
  -21.5900000000000         3.554826346465336E-019
  -21.4000000000000         3.757318261444619E-019
  -21.2100000000000         2.758764088880949E-020
  -21.0200000000000        -3.595426479495981E-019
  -20.8300000000000        -4.216382519915838E-019
  -20.6400000000000        -1.058484928600274E-019
  -20.4500000000000         2.818414896253901E-019
  -20.2600000000000         3.716278684210448E-019
  -20.0700000000000         8.438734052978154E-020
  -19.8800000000000        -2.933821678045083E-019
  -19.6900000000000        -3.852537791363314E-019
  -19.5000000000000        -8.747862070041175E-020
  -19.3100000000000         3.283368360437712E-019
  -19.1200000000000         4.718173881551971E-019
  -18.9300000000000         2.056867355683238E-019
  -18.7400000000000        -2.224009611141319E-019
  -18.5500000000000        -4.145885054996564E-019
  -18.3600000000000        -2.001543663744699E-019
  -18.1700000000000         2.043439677450761E-019
  -17.9800000000000         4.038581925160884E-019
  -17.7900000000000         2.026283628286943E-019
  -17.6000000000000        -2.092185978475879E-019
  -17.4100000000000        -4.379441991402566E-019
  -17.2200000000000        -2.633282102087430E-019
  -17.0300000000000         1.498864894706645E-019
  -16.8400000000000         4.089655044783158E-019
  -16.6500000000000         2.686939351796805E-019
  -16.4600000000000        -1.338559349113963E-019
  -16.2700000000000        -4.098055662114890E-019
  -16.0800000000000        -2.897134349743827E-019
  -15.8900000000000         1.183561411428232E-019
  -15.7000000000000         4.301818596077244E-019
  -15.5100000000000         3.504157424932537E-019
  -15.3200000000000        -4.613764817870131E-020
  -15.1300000000000        -3.855689057400938E-019
  -14.9400000000000        -3.507495543774061E-019
  -14.7500000000000         1.781237910170174E-020
  -14.5600000000000         3.630267135489147E-019
  -14.3700000000000         3.538234105254837E-019
  -14.1800000000000         1.518954232166255E-021
  -13.9900000000000        -3.517941670653655E-019
  -13.8000000000000        -3.614896361009419E-019
  -13.6100000000000        -1.187654026989767E-020
  -13.4200000000000         3.662858554423815E-019
  -13.2300000000000         4.100684746146124E-019
  -13.0400000000000         7.070530381577478E-020
  -12.8500000000000        -3.389076171821091E-019
  -12.6600000000000        -4.407284532877542E-019
  -12.4700000000000        -1.491121795848794E-019
  -12.2800000000000         2.506675915601884E-019
  -12.0900000000000         3.764429512974180E-019
  -11.9000000000000         1.138830602075262E-019
  -11.7100000000000        -2.758935099899485E-019
  -11.5200000000000        -4.083832842289862E-019
  -11.3300000000000        -1.461115035766727E-019
  -11.1400000000000         2.676757331846380E-019
  -10.9500000000000         4.405029931303774E-019
  -10.7600000000000         2.059594628807189E-019
  -10.5700000000000        -2.159831214098893E-019
  -10.3800000000000        -4.269099268198883E-019
  -10.1900000000000        -2.284038740554837E-019
  -10.0000000000000         1.893664476048692E-019
  -9.81000000000000         4.290452908929072E-019
  -9.62000000000000         2.649662968184692E-019
  -9.42999999999999        -1.422472262723353E-019
  -9.23999999999999        -4.005093979328858E-019
  -9.05000000000000        -2.620702545705715E-019
  -8.86000000000000         1.393364592813815E-019
  -8.67000000000000         4.162905312386377E-019
  -8.48000000000000         2.980167254961066E-019
  -8.28999999999999        -1.101305421471779E-019
  -8.09999999999999        -4.257847562300185E-019
  -7.91000000000000        -3.534072597966957E-019
  -7.72000000000000         3.411787545683874E-020
  -7.53000000000000         3.653894231123773E-019
  -7.34000000000000         3.252855043008247E-019
  -7.15000000000001        -4.444311745261934E-020
  -6.95999999999999        -3.855373352488292E-019
  -6.77000000000000        -3.653724248929706E-019
  -6.58000000000000         5.524154718807056E-021
  -6.39000000000000         3.828978054045744E-019
  -6.20000000000000         4.161492463139914E-019
  -6.01000000000001         8.169316853734693E-020
  -5.81999999999999        -2.959771140704546E-019
  -5.63000000000000        -3.557046974409941E-019
  -5.44000000000000        -4.543386053888876E-020
  -5.25000000000000         3.286201312668839E-019
  -5.06000000000000         3.961132040259507E-019
  -4.87000000000000         7.863326557358312E-020
  -4.67999999999999        -3.324715211351597E-019
  -4.48999999999999        -4.514540603375492E-019
  -4.30000000000000        -1.650699479632618E-019
  -4.11000000000000         2.588324096485954E-019
  -3.92000000000000         4.254099286770117E-019
  -3.73000000000000         1.875237782846242E-019
  -3.53999999999999        -2.166253396839883E-019
  -3.34999999999999        -3.935913403144921E-019
  -3.16000000000000        -1.717096839026898E-019
  -2.97000000000000         2.350160092281737E-019
  -2.78000000000000         4.320327551596092E-019
  -2.59000000000000         2.224778460481262E-019
  -2.40000000000001        -2.024847791050313E-019
  -2.20999999999999        -4.437413183188172E-019
  -2.02000000000000        -2.737501388922276E-019
  -1.83000000000000         1.467107715183665E-019
  -1.64000000000000         4.215191487463977E-019
  -1.45000000000000         2.954584931366773E-019
  -1.26000000000001        -1.051499960443898E-019
  -1.06999999999999        -3.956971895873692E-019
 -0.879999999999995        -3.016467133023233E-019
 -0.689999999999998         7.962713506205949E-020
 -0.500000000000000         3.733268397726989E-019
 -0.310000000000002         2.877553707357416E-019
 -0.120000000000005        -1.042758722225051E-019
  7.000000000000739E-002   -4.331942444822881E-019
  0.260000000000005        -3.851005799490560E-019
  0.450000000000003        -1.675633326978954E-021
  0.640000000000001         3.590108344715986E-019
  0.829999999999998         3.632473124666904E-019
   1.02000000000000         1.908000362092063E-020
   1.21000000000001        -3.323462043044892E-019
   1.40000000000001        -3.437643537228433E-019
   1.59000000000000         4.844382450293351E-021
   1.78000000000000         3.856714870330735E-019
   1.97000000000000         4.357324794854644E-019
   2.16000000000000         1.039257881119353E-019
   2.34999999999999        -2.992890279743122E-019
   2.54000000000001        -3.969598231417623E-019
   2.73000000000000        -1.041006062903696E-019
   2.92000000000000         2.919160252864766E-019
   3.11000000000000         4.059057615207383E-019
   3.30000000000000         1.231035756960989E-019
   3.48999999999999        -2.904154385013808E-019
   3.68000000000001        -4.412313610915619E-019
   3.87000000000000        -1.841307527668702E-019
   4.06000000000000         2.389664355273512E-019
   4.25000000000000         4.288755125676951E-019
   4.44000000000000         2.081651717147649E-019
   4.63000000000000        -2.113921707237111E-019
   4.82000000000001        -4.315428302842938E-019
   5.01000000000001        -2.469396137635833E-019
   5.20000000000000         1.604167321064524E-019
   5.39000000000000         3.970663831099974E-019
   5.58000000000000         2.357692370906452E-019
   5.77000000000000        -1.667367566485338E-019
   5.96000000000001        -4.200523573055358E-019
   6.15000000000001        -2.741227238687649E-019
   6.34000000000000         1.406658316149578E-019
   6.53000000000000         4.364060338162754E-019