  -105.000000000000         6.589745165231437E-019
  -104.810000000000         4.991286745421703E-019
  -104.620000000000         2.331670857962903E-019
  -104.430000000000        -6.438436415101890E-020
  -104.240000000000        -3.106900704883025E-019
  -104.050000000000        -4.384624058785015E-019
  -103.860000000000        -4.152964940773877E-019
  -103.670000000000        -2.528611633035375E-019
  -103.480000000000        -3.274100215927270E-021
  -103.290000000000         2.562681683863134E-019
  -103.100000000000         4.461041218797091E-019
  -102.910000000000         5.073648777729067E-019
  -102.720000000000         4.191209084111224E-019
  -102.530000000000         2.044716273226338E-019
  -102.340000000000        -7.615217137774761E-020
  -102.150000000000        -3.425171375374928E-019
  -101.960000000000        -5.178811105735171E-019
  -101.770000000000        -5.513225605011066E-019
  -101.580000000000        -4.326322562454493E-019
  -101.390000000000        -1.954129421975822E-019
  -101.200000000000         9.256127734347275E-020
  -101.010000000000         3.489487364179966E-019
  -100.820000000000         5.006904528531617E-019
  -100.630000000000         5.051383116390031E-019
  -100.440000000000         3.623128321729669E-019
  -100.250000000000         1.147668614809640E-019
  -100.060000000000        -1.648484643650414E-019
  -99.8700000000000        -3.948750792513994E-019
  -99.6800000000000        -5.082946639070300E-019
  -99.4900000000000        -4.721193886886204E-019
  -99.3000000000000        -2.969375998260320E-019
  -99.1100000000000        -3.384177905036180E-020
  -98.9200000000000         2.403983417554380E-019
  -98.7300000000000         4.456359927844105E-019
  -98.5400000000000         5.216483888693659E-019
  -98.3500000000000         4.456628324973632E-019
  -98.1600000000000         2.390090399310043E-019
  -97.9700000000000        -3.903770108253103E-020
  -97.7800000000000        -3.084318995399382E-019
  -97.5900000000000        -4.915614550670007E-019
  -97.4000000000000        -5.357493729200448E-019
  -97.2100000000000        -4.285389514973462E-019
  -97.0200000000000        -2.013393949981970E-019
  -96.8300000000000         7.963329875582144E-020
  -96.6400000000000         3.325205549719347E-019
  -96.4500000000000         4.835631066910387E-019
  -96.2600000000000         4.885419262967881E-019
  -96.0700000000000         3.456707641345639E-019
  -95.8800000000000         9.615999871717452E-020
  -95.6900000000000        -1.877195446114791E-019
  -95.5000000000000        -4.235739685837267E-019
  -95.3100000000000        -5.427187703912274E-019
  -95.1200000000000        -5.100193250162143E-019
  -94.9300000000000        -3.340611389940102E-019
  -94.7400000000000        -6.475992153862709E-020
  -94.5500000000000         2.209095269376126E-019
  -94.3600000000000         4.410092771460691E-019
  -94.1700000000000         5.322439163909340E-019
  -93.9800000000000         4.682749663262303E-019
  -93.7900000000000         2.674177116613464E-019
  -93.6000000000000        -1.255196784552512E-020
  -93.4100000000000        -2.910051962644355E-019
  -93.2200000000000        -4.876868745905778E-019
  -93.0300000000000        -5.458523895003516E-019
  -92.8400000000000        -4.486309085855032E-019
  -92.6500000000000        -2.238799966161839E-019
  -92.4600000000000         6.387788118194239E-020
  -92.2700000000000         3.320976553905338E-019
  -92.0800000000000         5.040302812443992E-019
  -91.8900000000000         5.308364817245075E-019
  -91.7000000000000         4.056227838624833E-019
  -91.5100000000000         1.653510604184138E-019
  -91.3200000000000        -1.199457711792628E-019
  -91.1300000000000        -3.675428420344243E-019
  -90.9400000000000        -5.060932189972150E-019
  -90.7500000000000        -4.963769187765512E-019
  -90.5600000000000        -3.426728072528545E-019
  -90.3700000000000        -9.145551286530410E-020
  -90.1800000000000         1.821658106398628E-019
  -89.9900000000000         3.963178702043958E-019
  -89.8000000000000         4.862501789640851E-019
  -89.6100000000000         4.233763999574778E-019
  -89.4200000000000         2.239319512938415E-019
  -89.2300000000000        -5.538262938210271E-020
  -89.0400000000000        -3.336497195683461E-019
  -88.8500000000000        -5.292233455140062E-019
  -88.6600000000000        -5.835997277627199E-019
  -88.4700000000000        -4.786380440759123E-019
  -88.2800000000000        -2.420358081667668E-019
  -88.0900000000000         6.058064749263749E-020
  -87.9000000000000         3.446571437583393E-019
  -87.7100000000000         5.312567404779307E-019
  -87.5200000000000         5.699629670333460E-019
  -87.3300000000000         4.534188124411402E-019
  -87.1400000000000         2.192403465402414E-019
  -86.9500000000000        -6.122413182327365E-020
  -86.7600000000000        -3.039614408302767E-019
  -86.5700000000000        -4.370213513615553E-019
  -86.3800000000000        -4.216899236697866E-019
  -86.1900000000000        -2.638958386756043E-019
  -86.0000000000000        -1.244637430770303E-020
  -85.8100000000000         2.554413918701723E-019
  -85.6200000000000         4.570555717203036E-019
  -85.4300000000000         5.287594542469864E-019
  -85.2400000000000         4.449490839952805E-019
  -85.0500000000000         2.258311875662199E-019
  -84.8600000000000        -6.823648498935904E-020
  -84.6700000000000        -3.541946322459961E-019
  -84.4800000000000        -5.504726771677196E-019
  -84.2900000000000        -6.008829729163241E-019
  -84.1000000000000        -4.911814785984972E-019
  -83.9100000000000        -2.533448001818821E-019
  -83.7200000000000         4.374683758117733E-020
  -83.5300000000000         3.144599713835440E-019
  -83.3400000000000         4.814232778586115E-019
  -83.1500000000000         4.980515940004347E-019
  -82.9600000000000         3.620016571013774E-019
  -82.7700000000000         1.156637100763841E-019
  -82.5800000000000        -1.664032622657185E-019
  -82.3900000000000        -3.993660120980122E-019
  -82.2000000000000        -5.129061920990649E-019
  -82.0100000000000        -4.716690875967718E-019
  -81.8200000000000        -2.854665788857407E-019
  -81.6300000000000        -6.359766220139994E-021
  -81.4400000000000         2.864512302911919E-019
  -81.2500000000000         5.095245599279835E-019
  -81.0600000000000         5.992389730305811E-019
  -80.8700000000000         5.300556531202019E-019
  -80.6800000000000         3.217028627713039E-019
  -80.4900000000000         3.328178788282433E-020
  -80.3000000000000        -2.538672253681396E-019
  -80.1100000000000        -4.594990982314390E-019
  -79.9200000000000        -5.273002400496978E-019
  -79.7300000000000        -4.407660189537654E-019
  -79.5400000000000        -2.276553849927564E-019
  -79.3500000000000         4.822514628310193E-020
  -79.1600000000000         3.055609397057765E-019
  -78.9700000000000         4.690562619205021E-019
  -78.7800000000000         4.911230720284899E-019
  -78.5900000000000         3.654300603377211E-019
  -78.4000000000000         1.284349615192975E-019
  -78.2100000000000        -1.514216272702703E-019
  -78.0200000000000        -3.936109818284548E-019
  -77.8300000000000        -5.286893514972259E-019
  -77.6400000000000        -5.180739822735647E-019
  -77.4500000000000        -3.648090972260746E-019
  -77.2600000000000        -1.123847169493835E-019
  -77.0700000000000         1.678738820914970E-019
  -76.8800000000000         3.971416177464545E-019
  -76.6900000000000         5.113894533272303E-019
  -76.5000000000000         4.794119471054842E-019
  -76.3100000000000         3.115625695686544E-019
  -76.1200000000000         5.673807877911086E-020
  -75.9300000000000        -2.115771217568278E-019
  -75.7400000000000        -4.162936828507447E-019
  -75.5500000000000        -4.987624682301523E-019
  -75.3600000000000        -4.355629461415513E-019
  -75.1700000000000        -2.452071476941101E-019
  -74.9800000000000         1.718403650795575E-020
  -74.7900000000000         2.757551154728841E-019
  -74.6000000000000         4.558395981166544E-019
  -74.4100000000000         5.056195369463795E-019
  -74.2200000000000         4.111876075751910E-019
  -74.0300000000000         2.005655876908307E-019
  -73.8400000000000        -6.450443245720722E-020
  -73.6500000000000        -3.065676441723070E-019
  -73.4600000000000        -4.549803291426433E-019
  -73.2700000000000        -4.663984240074733E-019
  -73.0800000000000        -3.373335326774234E-019
  -72.8900000000000        -1.052166861424854E-019
  -72.7000000000000         1.622933658070421E-019
  -72.5100000000000         3.867061280242616E-019
  -72.3200000000000         5.013040228221346E-019
  -72.1300000000000         4.705387886844171E-019
  -71.9400000000000         3.006593435970167E-019
  -71.7500000000000         3.840809527602922E-020
  -71.5600000000000        -2.420683560074204E-019
  -71.3700000000000        -4.605541504703957E-019
  -71.1800000000000        -5.542430188131314E-019
  -70.9900000000000        -4.963930612087157E-019
  -70.8000000000000        -3.044659621878192E-019
  -70.6100000000000        -3.517171782047780E-020
  -70.4200000000000         2.322024204774938E-019
  -70.2300000000000         4.192502193377052E-019
  -70.0400000000000         4.717064829605229E-019
  -69.8500000000000         3.755782797245701E-019
  -69.6600000000000         1.613508303266213E-019
  -69.4700000000000        -1.049842868437017E-019
  -69.2800000000000        -3.414350844984924E-019
  -69.0900000000000        -4.742934565003118E-019
  -68.9000000000000        -4.600402840077017E-019
  -68.7100000000000        -2.984454537937595E-019
  -68.5200000000000        -3.303767027116333E-020
  -68.3300000000000         2.612249784906273E-019
  -68.1400000000000         4.995671691895248E-019
  -67.9500000000000         6.120565301543492E-019
  -67.7600000000000         5.641297932035914E-019
  -67.5700000000000         3.669661671417312E-019
  -67.3800000000000         7.462451777120762E-020
  -67.1900000000000        -2.313209651737824E-019
  -67.0000000000000        -4.652909726494156E-019
  -66.8100000000000        -5.625705107088589E-019
  -66.6200000000000        -4.982333637155675E-019
  -66.4300000000000        -2.944506652512577E-019
  -66.2400000000000        -1.389772072464718E-020
  -66.0500000000000         2.588551230098509E-019
  -65.8600000000000         4.424034771473105E-019
  -65.6700000000000         4.824880111462176E-019
  -65.4800000000000         3.677649301178706E-019
  -65.2900000000000         1.328228402980853E-019
  -65.1000000000000        -1.522648891790797E-019
  -64.9100000000000        -4.026499656652840E-019
  -64.7200000000000        -5.435593653249920E-019
  -64.5300000000000        -5.320413262799869E-019
  -64.3400000000000        -3.693586774389421E-019
  -64.1500000000000        -1.005599506556379E-019
  -63.9600000000000         1.985457406264959E-019
  -63.7700000000000         4.432196474994922E-019
  -63.5800000000000         5.641602237909728E-019
  -63.3900000000000         5.274209093751634E-019
  -63.2000000000000         3.441576254260798E-019
  -63.0100000000000         6.738114742933170E-020
  -62.8200000000000        -2.233787293698890E-019
  -62.6300000000000        -4.450702610414187E-019
  -62.4400000000000        -5.350989553272893E-019
  -62.2500000000000        -4.693355388643600E-019
  -62.0600000000000        -2.689550719330106E-019
  -61.8700000000000         5.873815106314956E-021
  -61.6800000000000         2.736462044462456E-019
  -61.4900000000000         4.553824003415342E-019
  -61.3000000000000         4.976640262134486E-019
  -61.1100000000000         3.880557914384425E-019
  -60.9200000000000         1.584555676468793E-019
  -60.7300000000000        -1.244423474918807E-019
  -60.5400000000000        -3.786014224475241E-019
  -60.3500000000000        -5.302548711942215E-019
  -60.1600000000000        -5.348909616951578E-019
  -59.9700000000000        -3.897498257454848E-019
  -59.7800000000000        -1.344461340860742E-019
  -59.5900000000000         1.603614025452542E-019
  -59.4000000000000         4.130344451394845E-019
  -59.2100000000000         5.541029682433245E-019
  -59.0200000000000         5.459730902523794E-019
  -58.8300000000000         3.936037977189914E-019
  -58.6400000000000         1.430380874589823E-019
  -58.4500000000000        -1.319239131505183E-019
  -58.2600000000000        -3.511649011114579E-019
  -58.0700000000000        -4.515786809041727E-019
  -57.8800000000000        -4.054219092406105E-019
  -57.6900000000000        -2.282797942277798E-019
  -57.5000000000000         2.568026173663315E-020
  -57.3100000000000         2.797334084548257E-019
  -57.1200000000000         4.571546294332907E-019
  -56.9300000000000         5.036864420904214E-019
  -56.7400000000000         4.033844053462986E-019
  -56.5500000000000         1.832765818902988E-019
  -56.3600000000000        -9.446994175359084E-020
  -56.1700000000000        -3.505493498124857E-019
  -55.9800000000000        -5.114159506849636E-019
  -55.7900000000000        -5.304655582995508E-019
  -55.6000000000000        -4.014789052163219E-019
  -55.4100000000000        -1.605553399049359E-019
  -55.2200000000000         1.240076519706076E-019
  -55.0300000000000         3.710629666433137E-019
  -54.8400000000000         5.097474702800176E-019
  -54.6500000000000         4.998440409283142E-019
  -54.4600000000000         3.435253956831380E-019
  -54.2700000000000         8.498488911070817E-020
  -54.0800000000000        -2.021252601493901E-019
  -53.8900000000000        -4.359499095192819E-019
  -53.7000000000000        -5.502220820951688E-019
  -53.5100000000000        -5.135742878745055E-019
  -53.3200000000000        -3.386214935202104E-019
  -53.1300000000000        -7.810256074213899E-020
  -52.9400000000000         1.907399186309629E-019
  -52.7500000000000         3.888477588274486E-019
  -52.5600000000000         4.584025884059675E-019
  -52.3700000000000         3.795839606425031E-019
  -52.1800000000000         1.762756123742311E-019
  -51.9900000000000        -9.086517501020837E-020
  -51.8000000000000        -3.419686182032973E-019
  -51.6100000000000        -5.010998702765027E-019
  -51.4200000000000        -5.183521527445614E-019
  -51.2300000000000        -3.845404641913994E-019
  -51.0400000000000        -1.342281463630415E-019
  -50.8500000000000         1.638805616110330E-019
  -50.6600000000000         4.265116520914836E-019
  -50.4700000000000         5.797668410782086E-019
  -50.2800000000000         5.805348580648425E-019
  -50.0900000000000         4.291284945773846E-019
  -49.9000000000000         1.693899370291343E-019
  -49.7100000000000        -1.238636346135485E-019
  -49.5200000000000        -3.664615259347898E-019
  -49.3300000000000        -4.893054891491607E-019
  -49.1400000000000        -4.584983225580005E-019
  -48.9500000000000        -2.852636453062731E-019
  -48.7600000000000        -2.266092322641620E-020
  -48.5700000000000         2.500097434659095E-019
  -48.3800000000000         4.505128604321001E-019
  -48.1900000000000         5.177943936080083E-019
  -48.0000000000000         4.298450092305869E-019
  -47.8100000000000         2.101644894648478E-019
  -47.6200000000000        -7.896789604381089E-020
  -47.4300000000000        -3.544250801670853E-019
  -47.2400000000000        -5.362147231247795E-019
  -47.0500000000000        -5.706682843272453E-019
  -46.8600000000000        -4.461763605367213E-019
  -46.6700000000000        -1.968488543346998E-019
  -46.4800000000000         1.070882904139843E-019
  -46.2900000000000         3.794647554284807E-019
  -46.1000000000000         5.430835777604815E-019
  -45.9100000000000         5.521485571939269E-019
  -45.7200000000000         4.056356539528558E-019
  -45.5300000000000         1.476140288903580E-019
  -45.3400000000000        -1.456654440011323E-019
  -45.1500000000000        -3.881459673358149E-019
  -44.9600000000000        -5.092048692733021E-019
  -44.7700000000000        -4.743299890655257E-019
  -44.5800000000000        -2.951764877189011E-019
  -44.3900000000000        -2.607279204913934E-020
  -44.2000000000000         2.519929688922207E-019
  -44.0100000000000         4.552259385340921E-019
  -43.8200000000000         5.217444457214526E-019
  -43.6300000000000         4.298954369370608E-019
  -43.4400000000000         2.047212841191601E-019
  -43.2500000000000        -8.934934380579929E-020
  -43.0600000000000        -3.673634435632259E-019
  -42.8700000000000        -5.486262946049389E-019
  -42.6800000000000        -5.801553447142944E-019
  -42.4900000000000        -4.520559778625497E-019
  -42.3000000000000        -2.004131082862081E-019
  -42.1100000000000         1.031523547282280E-019
  -41.9200000000000         3.722731723410454E-019
  -41.7300000000000         5.309494411138476E-019
  -41.5400000000000         5.356494021595818E-019
  -41.3500000000000         3.878892004466936E-019
  -41.1600000000000         1.335701668077372E-019
  -40.9700000000000        -1.507086231570766E-019
  -40.7800000000000        -3.802830368807676E-019
  -40.5900000000000        -4.873200748869854E-019
  -40.4000000000000        -4.406642981475734E-019
  -40.2100000000000        -2.548109206957555E-019
  -40.0200000000000         1.458810331831130E-020
  -39.8300000000000         2.872497618826432E-019
  -39.6400000000000         4.818482820418389E-019
  -39.4500000000000         5.397443202014614E-019
  -39.2600000000000         4.420141416797672E-019
  -39.0700000000000         2.149107325715683E-019
  -38.8800000000000        -7.778913523189728E-020
  -38.6900000000000        -3.533096148496325E-019
  -38.5000000000000        -5.338626787147839E-019
  -38.3100000000000        -5.690897675975799E-019
  -38.1200000000000        -4.504182170764508E-019
  -37.9300000000000        -2.132178839693378E-019
  -37.7400000000000         7.371886962224896E-020
  -37.5500000000000         3.281775248706656E-019
  -37.3600000000000         4.781949739693079E-019
  -37.1700000000000         4.826586759269167E-019
  -36.9800000000000         3.429562501826481E-019
  -36.7900000000000         1.023079516107770E-019
  -36.6000000000000        -1.670321010962591E-019
  -36.4100000000000        -3.849577698012373E-019
  -36.2200000000000        -4.868772669899690E-019
  -36.0300000000000        -4.424557418760787E-019
  -35.8400000000000        -2.643067154713973E-019
  -35.6500000000000        -4.169312426989878E-021
  -35.4600000000000         2.622306382719631E-019
  -35.2700000000000         4.571848840367443E-019
  -35.0800000000000         5.234975189920984E-019
  -34.8900000000000         4.409952750385411E-019
  -34.7000000000000         2.323322509827594E-019
  -34.5100000000000        -4.351120771075707E-020
  -34.3200000000000        -3.081024454335827E-019
  -34.1300000000000        -4.859753492524297E-019
  -33.9400000000000        -5.262411293634135E-019
  -33.7500000000000        -4.172216765915968E-019
  -33.5600000000000        -1.898488620701354E-019
  -33.3700000000000         9.120482133563626E-020
  -33.1800000000000         3.461054811553567E-019
  -32.9900000000000         5.027581137154829E-019
  -32.8000000000000         5.174191653346609E-019
  -32.6100000000000         3.871191249979878E-019
  -32.4200000000000         1.503863178054059E-019
  -32.2300000000000        -1.238890294824232E-019
  -32.0400000000000        -3.562843833847111E-019
  -31.8500000000000        -4.797608760085110E-019
  -31.6600000000000        -4.591063161185572E-019
  -31.4700000000000        -3.012219177033956E-019
  -31.2800000000000        -5.317400917831620E-020
  -31.0900000000000         2.114688403961169E-019
  -30.9000000000000         4.140463882490143E-019
  -30.7100000000000         4.937431420856176E-019
  -30.5200000000000         4.253789953259396E-019
  -30.3300000000000         2.268698366243561E-019
  -30.1400000000000        -4.580894017706862E-020
  -29.9500000000000        -3.146884122077476E-019
  -29.7600000000000        -5.022680071359162E-019
  -29.5700000000000        -5.539117613703647E-019
  -29.3800000000000        -4.537161420342153E-019
  -29.1900000000000        -2.292460575837977E-019
  -29.0000000000000         5.626171860210275E-020
  -28.8100000000000         3.220331750995557E-019
  -28.6200000000000         4.930576689271241E-019
  -28.4300000000000         5.218217679274203E-019
  -28.2400000000000         4.021009233429049E-019
  -28.0500000000000         1.707271639711725E-019
  -27.8600000000000        -1.031859844583485E-019
  -27.6700000000000        -3.383989127257400E-019
  -27.4800000000000        -4.652241575305476E-019
  -27.2900000000000        -4.458702630930007E-019
  -27.1000000000000        -2.855445131318912E-019
  -26.9100000000000        -3.106129076668626E-020
  -26.7200000000000         2.426952972049817E-019
  -26.5300000000000         4.545822143510253E-019
  -26.3400000000000         5.409444740988919E-019
  -26.1500000000000         4.743041279053807E-019
  -25.9600000000000         2.714591082799935E-019
  -25.7700000000000        -1.135746746806250E-020
  -25.5800000000000        -2.947582050360587E-019
  -25.3900000000000        -4.991200669055514E-019
  -25.2000000000000        -5.674836808349878E-019
  -25.0100000000000        -4.818359212939674E-019
  -24.8200000000000        -2.681323165282708E-019
  -24.6300000000000         1.131892615664978E-020
  -24.4400000000000         2.758930035021898E-019
  -24.2500000000000         4.499459442825098E-019
  -24.0600000000000         4.846855870140498E-019
  -23.8700000000000         3.722692113965517E-019
  -23.6800000000000         1.479884297653140E-019
  -23.4900000000000        -1.201364699955923E-019
  -23.3000000000000        -3.513467525373321E-019
  -23.1100000000000        -4.758753139575615E-019
  -22.9200000000000        -4.554257198472324E-019
  -22.7300000000000        -2.943743221804280E-019
  -22.5400000000000        -3.847384469222623E-020
  -22.3500000000000         2.384623377619222E-019
  -22.1600000000000         4.559720487049131E-019
  -21.9700000000000         5.502586197021227E-019
  -21.7800000000000         4.926866472506546E-019
  -21.5900000000000         2.981295125217686E-019
  -21.4000000000000         2.077647747333582E-020
  -21.2100000000000        -2.613834548115993E-019
  -21.0200000000000        -4.689367108690883E-019
  -20.8300000000000        -5.438268506527509E-019
  -20.6400000000000        -4.659627844942348E-019
  -20.4500000000000        -2.588925617685055E-019
  -20.2600000000000         1.703116899964816E-020
  -20.0700000000000         2.820081043974700E-019
  -19.8800000000000         4.597244221801279E-019
  -19.6900000000000         4.993143628393784E-019
  -19.5000000000000         3.900277268011138E-019
  -19.3100000000000         1.643451562309299E-019
  -19.1200000000000        -1.114113448607082E-019
  -18.9300000000000        -3.563292196438587E-019
  -18.7400000000000        -4.984708069814441E-019
  -18.5500000000000        -4.958544924952891E-019
  -18.3600000000000        -3.486709310879178E-019
  -18.1700000000000        -9.918009495548975E-020
  -17.9800000000000         1.806056268207071E-019
  -17.7900000000000         4.098059729494368E-019
  -17.6000000000000         5.220485499210122E-019
  -17.4100000000000         4.845985904726750E-019
  -17.2200000000000         3.077906476943026E-019
  -17.0300000000000         4.211153567937779E-020
  -16.8400000000000        -2.362458950463898E-019
  -16.6500000000000        -4.473020046477834E-019
  -16.4600000000000        -5.304373846712093E-019
  -16.2700000000000        -4.620565735698429E-019
  -16.0800000000000        -2.625721879497656E-019
  -15.8900000000000         9.408759806716955E-021
  -15.7000000000000         2.740945062389300E-019
  -15.5100000000000         4.538037851942170E-019
  -15.3200000000000         4.957130589838017E-019
  -15.1300000000000         3.873503689795610E-019
  -14.9400000000000         1.603055944067450E-019
  -14.7500000000000        -1.188976999009501E-019
  -14.5600000000000        -3.681223664723456E-019
  -14.3700000000000        -5.135485345411410E-019
  -14.1800000000000        -5.112613757211828E-019
  -13.9900000000000        -3.601854251519819E-019
  -13.8000000000000        -1.025619797483345E-019
  -13.6100000000000         1.882165455560443E-019
  -13.4200000000000         4.289057122233304E-019
  -13.2300000000000         5.506114938260060E-019
  -13.0400000000000         5.187941057512059E-019
  -12.8500000000000         3.432641713679113E-019
  -12.6600000000000         7.533765616819985E-020
  -12.4700000000000        -2.070032352246875E-019
  -12.2800000000000        -4.216983921364468E-019
  -12.0900000000000        -5.064464408096589E-019
  -11.9000000000000        -4.368616762025147E-019
  -11.7100000000000        -2.336363498496475E-019
  -11.5200000000000         4.343334054517791E-020
  -11.3300000000000         3.128978063361347E-019
  -11.1400000000000         4.955321922188677E-019
  -10.9500000000000         5.376126243228932E-019
  -10.7600000000000         4.266902348690320E-019
  -10.5700000000000         1.952058092013142E-019
  -10.3800000000000        -8.909567361649996E-020
  -10.1900000000000        -3.430985973721448E-019
  -10.0000000000000        -4.926933694853913E-019
  -9.81000000000000        -4.944157481009526E-019
  -9.62000000000000        -3.480754551795883E-019
  -9.42999999999999        -9.680041888319477E-020
  -9.23999999999999         1.854843690747029E-019
  -9.05000000000000         4.155694017806520E-019
  -8.86000000000000         5.252473829748095E-019
  -8.67000000000000         4.812567931354259E-019
  -8.48000000000000         2.950180212882357E-019
  -8.28999999999999         1.932448423950918E-020
  -8.09999999999999        -2.670196253904136E-019
  -7.91000000000000        -4.821066379960025E-019
  -7.72000000000000        -5.646803056811916E-019
  -7.53000000000000        -4.918528150492139E-019
  -7.34000000000000        -2.857147451615576E-019
  -7.15000000000001        -6.952257629104108E-021
  -6.95999999999999         2.627386767041815E-019
  -6.77000000000000         4.443974117379929E-019
  -6.58000000000000         4.847885286836270E-019
  -6.39000000000000         3.719184676089617E-019
  -6.20000000000000         1.385633980892820E-019
  -6.01000000000001        -1.472350848647155E-019
  -5.81999999999999        -4.019710655772069E-019
  -5.63000000000000        -5.509681117424432E-019
  -5.44000000000000        -5.499999146885124E-019
  -5.25000000000000        -3.979389161168301E-019
  -5.06000000000000        -1.368786693194626E-019
  -4.87000000000000         1.601617966062467E-019
  -4.67999999999999         4.103116370033206E-019
  -4.48999999999999         5.446013377735260E-019
  -4.30000000000000         5.276106951883967E-019
  -4.11000000000000         3.674584597009648E-019
  -3.92000000000000         1.132887036237338E-019
  -3.73000000000000        -1.590970380196997E-019
  -3.53999999999999        -3.693593274632261E-019
  -3.34999999999999        -4.560235606304811E-019
  -3.16000000000000        -3.943115680651945E-019
  -2.97000000000000        -2.032516639124205E-019
  -2.78000000000000         5.995556570836744E-020
  -2.59000000000000         3.166925788119221E-019
  -2.40000000000001         4.899403300347819E-019
  -2.20999999999999         5.268280481800602E-019
  -2.02000000000000         4.141426466494281E-019
  -1.83000000000000         1.822955288551928E-019
  -1.64000000000000        -1.034321747309103E-019
  -1.45000000000000        -3.618482494449487E-019
  -1.26000000000001        -5.194509283274053E-019
  -1.06999999999999        -5.317339289729382E-019
 -0.879999999999995        -3.959965460505202E-019
 -0.689999999999998        -1.519833750627685E-019
 -0.500000000000000         1.297842654200857E-019
 -0.310000000000002         3.685072362260312E-019
 -0.120000000000005         4.963733476698102E-019
  7.000000000000739E-002    4.778601726341695E-019
  0.260000000000005         3.196822435898935E-019
  0.450000000000003         6.867661468668305E-020
  0.640000000000001        -2.017767986100205E-019
  0.829999999999998        -4.129823532009480E-019
   1.02000000000000        -5.037228755203522E-019
   1.21000000000001        -4.480237480600367E-019
   1.40000000000001        -2.626962465285995E-019
   1.59000000000000        -2.380899788269158E-021
   1.78000000000000         2.565165570208023E-019
   1.97000000000000         4.382364492875446E-019
   2.16000000000000         4.897751580064320E-019
   2.34999999999999         3.962459792304265E-019
   2.54000000000001         1.850843908628055E-019
   2.73000000000000        -8.209092238669603E-020
   2.92000000000000        -3.275458112560454E-019
   3.11000000000000        -4.800695247077595E-019
   3.30000000000000        -4.955686683822425E-019
   3.48999999999999        -3.697390220262580E-019
   3.68000000000001        -1.392387977530426E-019
   3.87000000000000         1.289857612924353E-019
   4.06000000000000         3.571464482021459E-019
   4.25000000000000         4.791539124105962E-019
   4.44000000000000         4.597186091186001E-019
   4.63000000000000         3.045542505089353E-019
   4.82000000000001         5.878530523544861E-020
   5.01000000000001        -2.059811432903245E-019
   5.20000000000000        -4.121993263880437E-019
   5.39000000000000        -4.986887610277695E-019
   5.58000000000000        -4.384135907158632E-019
   5.77000000000000        -2.466529203970678E-019
   5.96000000000001         2.298720646747406E-020
   6.15000000000001         2.938054478573302E-019
   6.34000000000000         4.881193256735493E-019
   6.53000000000000         5.497674986342335E-019