  -105.000000000000         6.260257906969866E-020
  -104.810000000000         1.726223822209035E-019
  -104.620000000000         2.421904794530572E-019
  -104.430000000000         2.582248380093580E-019
  -104.240000000000         2.225927667186226E-019
  -104.050000000000         1.514232814637762E-019
  -103.860000000000         7.031618596796667E-020
  -103.670000000000         6.841208516778763E-021
  -103.480000000000        -1.749164151757037E-020
  -103.290000000000         6.542794958616304E-021
  -103.100000000000         7.326816253388846E-020
  -102.910000000000         1.638477175008869E-019
  -102.720000000000         2.518638671883697E-019
  -102.530000000000         3.111051580830766E-019
  -102.340000000000         3.232955063978407E-019
  -102.150000000000         2.835219220508929E-019
  -101.960000000000         2.017840884803469E-019
  -101.770000000000         1.002097397282576E-019
  -101.580000000000         6.734032137334841E-021
  -101.390000000000        -5.293026171475316E-020
  -101.200000000000        -6.270116987589356E-020
  -101.010000000000        -2.075771856855397E-020
  -100.820000000000         5.995800441220606E-020
  -100.630000000000         1.555117370389617E-019
  -100.440000000000         2.379195957010988E-019
  -100.250000000000         2.832421665982223E-019
  -100.060000000000         2.784844143242350E-019
  -99.8700000000000         2.253106776806730E-019
  -99.6800000000000         1.395095520806223E-019
  -99.4900000000000         4.637021708403551E-020
  -99.3000000000000        -2.669019682485646E-020
  -99.1100000000000        -5.811423781811389E-020
  -98.9200000000000        -3.849136436113164E-020
  -98.7300000000000         2.668189742015396E-020
  -98.5400000000000         1.185739136772627E-019
  -98.3500000000000         2.104684797071020E-019
  -98.1600000000000         2.755123075877969E-019
  -97.9700000000000         2.945095847784019E-019
  -97.7800000000000         2.614999727192673E-019
  -97.5900000000000         1.855006040316081E-019
  -97.4000000000000         8.790607537283877E-020
  -97.2100000000000        -3.701315446813395E-021
  -97.0200000000000        -6.353975836389001E-020
  -96.8300000000000        -7.510183750691570E-020
  -96.6400000000000        -3.594722140277885E-020
  -96.4500000000000         4.158072645520361E-020
  -96.2600000000000         1.339307045890472E-019
  -96.0700000000000         2.131809101800256E-019
  -95.8800000000000         2.551548326509407E-019
  -95.6900000000000         2.464566757909818E-019
  -95.5000000000000         1.883837920374373E-019
  -95.3100000000000         9.658598183481670E-020
  -95.1200000000000        -3.424137228890267E-021
  -94.9300000000000        -8.361178130986162E-020
  -94.7400000000000        -1.214997820604621E-019
  -94.5500000000000        -1.066655695475585E-019
  -94.3600000000000        -4.378328315960875E-020
  -94.1700000000000         4.867577022640657E-020
  -93.9800000000000         1.437250640845372E-019
  -93.7900000000000         2.136158684933570E-019
  -93.6000000000000         2.378281141558600E-019
  -93.4100000000000         2.089901835654138E-019
  -93.2200000000000         1.350144368341875E-019
  -93.0300000000000         3.682820674554917E-020
  -92.8400000000000        -5.764770657260701E-020
  -92.6500000000000        -1.215362425667673E-019
  -92.4600000000000        -1.367364435330202E-019
  -92.2700000000000        -9.911876755863500E-020
  -92.0800000000000        -1.968661357831640E-020
  -91.8900000000000         7.862572890372972E-020
  -91.7000000000000         1.675893591344938E-019
  -91.5100000000000         2.218318743411790E-019
  -91.3200000000000         2.261453768188984E-019
  -91.1300000000000         1.798339585635981E-019
  -90.9400000000000         9.683853276559234E-020
  -90.7500000000000         1.603869677084565E-021
  -90.5600000000000        -7.810585429570896E-020
  -90.3700000000000        -1.193480447069340E-019
  -90.1800000000000        -1.107305664183510E-019
  -89.9900000000000        -5.577461673814640E-020
  -89.8000000000000         2.806934793285931E-020
  -89.6100000000000         1.144838729304078E-019
  -89.4200000000000         1.759781662992831E-019
  -89.2300000000000         1.919903518808983E-019
  -89.0400000000000         1.550322787306056E-019
  -88.8500000000000         7.305933754778217E-020
  -88.6600000000000        -3.265885441350680E-020
  -88.4700000000000        -1.335714427381769E-019
  -88.2800000000000        -2.020354587012314E-019
  -88.0900000000000        -2.192736989652737E-019
  -87.9000000000000        -1.807761087964309E-019
  -87.7100000000000        -9.756428979398520E-020
  -87.5200000000000         7.051582419586112E-021
  -87.3300000000000         1.042728514696623E-019
  -87.1400000000000         1.681754715728936E-019
  -86.9500000000000         1.831870119710055E-019
  -86.7600000000000         1.484943825689182E-019
  -86.5700000000000         7.810101731069414E-020
  -86.3800000000000        -3.476553817283322E-021
  -86.1900000000000        -6.860720124009546E-020
  -86.0000000000000        -9.485971147350966E-020
  -85.8100000000000        -7.177518480507507E-020
  -85.6200000000000        -4.087973263979861E-021
  -85.4300000000000         8.956445420291269E-020
  -85.2400000000000         1.820667653359280E-019
  -85.0500000000000         2.457908911342706E-019
  -84.8600000000000         2.607623878790724E-019
  -84.6700000000000         2.206314317417136E-019
  -84.4800000000000         1.346880373474106E-019
  -84.2900000000000         2.530925058942644E-020
  -84.1000000000000        -7.843687230448159E-020
  -83.9100000000000        -1.491668687886176E-019
  -83.7200000000000        -1.690786752356846E-019
  -83.5300000000000        -1.350490283840361E-019
  -83.3400000000000        -5.944011970603130E-020
  -83.1500000000000         3.360999312057808E-020
  -82.9600000000000         1.153150519752502E-019
  -82.7700000000000         1.606932618571375E-019
  -82.5800000000000         1.558730043991508E-019
  -82.3900000000000         1.021249233345964E-019
  -82.2000000000000         1.545906393587404E-020
  -82.0100000000000        -7.807558763523044E-020
  -81.8200000000000        -1.500034759510691E-019
  -81.6300000000000        -1.777269787361278E-019
  -81.4400000000000        -1.511182896493779E-019
  -81.2500000000000        -7.550058957855621E-020
  -81.0600000000000         2.983194605250744E-020
  -80.8700000000000         1.371149355368318E-019
  -80.6800000000000         2.180319945465249E-019
  -80.4900000000000         2.517555363586670E-019
  -80.3000000000000         2.307999197975621E-019
  -80.1100000000000         1.630301190556021E-019
  -79.9200000000000         6.928418191889412E-020
  -79.7300000000000        -2.268211268643490E-020
  -79.5400000000000        -8.618214606135446E-020
  -79.3500000000000        -1.032280187387717E-019
  -79.1600000000000        -6.961834056982820E-020
  -78.9700000000000         3.970293584668303E-021
  -78.7800000000000         9.518733030982254E-020
  -78.5900000000000         1.765598778846125E-019
  -78.4000000000000         2.234770549610293E-019
  -78.2100000000000         2.212933217146869E-019
  -78.0200000000000         1.695152238503080E-019
  -77.8300000000000         8.189669218436834E-020
  -77.6400000000000        -1.754582452385678E-020
  -77.4500000000000        -1.014197170763225E-019
  -77.2600000000000        -1.467531294229910E-019
  -77.0700000000000        -1.414816587344902E-019
  -76.8800000000000        -8.780518624988485E-020
  -76.6900000000000        -1.494734497884794E-021
  -76.5000000000000         9.263139854322308E-020
  -76.3100000000000         1.677739776272662E-019
  -76.1200000000000         2.027625392203039E-019
  -75.9300000000000         1.880528301374208E-019
  -75.7400000000000         1.284051036997014E-019
  -75.5500000000000         4.147476934701622E-020
  -75.3600000000000        -4.728614501829562E-020
  -75.1700000000000        -1.119593039326835E-019
  -74.9800000000000        -1.336214994953681E-019
  -74.7900000000000        -1.057922800571883E-019
  -74.6000000000000        -3.629078226618217E-020
  -74.4100000000000         5.504783556480606E-020
  -74.2200000000000         1.421445142943553E-019
  -74.0300000000000         2.002610678446273E-019
  -73.8400000000000         2.131868775918215E-019
  -73.6500000000000         1.779350303120177E-019
  -73.4600000000000         1.055879728470974E-019
  -73.2700000000000         1.805699129783636E-020
  -73.0800000000000        -5.829754458722884E-020
  -72.8900000000000        -1.003398153751202E-019
  -72.7000000000000        -9.491753080698731E-020
  -72.5100000000000        -4.276257889301345E-020
  -72.3200000000000         4.159838543739418E-020
  -72.1300000000000         1.339234525305166E-019
  -71.9400000000000         2.071872750972528E-019
  -71.7500000000000         2.393986817901921E-019
  -71.5600000000000         2.200509570207100E-019
  -71.3700000000000         1.533018189053175E-019
  -71.1800000000000         5.689608782338239E-020
  -70.9900000000000        -4.291433977869308E-020
  -70.8000000000000        -1.189959470013639E-019
  -70.6100000000000        -1.512615266021521E-019
  -70.4200000000000        -1.325436098497356E-019
  -70.2300000000000        -7.065560906729169E-020
  -70.0400000000000         1.398527765103995E-020
  -69.8500000000000         9.447733010612376E-020
  -69.6600000000000         1.454855955609869E-019
  -69.4700000000000         1.508404171918643E-019
  -69.2800000000000         1.084305769143558E-019
  -69.0900000000000         3.093636551946945E-020
  -68.9000000000000        -5.782533982879183E-020
  -68.7100000000000        -1.298814849199306E-019
  -68.5200000000000        -1.613723817060983E-019
  -68.3300000000000        -1.396945874252492E-019
  -68.1400000000000        -6.741933339563475E-020
  -67.9500000000000         3.818491804203330E-020
  -67.7600000000000         1.499226187610377E-019
  -67.5700000000000         2.383767349938433E-019
  -67.3800000000000         2.803278500605725E-019
  -67.1900000000000         2.654416875573278E-019
  -67.0000000000000         1.992635534641241E-019
  -66.8100000000000         1.016167125450880E-019
  -66.6200000000000         8.403444747674458E-022
  -66.4300000000000        -7.446463827708095E-020
  -66.2400000000000        -1.037577349447919E-019
  -66.0500000000000        -8.048678172769755E-020
  -65.8600000000000        -1.386721471276722E-020
  -65.6700000000000         7.399747667511795E-020
  -65.4800000000000         1.547715060952063E-019
  -65.2900000000000         2.023273442847222E-019
  -65.1000000000000         2.004803496410277E-019
  -64.9100000000000         1.477634384308131E-019
  -64.7200000000000         5.787355198673687E-020
  -64.5300000000000        -4.430851371573610E-020
  -64.3400000000000        -1.299415140690344E-019
  -64.1500000000000        -1.745837837380194E-019
  -63.9600000000000        -1.652751336907880E-019
  -63.7700000000000        -1.043074218188191E-019
  -63.5800000000000        -8.606334046224943E-021
  -63.3900000000000         9.509387360455799E-020
  -63.2000000000000         1.778938344106761E-019
  -63.0100000000000         2.169900178319402E-019
  -62.8200000000000         2.021702475475872E-019
  -62.6300000000000         1.386675934585130E-019
  -62.4400000000000         4.555151790348573E-020
  -62.2500000000000        -4.986975904472096E-020
  -62.0600000000000        -1.200073670704711E-019
  -61.8700000000000        -1.450000864690072E-019
  -61.6800000000000        -1.184456846115140E-019
  -61.4900000000000        -4.918796715667494E-020
  -61.3000000000000         4.135144336604840E-020
  -61.1100000000000         1.254948260429781E-019
  -60.9200000000000         1.774134051560836E-019
  -60.7300000000000         1.806446610708085E-019
  -60.5400000000000         1.328555029265650E-019
  -60.3500000000000         4.651415503059918E-020
  -60.1600000000000        -5.467469909389184E-020
  -59.9700000000000        -1.425155739007529E-019
  -59.7800000000000        -1.923141900847510E-019
  -59.5900000000000        -1.898522395811289E-019
  -59.4000000000000        -1.353796340510787E-019
  -59.2100000000000        -4.350157977971185E-020
  -59.0200000000000         6.100564577738002E-020
  -58.8300000000000         1.502654501346602E-019
  -58.6400000000000         2.012464292265677E-019
  -58.4500000000000         2.023022757858718E-019
  -58.2600000000000         1.564088384309840E-019
  -58.0700000000000         8.014819813949912E-020
  -57.8800000000000        -1.266857924255299E-021
  -57.6900000000000        -6.146851975375237E-020
  -57.5000000000000        -8.071547534041128E-020
  -57.3100000000000        -5.170117667222267E-020
  -57.1200000000000         1.830318692714837E-020
  -56.9300000000000         1.095830887219010E-019
  -56.7400000000000         1.957548192283894E-019
  -56.5500000000000         2.514876130158662E-019
  -56.3600000000000         2.599242438288534E-019
  -56.1700000000000         2.176474111300762E-019
  -55.9800000000000         1.357607075828185E-019
  -55.7900000000000         3.678196422928960E-020
  -55.6000000000000        -5.175275980471831E-020
  -55.4100000000000        -1.051460130912378E-019
  -55.2200000000000        -1.086180434449990E-019
  -55.0300000000000        -6.158633467667649E-020
  -54.8400000000000         2.209065683103998E-020
  -54.6500000000000         1.180018503958315E-019
  -54.4600000000000         1.981219468739195E-019
  -54.2700000000000         2.388304239293349E-019
  -54.0800000000000         2.277020886806601E-019
  -53.8900000000000         1.670849475621362E-019
  -53.7000000000000         7.339860835876341E-020
  -53.5100000000000        -2.766204678835566E-020
  -53.3200000000000        -1.086206460208537E-019
  -53.1300000000000        -1.482094311757769E-019
  -52.9400000000000        -1.375088821763386E-019
  -52.7500000000000        -8.244805281778956E-020
  -52.5600000000000        -1.959269830614995E-021
  -52.3700000000000         7.764945232898972E-020
  -52.1800000000000         1.304561117655795E-019
  -51.9900000000000         1.385701033151616E-019
  -51.8000000000000         9.745089295987859E-020
  -51.6100000000000         1.735938655429761E-020
  -51.4200000000000        -7.948855563270350E-020
  -51.2300000000000        -1.652633542416198E-019
  -51.0400000000000        -2.145463722442917E-019
  -50.8500000000000        -2.117293927957325E-019
  -50.6600000000000        -1.556421324939934E-019
  -50.4700000000000        -6.004567564287266E-020
  -50.2800000000000         5.018298577571718E-020
  -50.0900000000000         1.461010042767287E-019
  -49.9000000000000         2.029602552793480E-019
  -49.7100000000000         2.072852540088287E-019
  -49.5200000000000         1.607043637567365E-019
  -49.3300000000000         7.940649732376124E-020
  -49.1400000000000        -1.063486478841905E-020
  -48.9500000000000        -8.129225173552504E-020
  -48.7600000000000        -1.105450857461305E-019
  -48.5700000000000        -8.894694782337863E-020
  -48.3800000000000        -2.239730045306772E-020
  -48.1900000000000         6.959188868074257E-020
  -48.0000000000000         1.596176319504091E-019
  -47.8100000000000         2.204185343264754E-019
  -47.6200000000000         2.328822107014739E-019
  -47.4300000000000         1.917098779614388E-019
  -47.2400000000000         1.070990966487116E-019
  -47.0500000000000         1.945210940769255E-021
  -46.8600000000000        -9.465503032130756E-020
  -46.6700000000000        -1.557424257340926E-019
  -46.4800000000000        -1.642696793065606E-019
  -46.2900000000000        -1.180471399515264E-019
  -46.1000000000000        -3.040504829857497E-020
  -45.9100000000000         7.364200452209381E-020
  -45.7200000000000         1.646315045810381E-019
  -45.5300000000000         2.171902244511435E-019
  -45.3400000000000         2.173753400156199E-019
  -45.1500000000000         1.666632559386099E-019
  -44.9600000000000         8.141492646074374E-020
  -44.7700000000000        -1.202088508144490E-020
  -44.5800000000000        -8.512400037596543E-020
  -44.3900000000000        -1.156426819539293E-019
  -44.2000000000000        -9.418026515383655E-020
  -44.0100000000000        -2.699446894833683E-020
  -43.8200000000000         6.581771755593992E-020
  -43.6300000000000         1.562235064084987E-019
  -43.4400000000000         2.165120949088397E-019
  -43.2500000000000         2.274724292386090E-019
  -43.0600000000000         1.840847144385516E-019
  -42.8700000000000         9.706568931257594E-020
  -42.6800000000000        -1.016856642275126E-020
  -42.4900000000000        -1.082286420675515E-019
  -42.3000000000000        -1.702132052516834E-019
  -42.1100000000000        -1.794529768396916E-019
  -41.9200000000000        -1.342875517681105E-019
  -41.7300000000000        -4.848140348989570E-020
  -41.5400000000000         5.284548662108009E-020
  -41.3500000000000         1.405816538686763E-019
  -41.1600000000000         1.901202937578473E-019
  -40.9700000000000         1.884921404046600E-019
  -40.7800000000000         1.380479327010648E-019
  -40.5900000000000         5.562563708312830E-020
  -40.4000000000000        -3.253287835515479E-020
  -40.2100000000000        -9.860302414527104E-020
  -40.0200000000000        -1.214241917961282E-019
  -39.8300000000000        -9.274959460203755E-020
  -39.6400000000000        -1.968528042921176E-020
  -39.4500000000000         7.736601678390175E-020
  -39.2600000000000         1.706330706626185E-019
  -39.0700000000000         2.330409337164954E-019
  -38.8800000000000         2.460674854637641E-019
  -38.6900000000000         2.051131042060187E-019
  -38.5000000000000         1.208317363173992E-019
  -38.3100000000000         1.605125391772461E-020
  -38.1200000000000        -8.080200462630831E-020
  -37.9300000000000        -1.438474342256582E-019
  -37.7400000000000        -1.570998405886316E-019
  -37.5500000000000        -1.189196831118048E-019
  -37.3600000000000        -4.231429572200725E-020
  -37.1700000000000         4.896680101813408E-020
  -36.9800000000000         1.274002189985428E-019
  -36.7900000000000         1.697003181689181E-019
  -36.6000000000000         1.635515239677973E-019
  -36.4100000000000         1.111124862325352E-019
  -36.2200000000000         2.828815773737058E-020
  -36.0300000000000        -5.999847810490393E-020
  -35.8400000000000        -1.271409115529141E-019
  -35.6500000000000        -1.526461342032609E-019
  -35.4600000000000        -1.281303082479885E-019
  -35.2700000000000        -5.978583362866125E-020
  -35.0800000000000         3.337899465907880E-020
  -34.8900000000000         1.250058100919896E-019
  -34.7000000000000         1.889719250640131E-019
  -34.5100000000000         2.069099241748533E-019
  -34.3200000000000         1.735066271261410E-019
  -34.1300000000000         9.806923663096988E-020
  -33.9400000000000         1.908671162464771E-021
  -33.7500000000000        -8.772029540326121E-020
  -33.5600000000000        -1.453919965761257E-019
  -33.3700000000000        -1.547631804459032E-019
  -33.1800000000000        -1.132187017092588E-019
  -32.9900000000000        -3.257666019652906E-020
  -32.8000000000000         6.434018131323460E-020
  -32.6100000000000         1.502713188948362E-019
  -32.4200000000000         2.013343359611586E-019
  -32.2300000000000         2.038515783518420E-019
  -32.0400000000000         1.582351041294642E-019
  -31.8500000000000         7.881080448710813E-020
  -31.6600000000000        -1.038157876496332E-020
  -31.4700000000000        -8.261276097804884E-020
  -31.2800000000000        -1.162803740318115E-019
  -31.0900000000000        -1.012423650661204E-019
  -30.9000000000000        -4.181841834483292E-020
  -30.7100000000000         4.442158703695713E-020
  -30.5200000000000         1.317381900910550E-019
  -30.3300000000000         1.937018291263331E-019
  -30.1400000000000         2.109026142888254E-019
  -29.9500000000000         1.766553658122679E-019
  -29.7600000000000         9.904450597461982E-020
  -29.5700000000000        -1.292572033476870E-021
  -29.3800000000000        -9.701722285691196E-020
  -29.1900000000000        -1.618986318206232E-019
  -29.0000000000000        -1.783321440238842E-019
  -28.8100000000000        -1.423941291222266E-019
  -28.6200000000000        -6.496049893969206E-020
  -28.4300000000000         3.145304756148965E-020
  -28.2400000000000         1.192257032321705E-019
  -28.0500000000000         1.736443715270079E-019
  -27.8600000000000         1.800607835807262E-019
  -27.6700000000000         1.381102183482378E-019
  -27.4800000000000         6.176602667389050E-020
  -27.2900000000000        -2.478794328534658E-020
  -27.1000000000000        -9.427234702671131E-020
  -26.9100000000000        -1.243498983970762E-019
  -26.7200000000000        -1.042446677854381E-019
  -26.5300000000000        -3.800330418761745E-020
  -26.3400000000000         5.657173121512469E-020
  -26.1500000000000         1.530203484055306E-019
  -25.9600000000000         2.238678558431412E-019
  -25.7700000000000         2.485775117202746E-019
  -25.5800000000000         2.194965228323831E-019
  -25.3900000000000         1.440780869979301E-019
  -25.2000000000000         4.275073096257890E-020
  -25.0100000000000        -5.693463123967182E-020
  -24.8200000000000        -1.281816138327844E-019
  -24.6300000000000        -1.525788859180884E-019
  -24.4400000000000        -1.252937526004987E-019
  -24.2500000000000        -5.633905256095221E-020
  -24.0600000000000         3.245094291222096E-020
  -23.8700000000000         1.138616487612281E-019
  -23.6800000000000         1.632861246716053E-019
  -23.4900000000000         1.659320608497289E-019
  -23.3000000000000         1.211411547091011E-019
  -23.1100000000000         4.255505839208617E-020
  -22.9200000000000        -4.591853981936925E-020
  -22.7300000000000        -1.171495438119970E-019
  -22.5400000000000        -1.487701196648992E-019
  -22.3500000000000        -1.297712128232780E-019
  -22.1600000000000        -6.379994610892870E-020
  -21.9700000000000         3.179196738973971E-020
  -21.7800000000000         1.308717677502536E-019
  -21.5900000000000         2.059993029286338E-019
  -21.4000000000000         2.362953719781687E-019
  -21.2100000000000         2.134377091310337E-019
  -21.0200000000000         1.440572933913684E-019
  -20.8300000000000         4.784475504679360E-020
  -20.6400000000000        -4.808526029217004E-020
  -20.4500000000000        -1.169465181871303E-019
  -20.2600000000000        -1.399233505001718E-019
  -20.0700000000000        -1.115146195274456E-019
  -19.8800000000000        -4.105002950257378E-020
  -19.6900000000000         5.005865507427931E-020
  -19.5000000000000         1.345461535901261E-019
  -19.3100000000000         1.872115774781702E-019
  -19.1200000000000         1.922402895583413E-019
  -18.9300000000000         1.478049359304075E-019
  -18.7400000000000         6.659893340100367E-020
  -18.5500000000000        -2.786197004928599E-020
  -18.3600000000000        -1.080918852896907E-019
  -18.1700000000000        -1.506377327638144E-019
  -17.9800000000000        -1.429023072366187E-019
  -17.7900000000000        -8.681320525845507E-020
  -17.6000000000000         1.712974414237589E-021
  -17.4100000000000         9.734445275163785E-020
  -17.2200000000000         1.726214303775007E-019
  -17.0300000000000         2.058621377980003E-019
  -16.8400000000000         1.874193736581342E-019
  -16.6500000000000         1.224823231871877E-019
  -16.4600000000000         2.959708120188343E-020
  -16.2700000000000        -6.468984483101654E-020
  -16.0800000000000        -1.335295771753793E-019
  -15.8900000000000        -1.575801028489690E-019
  -15.7000000000000        -1.306472925746325E-019
  -15.5100000000000        -6.149695488848352E-020
  -15.3200000000000         2.870714530842827E-020
  -15.1300000000000         1.125981709649477E-019
  -14.9400000000000         1.646254874866468E-019
  -14.7500000000000         1.685592374646973E-019
  -14.5600000000000         1.222923311592342E-019
  -14.3700000000000         3.853359556295297E-020
  -14.1800000000000        -5.882334591196779E-020
  -13.9900000000000        -1.416107919949185E-019
  -13.8000000000000        -1.855717954604485E-019
  -13.6100000000000        -1.774346117087161E-019
  -13.4200000000000        -1.188079972196755E-019
  -13.2300000000000        -2.575386264498855E-020
  -13.0400000000000         7.583966931484658E-020
  -12.8500000000000         1.577352056411627E-019
  -12.6600000000000         1.975023792570933E-019
  -12.4700000000000         1.849941492467270E-019
  -12.2800000000000         1.252674946474192E-019
  -12.0900000000000         3.709373551753912E-020
  -11.9000000000000        -5.252053559861738E-020
  -11.7100000000000        -1.162178480735728E-019
  -11.5200000000000        -1.342871339574974E-019
  -11.3300000000000        -1.004356750037727E-019
  -11.1400000000000        -2.363482514104750E-020
  -10.9500000000000         7.451393243041978E-020
  -10.7600000000000         1.661227040536527E-019
  -10.5700000000000         2.252028282403356E-019
  -10.3800000000000         2.352832911208929E-019
  -10.1900000000000         1.942248353769716E-019
  -10.0000000000000         1.148245985255057E-019
  -9.81000000000000         2.104923235480303E-020
  -9.62000000000000        -5.898743195684836E-020
  -9.42999999999999        -1.012506399928128E-019
  -9.23999999999999        -9.282566472461949E-020
  -9.05000000000000        -3.572555649336078E-020
  -8.86000000000000         5.365203805840805E-020
  -8.67000000000000         1.492699347888804E-019
  -8.48000000000000         2.230160421591282E-019
  -8.28999999999999         2.528785801842640E-019
  -8.09999999999999         2.293475417749281E-019
  -7.91000000000000         1.581805467532187E-019
  -7.72000000000000         5.873578710388522E-020
  -7.53000000000000        -4.163485936550332E-020
  -7.34000000000000        -1.155037775855266E-019
  -7.15000000000001        -1.433071428506395E-019
  -6.95999999999999        -1.190074330385071E-019
  -6.77000000000000        -5.182950463650052E-020
  -6.58000000000000         3.644315970355336E-020
  -6.39000000000000         1.178303243513493E-019
  -6.20000000000000         1.663261015926824E-019
  -6.01000000000001         1.655022913490162E-019
  -5.81999999999999         1.133277070570336E-019
  -5.63000000000000         2.279848521166685E-020
  -5.44000000000000        -8.179347729927394E-020
  -5.25000000000000        -1.718476662257815E-019
  -5.06000000000000        -2.226553368422293E-019
  -4.87000000000000        -2.204434397499849E-019
  -4.67999999999999        -1.662484635570760E-019
  -4.48999999999999        -7.553173095327553E-020
  -4.30000000000000         2.632841217810713E-020
  -4.11000000000000         1.113599818925965E-019
  -3.92000000000000         1.570309624084428E-019
  -3.73000000000000         1.526791706408261E-019
  -3.53999999999999         1.024758159199482E-019
  -3.34999999999999         2.406444155104597E-020
  -3.16000000000000        -5.671739567504320E-020
  -2.97000000000000        -1.134859027129166E-019
  -2.78000000000000        -1.270990320423017E-019
  -2.59000000000000        -9.131745831287417E-020
  -2.40000000000001        -1.468733197243728E-020
  -2.20999999999999         8.190566395797271E-020
  -2.02000000000000         1.712978799667741E-019
  -1.83000000000000         2.279595066397131E-019
  -1.64000000000000         2.354515252815199E-019
  -1.45000000000000         1.912498849848133E-019
  -1.26000000000001         1.075264630964396E-019
  -1.06999999999999         7.663901652906990E-021
 -0.879999999999995        -8.047049347432155E-020
 -0.689999999999998        -1.325285859800840E-019
 -0.500000000000000        -1.346375013961388E-019
 -0.310000000000002        -8.729980873975775E-020
 -0.120000000000005        -5.136153269652808E-021
  7.000000000000739E-002    8.741603115922526E-020
  0.260000000000005         1.631825607005112E-019
  0.450000000000003         2.000766522367860E-019
  0.640000000000001         1.874321347640689E-019
  0.829999999999998         1.290300153420269E-019
   1.02000000000000         4.194301861350340E-020
   1.21000000000001        -4.847291062663354E-020
   1.40000000000001        -1.159913101125540E-019
   1.59000000000000        -1.411736390126565E-019
   1.78000000000000        -1.170307515755658E-019
   1.97000000000000        -5.102921597627290E-020
   2.16000000000000         3.713188671665488E-020
   2.34999999999999         1.213038947541564E-019
   2.54000000000001         1.765302799130134E-019
   2.73000000000000         1.863146594182439E-019
   2.92000000000000         1.473991697221834E-019
   3.11000000000000         7.067571280562197E-020
   3.30000000000000        -2.200991553792821E-020
   3.48999999999999        -1.042141461267357E-019
   3.68000000000001        -1.525670390057693E-019
   3.87000000000000        -1.535410774695270E-019
   4.06000000000000        -1.073585175675418E-019
   4.25000000000000        -2.790998330933132E-020
   4.44000000000000         6.128290623594232E-020
   4.63000000000000         1.338888279005582E-019
   4.82000000000001         1.684060856962746E-019
   5.01000000000001         1.544224810810614E-019
   5.20000000000000         9.569533646161646E-020
   5.39000000000000         9.160968157114206E-021
   5.58000000000000        -7.986375525853090E-020
   5.77000000000000        -1.449450738142594E-019
   5.96000000000001        -1.661933166375708E-019
   6.15000000000001        -1.360980144767144E-019
   6.34000000000000        -6.181516099128085E-020
   6.53000000000000         3.678408731795853E-020