  -105.000000000000         4.836940127164324E-021
  -104.810000000000         1.333753552940400E-020
  -104.620000000000         1.871266079941624E-020
  -104.430000000000         1.995154274642298E-020
  -104.240000000000         1.719845768096750E-020
  -104.050000000000         1.169960179827418E-020
  -103.860000000000         5.432924421103133E-021
  -103.670000000000         5.285795118213675E-022
  -103.480000000000        -1.351478731122596E-021
  -103.290000000000         5.055241469136867E-022
  -103.100000000000         5.661009050900269E-021
  -102.910000000000         1.265957020853194E-020
  -102.720000000000         1.946007141745521E-020
  -102.530000000000         2.403730058754003E-020
  -102.340000000000         2.497917052068918E-020
  -102.150000000000         2.190609658103811E-020
  -101.960000000000         1.559071033559918E-020
  -101.770000000000         7.742673941686474E-021
  -101.580000000000         5.203182622665779E-022
  -101.390000000000        -4.089706582825853E-021
  -101.200000000000        -4.844753732112932E-021
  -101.010000000000        -1.603951610362740E-021
  -100.820000000000         4.632832345913985E-021
  -100.630000000000         1.201615857227250E-020
  -100.440000000000         1.838343795913078E-020
  -100.250000000000         2.188461164615672E-020
  -100.060000000000         2.151567696987324E-020
  -99.8700000000000         1.740591906645711E-020
  -99.6800000000000         1.077632055879362E-020
  -99.4900000000000         3.581703354573050E-021
  -99.3000000000000        -2.059575923777220E-021
  -99.1100000000000        -4.483145510874084E-021
  -98.9200000000000        -2.964219792985593E-021
  -98.7300000000000         2.069943250379939E-021
  -98.5400000000000         9.162804013043020E-021
  -98.3500000000000         1.625101564725502E-020
  -98.1600000000000         2.126366127729383E-020
  -97.9700000000000         2.272377503398316E-020
  -97.7800000000000         2.017718137154012E-020
  -97.5900000000000         1.432420599636694E-020
  -97.4000000000000         6.816316268221643E-021
  -97.2100000000000        -2.230725973947541E-022
  -97.0200000000000        -4.814595354266741E-021
  -96.8300000000000        -5.697117640744699E-021
  -96.6400000000000        -2.693421944786364E-021
  -96.4500000000000         3.239072024970900E-021
  -96.2600000000000         1.028768519927293E-020
  -96.0700000000000         1.631299099934356E-020
  -95.8800000000000         1.947272595379941E-020
  -95.6900000000000         1.875939852043444E-020
  -95.5000000000000         1.429506806231562E-020
  -95.3100000000000         7.297633881569057E-021
  -95.1200000000000        -2.714134936871413E-022
  -94.9300000000000        -6.275469786564939E-021
  -94.7400000000000        -9.022765054572204E-021
  -94.5500000000000        -7.758210569424952E-021
  -94.3600000000000        -2.884469724233680E-021
  -94.1700000000000         4.152349210097244E-021
  -93.9800000000000         1.127997901855191E-020
  -93.7900000000000         1.639978990229520E-020
  -93.6000000000000         1.799514841678503E-020
  -93.4100000000000         1.557145369420772E-020
  -93.2200000000000         9.799809623758840E-021
  -93.0300000000000         2.322696266898352E-021
  -92.8400000000000        -4.721558055136465E-021
  -92.6500000000000        -9.317210598676599E-021
  -92.4600000000000        -1.015322982059295E-020
  -92.2700000000000        -7.000998199667058E-021
  -92.0800000000000        -7.789281149338364E-022
  -91.8900000000000         6.714224522099887E-021
  -91.7000000000000         1.332003885459115E-020
  -91.5100000000000         1.714443844451619E-020
  -91.3200000000000         1.710428588616363E-020
  -91.1300000000000         1.323797507805837E-020
  -90.9400000000000         6.689806641863285E-021
  -90.7500000000000        -6.271691905448466E-022
  -90.5600000000000        -6.591486052650592E-021
  -90.3700000000000        -9.493494646712924E-021
  -90.1800000000000        -8.535039963535735E-021
  -89.9900000000000        -4.063494867760750E-021
  -89.8000000000000         2.527649981529287E-021
  -89.6100000000000         9.202864302939554E-021
  -89.4200000000000         1.387652002374458E-020
  -89.2300000000000         1.502153738428355E-020
  -89.0400000000000         1.211844732243094E-020
  -88.8500000000000         5.814356104226568E-021
  -88.6600000000000        -2.254924816719286E-021
  -88.4700000000000        -9.928640520682546E-021
  -88.2800000000000        -1.513668841692027E-020
  -88.0900000000000        -1.648887540082574E-020
  -87.9000000000000        -1.366754198165389E-020
  -87.7100000000000        -7.510697025258577E-021
  -87.5200000000000         2.372365266903648E-022
  -87.3300000000000         7.433812975170938E-021
  -87.1400000000000         1.215822441651428E-020
  -86.9500000000000         1.326255271130476E-020
  -86.7600000000000         1.069494905437151E-020
  -86.5700000000000         5.501243962144222E-021
  -86.3800000000000        -4.950580926948915E-022
  -86.1900000000000        -5.240619992603043E-021
  -86.0000000000000        -7.067359123859888E-021
  -85.8100000000000        -5.194250722034524E-021
  -85.6200000000000         3.158009969178332E-023
  -85.4300000000000         7.225451568645585E-021
  -85.2400000000000         1.436126594358090E-020
  -85.0500000000000         1.935795181481600E-020
  -84.8600000000000         2.068577678933713E-020
  -84.6700000000000         1.781650004882619E-020
  -84.4800000000000         1.138652853253031E-020
  -84.2900000000000         3.025012097339557E-021
  -84.1000000000000        -5.104528798680035E-021
  -83.9100000000000        -1.091748494404138E-020
  -83.7200000000000        -1.299944738584453E-020
  -83.5300000000000        -1.100435928257494E-020
  -83.3400000000000        -5.744047579518192E-021
  -83.1500000000000         1.056753377923896E-021
  -82.9600000000000         7.268458700636545E-021
  -82.7700000000000         1.097990799051131E-020
  -82.5800000000000         1.105579854747459E-020
  -82.3900000000000         7.466724525152013E-021
  -82.2000000000000         1.296467599248403E-021
  -82.0100000000000        -5.575320445911861E-021
  -81.8200000000000        -1.102303937014348E-020
  -81.6300000000000        -1.329827877749079E-020
  -81.4400000000000        -1.154526056524086E-020
  -81.2500000000000        -6.058451773665060E-021
  -81.0600000000000         1.793271130959338E-021
  -80.8700000000000         9.954684317248206E-021
  -80.6800000000000         1.627231562604967E-020
  -80.4900000000000         1.911201762400941E-020
  -80.3000000000000         1.782686170704462E-020
  -80.1100000000000         1.293980582606491E-020
  -79.9200000000000         5.988406123912823E-021
  -79.7300000000000        -9.233547424101104E-022
  -79.5400000000000        -5.736459979918829E-021
  -79.3500000000000        -7.034598194149057E-021
  -79.1600000000000        -4.455052115863534E-021
  -78.9700000000000         1.206773291098654E-021
  -78.7800000000000         8.230134461843775E-021
  -78.5900000000000         1.447194508663522E-020
  -78.4000000000000         1.799390243515932E-020
  -78.2100000000000         1.763114719758067E-020
  -78.0200000000000         1.333681565851864E-020
  -77.8300000000000         6.202287696432156E-021
  -77.6400000000000        -1.852578245579885E-021
  -77.4500000000000        -8.629224153046798E-021
  -77.2600000000000        -1.228103523799049E-020
  -77.0700000000000        -1.184278869360925E-020
  -76.8800000000000        -7.506379721427729E-021
  -76.6900000000000        -5.635371289034386E-022
  -76.5000000000000         6.967780200374554E-021
  -76.3100000000000         1.292530089344250E-020
  -76.1200000000000         1.562433420337217E-020
  -75.9300000000000         1.433966688139064E-020
  -75.7400000000000         9.508245384756883E-021
  -75.5500000000000         2.594793067115613E-021
  -75.3600000000000        -4.339382314628966E-021
  -75.1700000000000        -9.238116511517932E-021
  -74.9800000000000        -1.064753073091844E-020
  -74.7900000000000        -8.135682164232663E-021
  -74.6000000000000        -2.413938831263232E-021
  -74.4100000000000         4.874107474079485E-021
  -74.2200000000000         1.163425690051256E-020
  -74.0300000000000         1.593372612820379E-020
  -73.8400000000000         1.656563438789553E-020
  -73.6500000000000         1.340162005193992E-020
  -73.4600000000000         7.429673721980912E-021
  -73.2700000000000         4.658631923208682E-022
  -73.0800000000000        -5.376297077524865E-021
  -72.8900000000000        -8.304422464277818E-021
  -72.7000000000000        -7.373841755684735E-021
  -72.5100000000000        -2.769108599311734E-021
  -72.3200000000000         4.241523814961949E-021
  -72.1300000000000         1.166603984396885E-020
  -71.9400000000000         1.735954782640096E-020
  -71.7500000000000         1.964155451277246E-020
  -71.5600000000000         1.778124729165916E-020
  -71.3700000000000         1.221004829112680E-020
  -71.1800000000000         4.399324064932176E-021
  -70.9900000000000        -3.561731297118980E-021
  -70.8000000000000        -9.565633789548115E-021
  -70.6100000000000        -1.208934722691768E-020
  -70.4200000000000        -1.062521268576170E-020
  -70.2300000000000        -5.815499527849529E-021
  -70.0400000000000         7.473833614381129E-022
  -69.8500000000000         6.995744991390052E-021
  -69.6600000000000         1.099769944559791E-020
  -69.4700000000000         1.152652967478378E-020
  -69.2800000000000         8.422672034222526E-021
  -69.0900000000000         2.642711212502053E-021
  -68.9000000000000        -4.019533906289830E-021
  -68.7100000000000        -9.459329698718553E-021
  -68.5200000000000        -1.188174321294504E-020
  -68.3300000000000        -1.033557916764777E-020
  -68.1400000000000        -5.004160974462711E-021
  -67.9500000000000         2.832720819237980E-021
  -67.7600000000000         1.115553328013252E-020
  -67.5700000000000         1.777749398481478E-020
  -67.3800000000000         2.096739425755032E-020
  -67.1900000000000         1.994293407195565E-020
  -67.0000000000000         1.509226874122275E-020
  -66.8100000000000         7.859805768573800E-021
  -66.6200000000000         3.289701366942595E-022
  -66.4300000000000        -5.377917353711732E-021
  -66.2400000000000        -7.709439953346351E-021
  -66.0500000000000        -6.128170992451193E-021
  -65.8600000000000        -1.258649876566047E-021
  -65.6700000000000         5.302582359949206E-021
  -65.4800000000000         1.145942140889324E-020
  -65.2900000000000         1.523345072561089E-020
  -65.1000000000000         1.534636902204584E-020
  -64.9100000000000         1.159831903433624E-020
  -64.7200000000000         4.932246190440604E-021
  -64.5300000000000        -2.834541015762063E-021
  -64.3400000000000        -9.534047483723215E-021
  -64.1500000000000        -1.327490184556615E-020
  -63.9600000000000        -1.299134140455122E-020
  -63.7700000000000        -8.754207776888528E-021
  -63.5800000000000        -1.753139803792786E-021
  -63.3900000000000         6.045187277287699E-021
  -63.2000000000000         1.246340618185955E-020
  -63.0100000000000         1.573955605102138E-020
  -62.8200000000000         1.503103263789796E-020
  -62.6300000000000         1.065061144877839E-020
  -62.4400000000000         3.967114601942303E-021
  -62.2500000000000        -2.999302672430121E-021
  -62.0600000000000        -8.169118430123268E-021
  -61.8700000000000        -1.001083561374374E-020
  -61.6800000000000        -7.987821687727483E-021
  -61.4900000000000        -2.715080101112628E-021
  -61.3000000000000         4.219667816874466E-021
  -61.1100000000000         1.071882740539373E-020
  -60.9200000000000         1.478725165347956E-020
  -60.7300000000000         1.511589750849780E-020
  -60.5400000000000         1.146701830930852E-020
  -60.3500000000000         4.749107258535606E-021
  -60.1600000000000        -3.239679414329904E-021
  -59.9700000000000        -1.032462808810314E-020
  -59.7800000000000        -1.457522682158966E-020
  -59.5900000000000        -1.485431804773459E-020
  -59.4000000000000        -1.113774267370286E-020
  -59.2100000000000        -4.513141185817155E-021
  -59.0200000000000         3.140823293240882E-021
  -58.8300000000000         9.701380911797659E-021
  -58.6400000000000         1.341594961776634E-020
  -58.4500000000000         1.340554352679941E-020
  -58.2600000000000         9.911285039526769E-021
  -58.0700000000000         4.212909469568391E-021
  -57.8800000000000        -1.756126185524777E-021
  -57.6900000000000        -5.983904379970500E-021
  -57.5000000000000        -6.977452653972959E-021
  -57.3100000000000        -4.207993976739829E-021
  -57.1200000000000         1.725765356010060E-021
  -56.9300000000000         9.264170281558651E-021
  -56.7400000000000         1.633512611107107E-020
  -56.5500000000000         2.095477281399031E-020
  -56.3600000000000         2.180590999705389E-020
  -56.1700000000000         1.862559071195311E-020
  -55.9800000000000         1.228826098109451E-020
  -55.7900000000000         4.559229315340237E-021
  -55.6000000000000        -2.410671577675669E-021
  -55.4100000000000        -6.702899402548958E-021
  -55.2200000000000        -7.182480545793608E-021
  -55.0300000000000        -3.823236773245740E-021
  -54.8400000000000         2.286896334373089E-021
  -54.6500000000000         9.261830938664628E-021
  -54.4600000000000         1.496336938055019E-020
  -54.2700000000000         1.761987435614317E-020
  -54.0800000000000         1.633896820469848E-020
  -53.8900000000000         1.136578433482694E-020
  -53.7000000000000         4.011442096773955E-021
  -53.5100000000000        -3.728088836870820E-021
  -53.3200000000000        -9.752303128671111E-021
  -53.1300000000000        -1.246673800128272E-020
  -52.9400000000000        -1.124571076991270E-020
  -52.7500000000000        -6.612177239474643E-021
  -52.5600000000000        -8.231579589631845E-023
  -52.3700000000000         6.279779678167453E-021
  -52.1800000000000         1.046766347206363E-020
  -51.9900000000000         1.112230988889488E-020
  -51.8000000000000         7.934585826498956E-021
  -51.6100000000000         1.742944857745445E-021
  -51.4200000000000        -5.703081778184601E-021
  -51.2300000000000        -1.224611829431358E-020
  -51.0400000000000        -1.594560660299956E-020
  -50.8500000000000        -1.564264733449525E-020
  -50.6600000000000        -1.130054074614400E-020
  -50.4700000000000        -4.021489652739373E-021
  -50.2800000000000         4.265886998802179E-021
  -50.0900000000000         1.135784062374274E-020
  -49.9000000000000         1.540594720731888E-020
  -49.7100000000000         1.544437927763661E-020
  -49.5200000000000         1.166174949618124E-020
  -49.3300000000000         5.339249835269249E-021
  -49.1400000000000        -1.526744400931449E-021
  -48.9500000000000        -6.808197968087972E-021
  -48.7600000000000        -8.865862148609511E-021
  -48.5700000000000        -7.026514387122236E-021
  -48.3800000000000        -1.778303319233093E-021
  -48.1900000000000         5.372476901372921E-021
  -48.0000000000000         1.234120387763777E-020
  -47.8100000000000         1.707305814379609E-020
  -47.6200000000000         1.814254741632444E-020
  -47.4300000000000         1.517051009536604E-020
  -47.2400000000000         8.938043352291009E-021
  -47.0500000000000         1.164661869459366E-021
  -46.8600000000000        -5.985095999243096E-021
  -46.6700000000000        -1.052411201025147E-020
  -46.4800000000000        -1.121429284149672E-020
  -46.2900000000000        -7.921790727564812E-021
  -46.1000000000000        -1.652617092716701E-021
  -45.9100000000000         5.741918263228410E-021
  -45.7200000000000         1.210434648899982E-020
  -45.5300000000000         1.559776029959576E-020
  -45.3400000000000         1.523766440759601E-020
  -45.1500000000000         1.117452764586561E-020
  -44.9600000000000         4.645649120081282E-021
  -44.7700000000000        -2.388714611698033E-021
  -44.5800000000000        -7.818604320581677E-021
  -44.3900000000000        -1.000046110729753E-020
  -44.2000000000000        -8.237583039301746E-021
  -44.0100000000000        -2.985845716077362E-021
  -43.8200000000000         4.274990164144492E-021
  -43.6300000000000         1.146733172340061E-020
  -43.4400000000000         1.651585746973753E-020
  -43.2500000000000         1.794765782676300E-020
  -43.0600000000000         1.531826630627964E-020
  -42.8700000000000         9.340122192245627E-021
  -42.6800000000000         1.676664164271828E-021
  -42.4900000000000        -5.537631224348591E-021
  -42.3000000000000        -1.031178118271436E-020
  -42.1100000000000        -1.136948753221873E-020
  -41.9200000000000        -8.512123542975862E-021
  -41.7300000000000        -2.669093483510004E-021
  -41.5400000000000         4.378479622734706E-021
  -41.3500000000000         1.052032786077062E-020
  -41.1600000000000         1.393405228662085E-020
  -40.9700000000000         1.361715474147736E-020
  -40.7800000000000         9.679192173059452E-021
  -40.5900000000000         3.308942676424635E-021
  -40.4000000000000        -3.573789361454971E-021
  -40.2100000000000        -8.880200308452577E-021
  -40.0200000000000        -1.096467688701332E-020
  -39.8300000000000        -9.109097675045486E-021
  -39.6400000000000        -3.738457969452238E-021
  -39.4500000000000         3.695131074744535E-021
  -39.2600000000000         1.112711793824185E-020
  -39.0700000000000         1.647440677406548E-020
  -38.8800000000000         1.823670229736692E-020
  -38.6900000000000         1.593067790268040E-020
  -38.5000000000000         1.023026134627696E-020
  -38.3100000000000         2.771576403717008E-021
  -38.1200000000000        -4.321077443437224E-021
  -37.9300000000000        -9.050237557783430E-021
  -37.7400000000000        -1.012220780152347E-020
  -37.5500000000000        -7.318308914498635E-021
  -37.3600000000000        -1.553238169366850E-021
  -37.1700000000000         5.395469516437813E-021
  -36.9800000000000         1.140762332260792E-020
  -36.7900000000000         1.463904916171255E-020
  -36.6000000000000         1.405944114809025E-020
  -36.4100000000000         9.753527516323328E-021
  -36.2200000000000         2.898081706983332E-021
  -36.0300000000000        -4.578797594138737E-021
  -35.8400000000000        -1.055732139312479E-020
  -35.6500000000000        -1.334179070060153E-020
  -35.4600000000000        -1.215316609974292E-020
  -35.2700000000000        -7.354935618038555E-021
  -35.0800000000000        -3.466268370579741E-022
  -34.8900000000000         6.843818335857725E-021
  -34.7000000000000         1.215009096870794E-020
  -34.5100000000000         1.406851511236989E-020
  -34.3200000000000         1.209553211394660E-020
  -34.1300000000000         6.874578367601513E-021
  -33.9400000000000         9.328264131975206E-024
  -33.7500000000000        -6.403067907940660E-021
  -33.5600000000000        -1.038367356661201E-020
  -33.3700000000000        -1.065077655926219E-020
  -33.1800000000000        -6.997685761025004E-021
  -32.9900000000000        -3.590970272696545E-022
  -32.8000000000000         7.453604857167587E-021
  -32.6100000000000         1.427151171482080E-020
  -32.4200000000000         1.819152521802273E-020
  -32.2300000000000         1.812366643316959E-020
  -32.0400000000000         1.410440010044732E-020
  -31.8500000000000         7.285634470045031E-021
  -31.6600000000000        -3.974637651516740E-022
  -31.4700000000000        -6.784080265047440E-021
  -31.2800000000000        -1.010975881993221E-020
  -31.0900000000000        -9.512782317652249E-021
  -30.9000000000000        -5.278101355834376E-021
  -30.7100000000000         1.251870477291081E-021
  -30.5200000000000         8.073247162363542E-021
  -30.3300000000000         1.310771809087354E-020
  -30.1400000000000         1.480953927254135E-020
  -29.9500000000000         1.261610281217149E-020
  -29.7600000000000         7.111765726049697E-021
  -29.5700000000000        -1.419015925337759E-022
  -29.3800000000000        -7.059801794986073E-021
  -29.1900000000000        -1.163948250068335E-020
  -29.0000000000000        -1.254439009978173E-020
  -28.8100000000000        -9.495141580574990E-021
  -28.6200000000000        -3.354770124378053E-021
  -28.4300000000000         4.117821820726189E-021
  -28.2400000000000         1.077565554901209E-020
  -28.0500000000000         1.470582500923066E-020
  -27.8600000000000         1.478530281133399E-020
  -27.6700000000000         1.100863620737317E-020
  -27.4800000000000         4.491994056796143E-021
  -27.2900000000000        -2.847935724156857E-021
  -27.1000000000000        -8.847383074653572E-021
  -26.9100000000000        -1.172118179957745E-020
  -26.7200000000000        -1.057966799576841E-020
  -26.5300000000000        -5.687056839258222E-021
  -26.3400000000000         1.613828125027016E-021
  -26.1500000000000         9.289026909012734E-021
  -25.9600000000000         1.520095562017997E-020
  -25.7700000000000         1.772538759013386E-020
  -25.5800000000000         1.621855012145424E-020
  -25.3900000000000         1.119867247540728E-020
  -25.2000000000000         4.189711502555530E-021
  -25.0100000000000        -2.726520304852611E-021
  -24.8200000000000        -7.518917353442328E-021
  -24.6300000000000        -8.799142993114882E-021
  -24.4400000000000        -6.225251272034485E-021
  -24.2500000000000        -5.998670326978660E-022
  -24.0600000000000         6.365456702958024E-021
  -23.8700000000000         1.255124352542845E-020
  -23.6800000000000         1.605075490833867E-020
  -23.4900000000000         1.572942804044426E-020
  -23.3000000000000         1.155972213121084E-020
  -23.1100000000000         4.633464382084563E-021
  -22.9200000000000        -3.151898245972716E-021
  -22.7300000000000        -9.641416234976414E-021
  -22.5400000000000        -1.304521693935698E-020
  -22.3500000000000        -1.245448516436926E-020
  -22.1600000000000        -8.101425535856189E-021
  -21.9700000000000        -1.288481651807877E-021
  -21.7800000000000         5.992109106117455E-021
  -21.5900000000000         1.163797018219475E-020
  -21.4000000000000         1.404747079042283E-020
  -21.2100000000000         1.258462823589801E-020
  -21.0200000000000         7.762755876743822E-021
  -20.8300000000000         1.092962010506371E-021
  -20.6400000000000        -5.358924257304361E-021
  -20.4500000000000        -9.578258653720812E-021
  -20.2600000000000        -1.019384279762783E-020
  -20.0700000000000        -6.883951528876029E-021
  -19.8800000000000        -4.778544191290021E-022
  -19.6900000000000         7.276840743108448E-021
  -19.5000000000000         1.421381237787730E-020
  -19.3100000000000         1.837026971337619E-020
  -19.1200000000000         1.855211652133063E-020
  -18.9300000000000         1.467874736453445E-020
  -18.7400000000000         7.807637406733942E-021
  -18.5500000000000        -1.687212197800773E-022
  -18.3600000000000        -7.066119214470051E-021
  -18.1700000000000        -1.103492483090806E-020
  -17.9800000000000        -1.108793509230874E-020
  -17.7900000000000        -7.377078858821940E-021
  -17.6000000000000        -1.139504968042127E-021
  -17.4100000000000         5.670267522614537E-021
  -17.2200000000000         1.095454590781820E-020
  -17.0300000000000         1.308603761796624E-020
  -16.8400000000000         1.138290219977889E-020
  -16.6500000000000         6.307751168530261E-021
  -16.4600000000000        -6.670350060059381E-022
  -16.2700000000000        -7.488754531605972E-021
  -16.0800000000000        -1.212412054701783E-020
  -15.8900000000000        -1.315502875008780E-020
  -15.7000000000000        -1.019687205361052E-020
  -15.5100000000000        -4.017354129210812E-021
  -15.3200000000000         3.679072880623886E-021
  -15.1300000000000         1.073871909043400E-020
  -14.9400000000000         1.517682805521624E-020
  -14.7500000000000         1.574762392700971E-020
  -14.5600000000000         1.230183571161151E-020
  -14.3700000000000         5.828910236061163E-021
  -14.1800000000000        -1.828039902579849E-021
  -13.9900000000000        -8.502406755115456E-021
  -13.8000000000000        -1.232661008265296E-020
  -13.6100000000000        -1.226732421238305E-020
  -13.4200000000000        -8.418631383746803E-021
  -13.2300000000000        -1.968178172974784E-021
  -13.0400000000000         5.153707792961770E-021
  -12.8500000000000         1.083968748674993E-020
  -12.6600000000000         1.342109342627119E-020
  -12.4700000000000         1.215457150522159E-020
  -12.2800000000000         7.438599729669402E-021
  -12.0900000000000         6.975693433322120E-022
  -11.9000000000000        -6.032469951451225E-021
  -11.7100000000000        -1.069610150070340E-020
  -11.5200000000000        -1.181723984408264E-020
  -11.3300000000000        -8.930733206569567E-021
  -11.1400000000000        -2.721509071834900E-021
  -10.9500000000000         5.169572075555240E-021
  -10.7600000000000         1.261724866162125E-020
  -10.5700000000000         1.762400147095992E-020
  -10.3800000000000         1.889488683989173E-020
  -10.1900000000000         1.620797946749236E-020
  -10.0000000000000         1.047299810266050E-020
  -9.81000000000000         3.461553823729085E-021
  -9.62000000000000        -2.712089282498074E-021
  -9.42999999999999        -6.208565259749816E-021
  -9.23999999999999        -5.999760182778540E-021
  -9.05000000000000        -2.168052728714937E-021
  -8.86000000000000         4.118804106592602E-021
  -8.67000000000000         1.095026857964674E-020
  -8.48000000000000         1.623360651344578E-020
  -8.28999999999999         1.830904378782994E-020
  -8.09999999999999         1.643962310868852E-020
  -7.91000000000000         1.103225608113053E-020
  -7.72000000000000         3.525009534490215E-021
  -7.53000000000000        -4.026734834050961E-021
  -7.34000000000000        -9.544766822004151E-021
  -7.15000000000001        -1.153033547722143E-020
  -6.95999999999999        -9.499446241612365E-021
  -6.77000000000000        -4.124935783795327E-021
  -6.58000000000000         2.956100326875719E-021
  -6.39000000000000         9.614221000216762E-021
  -6.20000000000000         1.384261073730912E-020
  -6.01000000000001         1.433699181369486E-020
  -5.81999999999999         1.087206524002500E-020
  -5.63000000000000         4.364917125249177E-021
  -5.44000000000000        -3.393014693564435E-021
  -5.25000000000000        -1.025703153957177E-020
  -5.06000000000000        -1.435117012125867E-020
  -4.87000000000000        -1.460995437996912E-020
  -4.67999999999999        -1.108273334872253E-020
  -4.48999999999999        -4.912920339055310E-021
  -4.30000000000000         2.001062197496547E-021
  -4.11000000000000         7.564212195992517E-021
  -3.92000000000000         1.010049935400333E-020
  -3.73000000000000         8.846755360102538E-021
  -3.53999999999999         4.181100681913543E-021
  -3.34999999999999        -2.481242141351575E-021
  -3.16000000000000        -9.095418262580154E-021
  -2.97000000000000        -1.358000680082773E-020
  -2.78000000000000        -1.442372109378003E-020
  -2.59000000000000        -1.112961252916413E-020
  -2.40000000000001        -4.367781501539483E-021
  -2.20999999999999         4.207857054066969E-021
  -2.02000000000000         1.242598187906326E-020
  -1.83000000000000         1.821297723097478E-020
  -1.64000000000000         2.017953166201846E-020
  -1.45000000000000         1.800977885542914E-020
  -1.26000000000001         1.254092035269768E-020
  -1.06999999999999         5.510642903694593E-021
 -0.879999999999995        -9.540795825842840E-022
 -0.689999999999998        -4.958006811235680E-021
 -0.500000000000000        -5.387708387876728E-021
 -0.310000000000002        -2.230748234307411E-021
 -0.120000000000005         3.428382133602418E-021
  7.000000000000739E-002    9.733500571173971E-021
  0.260000000000005         1.460759713049640E-020
  0.450000000000003         1.636855113023950E-020
  0.640000000000001         1.423053212773318E-020
  0.829999999999998         8.545226327843824E-021
   1.02000000000000         7.122975092658004E-022
   1.21000000000001        -7.215814454218958E-021
   1.40000000000001        -1.312094801766866E-020
   1.59000000000000        -1.542823513162887E-020
   1.78000000000000        -1.356021775014949E-020
   1.97000000000000        -8.103797794087447E-021
   2.16000000000000        -6.412378371893501E-022
   2.34999999999999         6.705628502269608E-021
   2.54000000000001         1.188538534090244E-020
   2.73000000000000         1.350422725947095E-020
   2.92000000000000         1.122063417657736E-020
   3.11000000000000         5.834141935835171E-021
   3.30000000000000        -9.564516358773479E-022
   3.48999999999999        -7.054659743784456E-021
   3.68000000000001        -1.058199486059291E-020
   3.87000000000000        -1.042910521041480E-020
   4.06000000000000        -6.582125808006553E-021
   4.25000000000000        -1.289642489831132E-022
   4.44000000000000         7.056728875899144E-021
   4.63000000000000         1.286209981538060E-020
   4.82000000000001         1.555293351584925E-020
   5.01000000000001         1.428270657176165E-020
   5.20000000000000         9.344494961313086E-021
   5.39000000000000         2.092318396242318E-021
   5.58000000000000        -5.445409722239011E-021
   5.77000000000000        -1.114844357292250E-020
   5.96000000000001        -1.341472148825813E-020
   6.15000000000001        -1.162125794162097E-020
   6.34000000000000        -6.302263655039916E-021
   6.53000000000000         1.007402436464994E-021