  -105.000000000000         0.000000000000000E+000
  -104.810000000000         1.843729937858549E-010
  -104.620000000000         4.040975978067033E-010
  -104.430000000000         6.397447400923861E-010
  -104.240000000000         1.008468606847600E-009
  -104.050000000000         1.534922089932158E-009
  -103.860000000000         2.026375434409449E-009
  -103.670000000000         2.388636587214384E-009
  -103.480000000000         2.617409997790011E-009
  -103.290000000000         3.079682081171285E-009
  -103.100000000000         3.665363513877222E-009
  -102.910000000000         4.382624123349311E-009
  -102.720000000000         5.082358209272531E-009
  -102.530000000000         5.710501197599153E-009
  -102.340000000000         6.260748843476871E-009
  -102.150000000000         6.747639099157123E-009
  -101.960000000000         7.156974638448539E-009
  -101.770000000000         7.140171855915812E-009
  -101.580000000000         7.286081047383202E-009
  -101.390000000000         7.487042807650769E-009
  -101.200000000000         7.589879587322336E-009
  -101.010000000000         7.637906286999280E-009
  -100.820000000000         7.549574725161845E-009
  -100.630000000000         7.369272035599838E-009
  -100.440000000000         7.245095333162248E-009
  -100.250000000000         7.120662018524402E-009
  -100.060000000000         6.946480572306297E-009
  -99.8700000000000         6.772419225871695E-009
  -99.6800000000000         6.510398584413954E-009
  -99.4900000000000         5.961961256855936E-009
  -99.3000000000000         5.345281182616704E-009
  -99.1100000000000         4.730014691187880E-009
  -98.9200000000000         4.097822266633342E-009
  -98.7300000000000         3.567632402562096E-009
  -98.5400000000000         3.436944303414473E-009
  -98.3500000000000         2.702697094556171E-009
  -98.1600000000000         2.493881434626420E-009
  -97.9700000000000         2.353627524379816E-009
  -97.7800000000000         2.186442176307715E-009
  -97.5900000000000         2.065521874203680E-009
  -97.4000000000000         1.964754183326810E-009
  -97.2100000000000         1.900137657023132E-009
  -97.0200000000000         1.892022605805522E-009
  -96.8300000000000         2.018576666197453E-009
  -96.6400000000000         2.183396502475247E-009
  -96.4500000000000         2.392468870731760E-009
  -96.2600000000000         2.828761652906210E-009
  -96.0700000000000         3.182844213426071E-009
  -95.8800000000000         3.536875638107189E-009
  -95.6900000000000         3.897551521809773E-009
  -95.5000000000000         4.169812965741203E-009
  -95.3100000000000         4.483527247444749E-009
  -95.1200000000000         4.677005903336832E-009
  -94.9300000000000         4.925409799980260E-009
  -94.7400000000000         5.148789599423514E-009
  -94.5500000000000         5.416554433589251E-009
  -94.3600000000000         5.810367780128965E-009
  -94.1700000000000         6.393298166900211E-009
  -93.9800000000000         6.461670227590478E-009
  -93.7900000000000         6.771245240745449E-009
  -93.6000000000000         7.231288277304779E-009
  -93.4100000000000         7.501249642107251E-009
  -93.2200000000000         7.662061217582912E-009
  -93.0300000000000         7.706437157159381E-009
  -92.8400000000000         7.642325844614684E-009
  -92.6500000000000         7.415739940191487E-009
  -92.4600000000000         6.978337318530198E-009
  -92.2700000000000         6.345708827656876E-009
  -92.0800000000000         5.621753641879205E-009
  -91.8900000000000         4.896072390277388E-009
  -91.7000000000000         4.507529941712976E-009
  -91.5100000000000         4.111603440852222E-009
  -91.3200000000000         3.930366025822534E-009
  -91.1300000000000         3.597581126123107E-009
  -90.9400000000000         3.485263450761867E-009
  -90.7500000000000         3.624354481453304E-009
  -90.5600000000000         3.959767958352355E-009
  -90.3700000000000         4.422324351564301E-009
  -90.1800000000000         4.969616344109662E-009
  -89.9900000000000         5.599825338824927E-009
  -89.8000000000000         6.260873036462666E-009
  -89.6100000000000         6.524208307454225E-009
  -89.4200000000000         7.027582520055727E-009
  -89.2300000000000         7.590065235611531E-009
  -89.0400000000000         8.643171087035954E-009
  -88.8500000000000         8.711298218878290E-009
  -88.6600000000000         9.102556993812401E-009
  -88.4700000000000         9.518195117566711E-009
  -88.2800000000000         9.841374927290769E-009
  -88.0900000000000         1.019101445784551E-008
  -87.9000000000000         1.048387176247412E-008
  -87.7100000000000         1.065900060864492E-008
  -87.5200000000000         1.070633358843914E-008
  -87.3300000000000         1.073320019582829E-008
  -87.1400000000000         1.073176933408034E-008
  -86.9500000000000         1.060378732594881E-008
  -86.7600000000000         1.033228960129597E-008
  -86.5700000000000         1.002663628468247E-008
  -86.3800000000000         9.767750943040745E-009
  -86.1900000000000         9.582792323959692E-009
  -86.0000000000000         9.482106774025307E-009
  -85.8100000000000         9.544387908956348E-009
  -85.6200000000000         9.908364029738932E-009
  -85.4300000000000         1.060789959274796E-008
  -85.2400000000000         1.148936299226715E-008
  -85.0500000000000         1.276521808320724E-008
  -84.8600000000000         1.413036286383939E-008
  -84.6700000000000         1.542040400432668E-008
  -84.4800000000000         1.680638405862041E-008
  -84.2900000000000         1.834698758357164E-008
  -84.1000000000000         1.982490004512076E-008
  -83.9100000000000         2.120713212155311E-008
  -83.7200000000000         2.132693379740459E-008
  -83.5300000000000         2.388319840231188E-008
  -83.3400000000000         2.374278252263337E-008
  -83.1500000000000         2.399924535929311E-008
  -82.9600000000000         2.440660818616508E-008
  -82.7700000000000         2.464624355990849E-008
  -82.5800000000000         2.474258206797690E-008
  -82.3900000000000         2.473171756493500E-008
  -82.2000000000000         2.462021878490920E-008
  -82.0100000000000         2.442003025737154E-008
  -81.8200000000000         2.397684497434793E-008
  -81.6300000000000         2.326350644705139E-008
  -81.4400000000000         2.250247569723616E-008
  -81.2500000000000         2.188228093197092E-008
  -81.0600000000000         2.127322253535101E-008
  -80.8700000000000         2.040815075531432E-008
  -80.6800000000000         1.963420276822256E-008
  -80.4900000000000         1.906621031316736E-008
  -80.3000000000000         1.866699744837323E-008
  -80.1100000000000         1.836900551360830E-008
  -79.9200000000000         1.816065255963262E-008
  -79.7300000000000         1.810722346575646E-008
  -79.5400000000000         1.826945650885724E-008
  -79.3500000000000         1.881930894378343E-008
  -79.1600000000000         1.960296820961035E-008
  -78.9700000000000         2.035310507859779E-008
  -78.7800000000000         2.111492896406120E-008
  -78.5900000000000         2.196532114024926E-008
  -78.4000000000000         2.250225045814211E-008
  -78.2100000000000         2.291630618062674E-008
  -78.0200000000000         2.320717242179128E-008
  -77.8300000000000         2.335719121648833E-008
  -77.6400000000000         2.344967268474723E-008
  -77.4500000000000         2.351974970371281E-008
  -77.2600000000000         2.360585627483247E-008
  -77.0700000000000         2.371537198332454E-008
  -76.8800000000000         2.381296793438695E-008
  -76.6900000000000         2.399632670571680E-008
  -76.5000000000000         2.436969253025086E-008
  -76.3100000000000         2.516244380016648E-008
  -76.1200000000000         2.567397337947879E-008
  -75.9300000000000         2.636846729146654E-008
  -75.7400000000000         2.691726922686502E-008
  -75.5500000000000         2.743433391225594E-008
  -75.3600000000000         2.786301454917686E-008
  -75.1700000000000         2.823734772571181E-008
  -74.9800000000000         2.881940121048727E-008
  -74.7900000000000         2.969026691394437E-008
  -74.6000000000000         3.056202353993469E-008
  -74.4100000000000         3.136219403133765E-008
  -74.2200000000000         3.214708001865391E-008
  -74.0300000000000         3.293632909691654E-008
  -73.8400000000000         3.382078313381883E-008
  -73.6500000000000         3.475766132980185E-008
  -73.4600000000000         3.560294443193445E-008
  -73.2700000000000         3.647136162052364E-008
  -73.0800000000000         3.727650968392885E-008
  -72.8900000000000         3.821678510726629E-008
  -72.7000000000000         3.904134866818495E-008
  -72.5100000000000         3.992505759471987E-008
  -72.3200000000000         4.080654101654600E-008
  -72.1300000000000         4.163409773983061E-008
  -71.9400000000000         4.200825097500273E-008
  -71.7500000000000         4.409676186947816E-008
  -71.5600000000000         4.431924578285255E-008
  -71.3700000000000         4.471625262569500E-008
  -71.1800000000000         4.553246103223558E-008
  -70.9900000000000         4.585375706563350E-008
  -70.8000000000000         4.903914753967405E-008
  -70.6100000000000         4.917306428528598E-008
  -70.4200000000000         4.954058770869803E-008
  -70.2300000000000         5.356028487512622E-008
  -70.0400000000000         5.367251076339045E-008
  -69.8500000000000         5.421507978454484E-008
  -69.6600000000000         5.698335240223934E-008
  -69.4700000000000         5.739354123242947E-008
  -69.2800000000000         5.834009089347704E-008
  -69.0900000000000         5.912365352596069E-008
  -68.9000000000000         5.979433117771064E-008
  -68.7100000000000         6.034971097825369E-008
  -68.5200000000000         6.082818151716507E-008
  -68.3300000000000         6.125658862798928E-008
  -68.1400000000000         6.162578891675180E-008
  -67.9500000000000         6.191645449364041E-008
  -67.7600000000000         6.219929717481638E-008
  -67.5700000000000         6.265336685238812E-008
  -67.3800000000000         6.348684905857599E-008
  -67.1900000000000         6.466674449329919E-008
  -67.0000000000000         6.545641337602454E-008
  -66.8100000000000         6.740388784640919E-008
  -66.6200000000000         6.792348213806939E-008
  -66.4300000000000         6.890223408225519E-008
  -66.2400000000000         7.184658795029976E-008
  -66.0500000000000         7.230343188138400E-008
  -65.8600000000000         7.284869037892399E-008
  -65.6700000000000         7.395533578967726E-008
  -65.4800000000000         7.519061006970985E-008
  -65.2900000000000         7.653706720170430E-008
  -65.1000000000000         7.803625621066931E-008
  -64.9100000000000         7.958125646988546E-008
  -64.7200000000000         8.104201604579370E-008
  -64.5300000000000         8.267582132343235E-008
  -64.3400000000000         8.417819324428175E-008
  -64.1500000000000         8.555257386148963E-008
  -63.9600000000000         8.675644691475878E-008
  -63.7700000000000         8.787753901614635E-008
  -63.5800000000000         8.912328794086608E-008
  -63.3900000000000         9.034148272156277E-008
  -63.2000000000000         9.152826558567955E-008
  -63.0100000000000         9.255237536574142E-008
  -62.8200000000000         9.350448977011251E-008
  -62.6300000000000         9.434908457034881E-008
  -62.4400000000000         9.506052222917059E-008
  -62.2500000000000         9.566370013121487E-008
  -62.0600000000000         9.617298696029832E-008
  -61.8700000000000         9.660339120834075E-008
  -61.6800000000000         9.697878033173727E-008
  -61.4900000000000         9.732156872820359E-008
  -61.3000000000000         9.774327632078721E-008
  -61.1100000000000         9.831694457718669E-008
  -60.9200000000000         9.903900833598300E-008
  -60.7300000000000         1.000788394426739E-007
  -60.5400000000000         1.012133536134708E-007
  -60.3500000000000         1.023297085842469E-007
  -60.1600000000000         1.035868287175846E-007
  -59.9700000000000         1.048060235157383E-007
  -59.7800000000000         1.060603774867776E-007
  -59.5900000000000         1.075870937085076E-007
  -59.4000000000000         1.091792059505136E-007
  -59.2100000000000         1.109282418144157E-007
  -59.0200000000000         1.128629014581471E-007
  -58.8300000000000         1.147112735383929E-007
  -58.6400000000000         1.163906074563853E-007
  -58.4500000000000         1.184922147258329E-007
  -58.2600000000000         1.209495496267805E-007
  -58.0700000000000         1.231545401530335E-007
  -57.8800000000000         1.258757033134019E-007
  -57.6900000000000         1.282007046366741E-007
  -57.5000000000000         1.301849767821486E-007
  -57.3100000000000         1.312091899675884E-007
  -57.1200000000000         1.348811321237371E-007
  -56.9300000000000         1.357294494705994E-007
  -56.7400000000000         1.375129190308304E-007
  -56.5500000000000         1.397193076167444E-007
  -56.3600000000000         1.405724503856522E-007
  -56.1700000000000         1.423821739065493E-007
  -55.9800000000000         1.429835697844711E-007
  -55.7900000000000         1.443524359484875E-007
  -55.6000000000000         1.453037027272130E-007
  -55.4100000000000         1.464594918777213E-007
  -55.2200000000000         1.476242386183368E-007
  -55.0300000000000         1.487086403306384E-007
  -54.8400000000000         1.498598376648403E-007
  -54.6500000000000         1.510442630640036E-007
  -54.4600000000000         1.523523077524577E-007
  -54.2700000000000         1.537023779256451E-007
  -54.0800000000000         1.551550749370254E-007
  -53.8900000000000         1.566591941597212E-007
  -53.7000000000000         1.584098135939080E-007
  -53.5100000000000         1.604231033490363E-007
  -53.3200000000000         1.626572418120910E-007
  -53.1300000000000         1.654004275343404E-007
  -52.9400000000000         1.682729195448440E-007
  -52.7500000000000         1.711543663117499E-007
  -52.5600000000000         1.738602198480682E-007
  -52.3700000000000         1.772340015172580E-007
  -52.1800000000000         1.782846537760507E-007
  -51.9900000000000         1.860247225322653E-007
  -51.8000000000000         1.874741724302396E-007
  -51.6100000000000         1.892498923936217E-007
  -51.4200000000000         1.924878725705333E-007
  -51.2300000000000         1.961604165134809E-007
  -51.0400000000000         1.970469848999266E-007
  -50.8500000000000         1.999123603899903E-007
  -50.6600000000000         2.009896632600239E-007
  -50.4700000000000         2.062969808601117E-007
  -50.2800000000000         2.074437943702643E-007
  -50.0900000000000         2.091874428540874E-007
  -49.9000000000000         2.124748803327820E-007
  -49.7100000000000         2.135836361925192E-007
  -49.5200000000000         2.170481865707161E-007
  -49.3300000000000         2.181787741679795E-007
  -49.1400000000000         2.223078850579629E-007
  -48.9500000000000         2.235795691207120E-007
  -48.7600000000000         2.273698727110431E-007
  -48.5700000000000         2.305479908783230E-007
  -48.3800000000000         2.337422464724557E-007
  -48.1900000000000         2.370849745569835E-007
  -48.0000000000000         2.404829210598079E-007
  -47.8100000000000         2.441410362132399E-007
  -47.6200000000000         2.474659474943759E-007
  -47.4300000000000         2.508140073458191E-007
  -47.2400000000000         2.546231125606974E-007
  -47.0500000000000         2.577037537310228E-007
  -46.8600000000000         2.613135205152264E-007
  -46.6700000000000         2.648634010071697E-007
  -46.4800000000000         2.681215309034231E-007
  -46.2900000000000         2.712398757990227E-007
  -46.1000000000000         2.737876331498433E-007
  -45.9100000000000         2.768758179858408E-007
  -45.7200000000000         2.797732118653482E-007
  -45.5300000000000         2.826617008943795E-007
  -45.3400000000000         2.857743859120902E-007
  -45.1500000000000         2.886750225295343E-007
  -44.9600000000000         2.915584147484552E-007
  -44.7700000000000         2.939595035061682E-007
  -44.5800000000000         2.968039120564853E-007
  -44.3900000000000         2.991661075111947E-007
  -44.2000000000000         3.021735334856064E-007
  -44.0100000000000         3.047360431350826E-007
  -43.8200000000000         3.079602684435733E-007
  -43.6300000000000         3.105130310907861E-007
  -43.4400000000000         3.140586675255283E-007
  -43.2500000000000         3.163048100935872E-007
  -43.0600000000000         3.197874982366388E-007
  -42.8700000000000         3.225781161230363E-007
  -42.6800000000000         3.260781258266079E-007
  -42.4900000000000         3.284245443260337E-007
  -42.3000000000000         3.320893533729255E-007
  -42.1100000000000         3.342092666027255E-007
  -41.9200000000000         3.378646345256070E-007
  -41.7300000000000         3.403298567159532E-007
  -41.5400000000000         3.437816340675899E-007
  -41.3500000000000         3.456265642499885E-007
  -41.1600000000000         3.492011182530518E-007
  -40.9700000000000         3.506039173285775E-007
  -40.7800000000000         3.549763708777810E-007
  -40.5900000000000         3.565157175123855E-007
  -40.4000000000000         3.624175182048301E-007
  -40.2100000000000         3.640678575593549E-007
  -40.0200000000000         3.704020563397240E-007
  -39.8300000000000         3.719839411419892E-007
  -39.6400000000000         3.794911758216447E-007
  -39.4500000000000         3.811701419843707E-007
  -39.2600000000000         3.882433657950003E-007
  -39.0700000000000         3.906715303949859E-007
  -38.8800000000000         3.988345781981081E-007
  -38.6900000000000         4.013404014976696E-007
  -38.5000000000000         4.095174430187818E-007
  -38.3100000000000         4.118754495887380E-007
  -38.1200000000000         4.192550752371572E-007
  -37.9300000000000         4.214696982143795E-007
  -37.7400000000000         4.283362123178727E-007
  -37.5500000000000         4.304273914044887E-007
  -37.3600000000000         4.368346229119139E-007
  -37.1700000000000         4.388264246070869E-007
  -36.9800000000000         4.447853226456130E-007
  -36.7900000000000         4.467269039051379E-007
  -36.6000000000000         4.526417262361446E-007
  -36.4100000000000         4.543083994260135E-007
  -36.2200000000000         4.600054116755203E-007
  -36.0300000000000         4.615168435421952E-007
  -35.8400000000000         4.675892273990878E-007
  -35.6500000000000         4.691932801004564E-007
  -35.4600000000000         4.758073570747008E-007
  -35.2700000000000         4.775405595651105E-007
  -35.0800000000000         4.846876386917963E-007
  -34.8900000000000         4.864098811851373E-007
  -34.7000000000000         4.942378337361550E-007
  -34.5100000000000         4.959981246552413E-007
  -34.3200000000000         5.038880841326769E-007
  -34.1300000000000         5.060718352802669E-007
  -33.9400000000000         5.154287531953944E-007
  -33.7500000000000         5.179017292911170E-007
  -33.5600000000000         5.266967251503233E-007
  -33.3700000000000         5.288791622750197E-007
  -33.1800000000000         5.385945685664972E-007
  -32.9900000000000         5.404511985601551E-007
  -32.8000000000000         5.489618024449985E-007
  -32.6100000000000         5.508266914121649E-007
  -32.4200000000000         5.597863663632478E-007
  -32.2300000000000         5.618154896027363E-007
  -32.0400000000000         5.706019126976574E-007
  -31.8500000000000         5.726291726399570E-007
  -31.6600000000000         5.814777379194471E-007
  -31.4700000000000         5.834795863033859E-007
  -31.2800000000000         5.921599760376906E-007
  -31.0900000000000         5.943092494584413E-007
  -30.9000000000000         6.030347620379800E-007
  -30.7100000000000         6.053386588631145E-007
  -30.5200000000000         6.139883497919191E-007
  -30.3300000000000         6.162266981880437E-007
  -30.1400000000000         6.252167932833005E-007
  -29.9500000000000         6.273131916878929E-007
  -29.7600000000000         6.365017748450420E-007
  -29.5700000000000         6.385930670603760E-007
  -29.3800000000000         6.471522636140378E-007
  -29.1900000000000         6.495707951532422E-007
  -29.0000000000000         6.587263387846790E-007
  -28.8100000000000         6.617082093808839E-007
  -28.6200000000000         6.700040865372766E-007
  -28.4300000000000         6.735303487073433E-007
  -28.2400000000000         6.812745696306693E-007
  -28.0500000000000         6.845727311166162E-007
  -27.8600000000000         6.910042472341216E-007
  -27.6700000000000         6.963449406637228E-007
  -27.4800000000000         7.013797643231451E-007
  -27.2900000000000         7.064968558893949E-007
  -27.1000000000000         7.116502330418958E-007
  -26.9100000000000         7.164880007973166E-007
  -26.7200000000000         7.209494974835068E-007
  -26.5300000000000         7.258785330804257E-007
  -26.3400000000000         7.306412564972321E-007
  -26.1500000000000         7.358781141173970E-007
  -25.9600000000000         7.412088269625787E-007
  -25.7700000000000         7.468366102475026E-007
  -25.5800000000000         7.525808022104005E-007
  -25.3900000000000         7.580470379410068E-007
  -25.2000000000000         7.634016080302593E-007
  -25.0100000000000         7.694109400341433E-007
  -24.8200000000000         7.751416287730767E-007
  -24.6300000000000         7.813745099401498E-007
  -24.4400000000000         7.880763286591251E-007
  -24.2500000000000         7.943631380928216E-007
  -24.0600000000000         8.011271887298275E-007
  -23.8700000000000         8.073635109585056E-007
  -23.6800000000000         8.132694534101380E-007
  -23.4900000000000         8.196169492620823E-007
  -23.3000000000000         8.262256246904689E-007
  -23.1100000000000         8.326482929493235E-007
  -22.9200000000000         8.391598334734847E-007
  -22.7300000000000         8.459810048327254E-007
  -22.5400000000000         8.525918904139866E-007
  -22.3500000000000         8.592286229906645E-007
  -22.1600000000000         8.661969375783492E-007
  -21.9700000000000         8.730379369421580E-007
  -21.7800000000000         8.795380832198518E-007
  -21.5900000000000         8.865753677853906E-007
  -21.4000000000000         8.932756415221967E-007
  -21.2100000000000         8.994357032309196E-007
  -21.0200000000000         9.071704593260096E-007
  -20.8300000000000         9.106514529763627E-007
  -20.6400000000000         9.204903800959502E-007
  -20.4500000000000         9.228212163550027E-007
  -20.2600000000000         9.356353542709279E-007
  -20.0700000000000         9.375959991132380E-007
  -19.8800000000000         9.433678166530607E-007
  -19.6900000000000         9.527035920629761E-007
  -19.5000000000000         9.551763377909831E-007
  -19.3100000000000         9.685053545101322E-007
  -19.1200000000000         9.707308290619694E-007
  -18.9300000000000         9.792300622139536E-007
  -18.7400000000000         9.819314863942074E-007
  -18.5500000000000         9.953487149727561E-007
  -18.3600000000000         9.974491417165270E-007
  -18.1700000000000         1.005286771202808E-006
  -17.9800000000000         1.014296261754878E-006
  -17.7900000000000         1.017154744582386E-006
  -17.6000000000000         1.027620911647359E-006
  -17.4100000000000         1.029845698370195E-006
  -17.2200000000000         1.040794746116809E-006
  -17.0300000000000         1.043055430465331E-006
  -16.8400000000000         1.054068902542908E-006
  -16.6500000000000         1.056553561387951E-006
  -16.4600000000000         1.068941349567206E-006
  -16.2700000000000         1.071374469573731E-006
  -16.0800000000000         1.084257342595790E-006
  -15.8900000000000         1.086648962801639E-006
  -15.7000000000000         1.098879358269976E-006
  -15.5100000000000         1.101546041800236E-006
  -15.3200000000000         1.115424910041969E-006
  -15.1300000000000         1.117896418605313E-006
  -14.9400000000000         1.129019973407543E-006
  -14.7500000000000         1.131623785091639E-006
  -14.5600000000000         1.145743376559440E-006
  -14.3700000000000         1.148144516907081E-006
  -14.1800000000000         1.158353625182326E-006
  -13.9900000000000         1.161120888737554E-006
  -13.8000000000000         1.174027884320634E-006
  -13.6100000000000         1.176330178301915E-006
  -13.4200000000000         1.186551496737273E-006
  -13.2300000000000         1.188893357312349E-006
  -13.0400000000000         1.201797403273183E-006
  -12.8500000000000         1.204062488266292E-006
  -12.6600000000000         1.214534075811815E-006
  -12.4700000000000         1.217003300017107E-006
  -12.2800000000000         1.230188719534429E-006
  -12.0900000000000         1.232598089132117E-006
  -11.9000000000000         1.244822385597714E-006
  -11.7100000000000         1.247388118572208E-006
  -11.5200000000000         1.261637841893730E-006
  -11.3300000000000         1.264246768829538E-006
  -11.1400000000000         1.276326246215353E-006
  -10.9500000000000         1.279021516567257E-006
  -10.7600000000000         1.293807118767711E-006
  -10.5700000000000         1.296384767749615E-006
  -10.3800000000000         1.307023703322027E-006
  -10.1900000000000         1.309823973916944E-006
  -10.0000000000000         1.324810462297319E-006
  -9.81000000000000         1.327406756435403E-006
  -9.62000000000000         1.337421725677420E-006
  -9.42999999999999         1.340488421205154E-006
  -9.23999999999999         1.355058566701416E-006
  -9.05000000000000         1.357673485262617E-006
  -8.86000000000000         1.369546155954170E-006
  -8.67000000000000         1.372310257838658E-006
  -8.48000000000000         1.386630463714889E-006
  -8.28999999999999         1.389340780747314E-006
  -8.09999999999999         1.401284280107065E-006
  -7.91000000000000         1.404250661163487E-006
  -7.72000000000000         1.419150215267661E-006
  -7.53000000000000         1.421978304443024E-006
  -7.34000000000000         1.434504768500651E-006
  -7.15000000000001         1.437438502216826E-006
  -6.95999999999999         1.451518507399184E-006
  -6.77000000000000         1.454480983488836E-006
  -6.58000000000000         1.466467175024390E-006
  -6.39000000000000         1.469620237486824E-006
  -6.20000000000000         1.484977230057288E-006
  -6.01000000000001         1.487839102143273E-006
  -5.81999999999999         1.494429798528518E-006
  -5.63000000000000         1.508030211544619E-006
  -5.44000000000000         1.511108829581593E-006
  -5.25000000000000         1.522262937053104E-006
  -5.06000000000000         1.525440887131409E-006
  -4.87000000000000         1.541136426224042E-006
  -4.67999999999999         1.543974930806893E-006
  -4.48999999999999         1.547989980627889E-006
  -4.30000000000000         1.561140847593903E-006
  -4.11000000000000         1.564163872385997E-006
  -3.92000000000000         1.569576163776946E-006
  -3.73000000000000         1.586189166640537E-006
  -3.53999999999999         1.589166290630945E-006
  -3.34999999999999         1.593256067927511E-006
  -3.16000000000000         1.604464818342688E-006
  -2.97000000000000         1.607852508054497E-006
  -2.78000000000000         1.624364531007117E-006
  -2.59000000000000         1.627508070646034E-006
  -2.40000000000001         1.632755930191139E-006
  -2.20999999999999         1.649261510497541E-006
  -2.02000000000000         1.652481323215785E-006
  -1.83000000000000         1.657350179726250E-006
  -1.64000000000000         1.671102651250969E-006
  -1.45000000000000         1.674369290918429E-006
  -1.26000000000001         1.681181588066334E-006
  -1.06999999999999         1.697687835879556E-006
 -0.879999999999995         1.700926939289050E-006
 -0.689999999999998         1.705143531172510E-006
 -0.500000000000000         1.711225441638956E-006
 -0.310000000000002         1.724778212341605E-006
 -0.120000000000005         1.728095774289986E-006
  7.000000000000739E-002    1.733168105069262E-006
  0.260000000000005         1.742022578668665E-006
  0.450000000000003         1.745843326331232E-006
  0.640000000000001         1.765509508114916E-006
  0.829999999999998         1.768558952220300E-006
   1.02000000000000         1.772812269199447E-006
   1.21000000000001         1.778814180043636E-006
   1.40000000000001         1.784757789392100E-006
   1.59000000000000         1.790587407927828E-006
   1.78000000000000         1.796330752958544E-006
   1.97000000000000         1.802235877426931E-006
   2.16000000000000         1.807877415750169E-006
   2.34999999999999         1.832149418281264E-006
   2.54000000000001         1.835690661335469E-006
   2.73000000000000         1.840213049123907E-006
   2.92000000000000         1.845759892813111E-006
   3.11000000000000         1.851761989869596E-006
   3.30000000000000         1.857937495968309E-006
   3.48999999999999         1.864486234998468E-006
   3.68000000000001         1.871186811403125E-006
   3.87000000000000         1.878953395063351E-006
   4.06000000000000         1.885308578970589E-006
   4.25000000000000         1.893117173307933E-006
   4.44000000000000         1.899407116509443E-006
   4.63000000000000         1.907448318817463E-006
   4.82000000000001         1.913966978809589E-006
   5.01000000000001         1.922893977725766E-006
   5.20000000000000         1.929267684733542E-006
   5.39000000000000         1.937315653606814E-006
   5.58000000000000         1.944022759242378E-006
   5.77000000000000         1.950988903856232E-006
   5.96000000000001         1.958203964630794E-006
   6.15000000000001         1.965111437811226E-006
   6.34000000000000         1.972249092838589E-006
   6.53000000000000         1.979113050675081E-006