  -105.000000000000         0.000000000000000E+000
  -104.810000000000         1.838037248322443E-021
  -104.620000000000         5.068263501173522E-021
  -104.430000000000         8.948848352100614E-021
  -104.240000000000         1.264984974481426E-020
  -104.050000000000         1.548426227086826E-020
  -103.860000000000         1.709569842815845E-020
  -103.670000000000         1.754877355088745E-020
  -103.480000000000         1.729655864265057E-020
  -103.290000000000         1.703521163306087E-020
  -103.100000000000         1.748865781847777E-020
  -102.910000000000         1.918639507240297E-020
  -102.720000000000         2.229929449771990E-020
  -102.530000000000         2.658122221103596E-020
  -102.340000000000         3.143346872098511E-020
  -102.150000000000         3.607330700889784E-020
  -101.960000000000         3.975778542177959E-020
  -101.770000000000         4.199777693642552E-020
  -101.580000000000         4.270000151962044E-020
  -101.390000000000         4.219549787608682E-020
  -101.200000000000         4.114591301814662E-020
  -101.010000000000         4.035449145788391E-020
  -100.820000000000         4.053641140620878E-020
  -100.630000000000         4.211496774933122E-020
  -100.440000000000         4.510255166367235E-020
  -100.250000000000         4.910067417380094E-020
  -100.060000000000         5.341870408921190E-020
  -99.8700000000000         5.727663142235277E-020
  -99.6800000000000         6.003295333446561E-020
  -99.4900000000000         6.137163323469436E-020
  -99.3000000000000         6.139400060920338E-020
  -99.1100000000000         6.058899438365901E-020
  -98.9200000000000         5.969040531507122E-020
  -98.7300000000000         5.946259086232448E-020
  -98.5400000000000         6.047698375021559E-020
  -98.3500000000000         6.294445638728085E-020
  -98.1600000000000         6.665236969617252E-020
  -97.9700000000000         7.102464767265248E-020
  -97.7800000000000         7.528740420908610E-020
  -97.5900000000000         7.869197659383773E-020
  -97.4000000000000         8.073060248770553E-020
  -97.2100000000000         8.128217677576193E-020
  -97.0200000000000         8.064583490069552E-020
  -96.8300000000000         7.945263054114059E-020
  -96.6400000000000         7.848093019721253E-020
  -96.4500000000000         7.842913020212175E-020
  -96.2600000000000         7.971177756670147E-020
  -96.0700000000000         8.233845057784548E-020
  -95.8800000000000         8.591071414645202E-020
  -95.6900000000000         8.973808644028924E-020
  -95.5000000000000         9.303928558421709E-020
  -95.3100000000000         9.517021230396919E-020
  -95.1200000000000         9.581238645921337E-020
  -94.9300000000000         9.506707517636809E-020
  -94.7400000000000         9.342770794031867E-020
  -94.5500000000000         9.163842445563060E-020
  -94.3600000000000         9.047958792393719E-020
  -94.1700000000000         9.054232596042183E-020
  -93.9800000000000         9.205748062377416E-020
  -93.7900000000000         9.482871798747157E-020
  -93.6000000000000         9.828940078664633E-020
  -93.4100000000000         1.016668743858499E-019
  -93.2200000000000         1.042065531904453E-019
  -93.0300000000000         1.053908020428782E-019
  -92.8400000000000         1.050891777718666E-019
  -92.6500000000000         1.035966099819264E-019
  -92.4600000000000         1.015486377443695E-019
  -92.2700000000000         9.973838265010104E-020
  -92.0800000000000         9.888825842849604E-020
  -91.8900000000000         9.944238996642620E-020
  -91.7000000000000         1.014396637468940E-019
  -91.5100000000000         1.045040047311708E-019
  -91.3200000000000         1.079545503558102E-019
  -91.1300000000000         1.110036333679130E-019
  -90.9400000000000         1.129849808854723E-019
  -90.7500000000000         1.135457598918210E-019
  -90.5600000000000         1.127466565930653E-019
  -90.3700000000000         1.110409951918138E-019
  -90.1800000000000         1.091391286273144E-019
  -89.9900000000000         1.077976800056702E-019
  -89.8000000000000         1.075950005775653E-019
  -89.6100000000000         1.087581869986514E-019
  -89.4200000000000         1.110920890126823E-019
  -89.2300000000000         1.140312646076743E-019
  -89.0400000000000         1.168002732187100E-019
  -88.8500000000000         1.186362745901980E-019
  -88.6600000000000         1.190097285383161E-019
  -88.4700000000000         1.177794031598447E-019
  -88.2800000000000         1.152368451404567E-019
  -88.0900000000000         1.120274615614150E-019
  -87.9000000000000         1.089710724881430E-019
  -87.7100000000000         1.068337956083865E-019
  -87.5200000000000         1.061170076185447E-019
  -87.3300000000000         1.069239454885288E-019
  -87.1400000000000         1.089418565491097E-019
  -86.9500000000000         1.115440707668042E-019
  -86.7600000000000         1.139816265794054E-019
  -86.5700000000000         1.156081514074654E-019
  -86.3800000000000         1.160720992850202E-019
  -86.1900000000000         1.154200293322414E-019
  -86.0000000000000         1.140806636878311E-019
  -85.8100000000000         1.127344328651746E-019
  -85.6200000000000         1.121068484134580E-019
  -85.4300000000000         1.127464333030575E-019
  -85.2400000000000         1.148525200095433E-019
  -85.0500000000000         1.182037143616182E-019
  -84.8600000000000         1.222085416991734E-019
  -84.6700000000000         1.260643095415663E-019
  -84.4800000000000         1.289788117177273E-019
  -84.2900000000000         1.303911903839278E-019
  -84.1000000000000         1.301283163147163E-019
  -83.9100000000000         1.284514694404294E-019
  -83.7200000000000         1.259796720359806E-019
  -83.5300000000000         1.235116794338085E-019
  -83.3400000000000         1.217980155086022E-019
  -83.1500000000000         1.213289413535916E-019
  -82.9600000000000         1.221995817922133E-019
  -82.7700000000000         1.240909556598335E-019
  -82.5800000000000         1.263719468286076E-019
  -82.3900000000000         1.282921591078739E-019
  -82.2000000000000         1.292093021481653E-019
  -82.0100000000000         1.287848167955883E-019
  -81.8200000000000         1.270906803787188E-019
  -81.6300000000000         1.245960618349337E-019
  -81.4400000000000         1.220373344432723E-019
  -81.2500000000000         1.202088628201422E-019
  -81.0600000000000         1.197351227692796E-019
  -80.8700000000000         1.208903058499068E-019
  -80.6800000000000         1.235179028098340E-019
  -80.4900000000000         1.270737857878057E-019
  -80.3000000000000         1.307804695069575E-019
  -80.1100000000000         1.338479932364826E-019
  -79.9200000000000         1.356975957208622E-019
  -79.7300000000000         1.361235875635695E-019
  -79.5400000000000         1.353467209187464E-019
  -79.3500000000000         1.339437327712004E-019
  -79.1600000000000         1.326735736049697E-019
  -78.9700000000000         1.322508129671722E-019
  -78.7800000000000         1.331321474555872E-019
  -78.5900000000000         1.353782640626729E-019
  -78.4000000000000         1.386314865885086E-019
  -78.2100000000000         1.422159469880334E-019
  -78.0200000000000         1.453313225235893E-019
  -77.8300000000000         1.472839369382705E-019
  -77.6400000000000         1.476881918482335E-019
  -77.4500000000000         1.465799572049501E-019
  -77.2600000000000         1.444090866700757E-019
  -77.0700000000000         1.419131638145137E-019
  -76.8800000000000         1.399088269665042E-019
  -76.6900000000000         1.390607395203712E-019
  -76.5000000000000         1.396946828575209E-019
  -76.3100000000000         1.417084959965135E-019
  -76.1200000000000         1.446062971970290E-019
  -75.9300000000000         1.476457429937950E-019
  -75.7400000000000         1.500553706119575E-019
  -75.5500000000000         1.512588762400026E-019
  -75.3600000000000         1.510413919774614E-019
  -75.1700000000000         1.496099109604435E-019
  -74.9800000000000         1.475309077030846E-019
  -74.7900000000000         1.455638492826945E-019
  -74.6000000000000         1.444393484806761E-019
  -74.4100000000000         1.446465525268145E-019
  -74.2200000000000         1.462915093208264E-019
  -74.0300000000000         1.490675701490093E-019
  -73.8400000000000         1.523463252495438E-019
  -73.6500000000000         1.553625112164096E-019
  -73.4600000000000         1.574389408692810E-019
  -73.2700000000000         1.581857872307623E-019
  -73.0800000000000         1.576159688823629E-019
  -72.8900000000000         1.561427943413029E-019
  -72.7000000000000         1.544602883459373E-019
  -72.5100000000000         1.533407344741427E-019
  -72.3200000000000         1.534080270781988E-019
  -72.1300000000000         1.549525135238282E-019
  -71.9400000000000         1.578411222189070E-019
  -71.7500000000000         1.615491416978606E-019
  -71.5600000000000         1.653049129337605E-019
  -71.3700000000000         1.683060156686910E-019
  -71.1800000000000         1.699447312843886E-019
  -70.9900000000000         1.699777588133652E-019
  -70.8000000000000         1.685912733914834E-019
  -70.6100000000000         1.663428179733369E-019
  -70.4200000000000         1.639973214452547E-019
  -70.2300000000000         1.623052371527475E-019
  -70.0400000000000         1.617874316246719E-019
  -69.8500000000000         1.625892428300940E-019
  -69.6600000000000         1.644458147214001E-019
  -69.4700000000000         1.667683686194211E-019
  -69.2800000000000         1.688258959978179E-019
  -69.0900000000000         1.699689839924257E-019
  -68.9000000000000         1.698301262585687E-019
  -68.7100000000000         1.684415611080355E-019
  -68.5200000000000         1.662355809730557E-019
  -68.3300000000000         1.639264986871165E-019
  -68.1400000000000         1.623080608893496E-019
  -67.9500000000000         1.620249175168207E-019
  -67.7600000000000         1.633844948006600E-019
  -67.5700000000000         1.662640201632710E-019
  -67.3800000000000         1.701399425148896E-019
  -67.1900000000000         1.742316299811402E-019
  -67.0000000000000         1.777182574622328E-019
  -66.8100000000000         1.799666921028048E-019
  -66.6200000000000         1.807049836542909E-019
  -66.4300000000000         1.800917007547486E-019
  -66.2400000000000         1.786613750598804E-019
  -66.0500000000000         1.771621135724770E-019
  -65.8600000000000         1.763326700827489E-019
  -65.6700000000000         1.766838266193819E-019
  -65.4800000000000         1.783476513795296E-019
  -65.2900000000000         1.810384067547614E-019
  -65.1000000000000         1.841363626552618E-019
  -64.9100000000000         1.868700269831389E-019
  -64.7200000000000         1.885437238883096E-019
  -64.5300000000000         1.887442805355063E-019
  -64.3400000000000         1.874665983023201E-019
  -64.1500000000000         1.851213424916914E-019
  -63.9600000000000         1.824221356010049E-019
  -63.7700000000000         1.801846327579620E-019
  -63.5800000000000         1.790955366457872E-019
  -63.3900000000000         1.795184396325207E-019
  -63.2000000000000         1.813927078111565E-019
  -63.0100000000000         1.842545339816273E-019
  -62.8200000000000         1.873737391105447E-019
  -62.6300000000000         1.899663263840286E-019
  -62.4400000000000         1.914209714610805E-019
  -62.2500000000000         1.914738299327667E-019
  -62.0600000000000         1.902812364455571E-019
  -61.8700000000000         1.883695649293199E-019
  -61.6800000000000         1.864771189123344E-019
  -61.4900000000000         1.853341926879834E-019
  -61.3000000000000         1.854453884739116E-019
  -61.1100000000000         1.869376664583958E-019
  -60.9200000000000         1.895185428879613E-019
  -60.7300000000000         1.925568220867180E-019
  -60.5400000000000         1.952625839411905E-019
  -60.3500000000000         1.969142890442552E-019
  -60.1600000000000         1.970672446994340E-019
  -59.9700000000000         1.956832108668098E-019
  -59.7800000000000         1.931438860259548E-019
  -59.5900000000000         1.901446246746058E-019
  -59.4000000000000         1.874992451678157E-019
  -59.2100000000000         1.859122824585987E-019
  -59.0200000000000         1.857842515172051E-019
  -58.8300000000000         1.871057953100302E-019
  -58.6400000000000         1.894707762636883E-019
  -58.4500000000000         1.922038561647814E-019
  -58.2600000000000         1.945648828038720E-019
  -58.0700000000000         1.959701444798016E-019
  -57.8800000000000         1.961657884023081E-019
  -57.6900000000000         1.953028165293022E-019
  -57.5000000000000         1.938919047379192E-019
  -57.3100000000000         1.926513845207925E-019
  -57.1200000000000         1.922928670267582E-019
  -56.9300000000000         1.933071753560764E-019
  -56.7400000000000         1.958132517337504E-019
  -56.5500000000000         1.995145232782834E-019
  -56.3600000000000         2.037760654030668E-019
  -56.1700000000000         2.078007690771638E-019
  -55.9800000000000         2.108537898736090E-019
  -55.7900000000000         2.124703082499799E-019
  -55.6000000000000         2.125862970134383E-019
  -55.4100000000000         2.115542530504630E-019
  -55.2200000000000         2.100391952404697E-019
  -55.0300000000000         2.088249104430615E-019
  -54.8400000000000         2.085863652666363E-019
  -54.6500000000000         2.096939310501232E-019
  -54.4600000000000         2.121058610233289E-019
  -54.2700000000000         2.153800114147324E-019
  -54.0800000000000         2.188014132786633E-019
  -53.8900000000000         2.215888193325178E-019
  -53.7000000000000         2.231204113258975E-019
  -53.5100000000000         2.231131673292920E-019
  -53.3200000000000         2.217037375678867E-019
  -53.1300000000000         2.194072921403969E-019
  -52.9400000000000         2.169663771273992E-019
  -52.7500000000000         2.151339220478301E-019
  -52.5600000000000         2.144537497763988E-019
  -52.3700000000000         2.151026420453895E-019
  -52.1800000000000         2.168400660541025E-019
  -51.9900000000000         2.190803541647736E-019
  -51.8000000000000         2.210665438118825E-019
  -51.6100000000000         2.220954967788432E-019
  -51.4200000000000         2.217288628578257E-019
  -51.2300000000000         2.199283257031331E-019
  -51.0400000000000         2.170753379059866E-019
  -50.8500000000000         2.138689951939933E-019
  -50.6600000000000         2.111311319188785E-019
  -50.4700000000000         2.095747897104585E-019
  -50.2800000000000         2.096029658508375E-019
  -50.0900000000000         2.111958267700033E-019
  -49.9000000000000         2.139189452878597E-019
  -49.7100000000000         2.170500867087845E-019
  -49.5200000000000         2.197878094133616E-019
  -49.3300000000000         2.214815515173334E-019
  -49.1400000000000         2.218167243507639E-019
  -48.9500000000000         2.209013886449795E-019
  -48.7600000000000         2.192296091228905E-019
  -48.5700000000000         2.175323610285078E-019
  -48.3800000000000         2.165595336557841E-019
  -48.1900000000000         2.168566057671993E-019
  -48.0000000000000         2.186010748783058E-019
  -47.8100000000000         2.215462632407016E-019
  -47.6200000000000         2.250888369729484E-019
  -47.4300000000000         2.284404312589050E-019
  -47.2400000000000         2.308536308091874E-019
  -47.0500000000000         2.318368877327755E-019
  -46.8600000000000         2.312962023195819E-019
  -46.6700000000000         2.295625512530631E-019
  -46.4800000000000         2.272970397556864E-019
  -46.2900000000000         2.253011199732944E-019
  -46.1000000000000         2.242867592792117E-019
  -45.9100000000000         2.246731254780621E-019
  -45.7200000000000         2.264686882192386E-019
  -45.5300000000000         2.292727771438819E-019
  -45.3400000000000         2.323958371330850E-019
  -45.1500000000000         2.350630896187684E-019
  -44.9600000000000         2.366421576385139E-019
  -44.7700000000000         2.368284362843994E-019
  -44.5800000000000         2.357344460860686E-019
  -44.3900000000000         2.338573666425783E-019
  -44.2000000000000         2.319342708652955E-019
  -44.0100000000000         2.307270850876436E-019
  -43.8200000000000         2.307996494931861E-019
  -43.6300000000000         2.323515813500185E-019
  -43.4400000000000         2.351572355480784E-019
  -43.2500000000000         2.386276071885187E-019
  -43.0600000000000         2.419773455222483E-019
  -42.8700000000000         2.444485483849050E-019
  -42.6800000000000         2.455265919553017E-019
  -42.4900000000000         2.450856807673283E-019
  -42.3000000000000         2.434222920900493E-019
  -42.1100000000000         2.411672039178969E-019
  -41.9200000000000         2.391018868278061E-019
  -41.7300000000000         2.379325969715661E-019
  -41.5400000000000         2.380876313040722E-019
  -41.3500000000000         2.395964192282052E-019
  -41.1600000000000         2.420853558911651E-019
  -40.9700000000000         2.448913590971211E-019
  -40.7800000000000         2.472598746929265E-019
  -40.5900000000000         2.485694521228837E-019
  -40.4000000000000         2.485172729099678E-019
  -40.2100000000000         2.472114121655308E-019
  -40.0200000000000         2.451427967927559E-019
  -39.8300000000000         2.430448349484658E-019
  -39.6400000000000         2.416813396762385E-019
  -39.4500000000000         2.416242209200739E-019
  -39.2600000000000         2.430854894846416E-019
  -39.0700000000000         2.458525257366058E-019
  -38.8800000000000         2.493457640587864E-019
  -38.6900000000000         2.527824726096053E-019
  -38.5000000000000         2.553994216618049E-019
  -38.3100000000000         2.566699719211905E-019
  -38.1200000000000         2.564526206952173E-019
  -37.9300000000000         2.550279624926843E-019
  -37.7400000000000         2.530135304232597E-019
  -37.5500000000000         2.511815235281054E-019
  -37.3600000000000         2.502325730357502E-019
  -37.1700000000000         2.505912930237460E-019
  -36.9800000000000         2.522828514519966E-019
  -36.7900000000000         2.549261898863371E-019
  -36.6000000000000         2.578456901334474E-019
  -36.4100000000000         2.602687775226113E-019
  -36.2200000000000         2.615520305896502E-019
  -36.0300000000000         2.613700485712650E-019
  -35.8400000000000         2.598120875038775E-019
  -35.6500000000000         2.573582664418776E-019
  -35.4600000000000         2.547422070376489E-019
  -35.2700000000000         2.527400633239753E-019
  -35.0800000000000         2.519473315027943E-019
  -34.8900000000000         2.526083451258932E-019
  -34.7000000000000         2.545479824704203E-019
  -34.5100000000000         2.572253796940023E-019
  -34.3200000000000         2.598940182131208E-019
  -34.1300000000000         2.618216818973020E-019
  -33.9400000000000         2.625063579928094E-019
  -33.7500000000000         2.618252266376722E-019
  -33.5600000000000         2.600731921877920E-019
  -33.3700000000000         2.578794306823597E-019
  -33.1800000000000         2.560258970952724E-019
  -32.9900000000000         2.552203100931702E-019
  -32.8000000000000         2.558894402249099E-019
  -32.6100000000000         2.580526799388938E-019
  -32.4200000000000         2.613126146765418E-019
  -32.2300000000000         2.649654595217425E-019
  -32.0400000000000         2.681996079211462E-019
  -31.8500000000000         2.703251315599125E-019
  -31.6600000000000         2.709681490197633E-019
  -31.4700000000000         2.701740953291548E-019
  -31.2800000000000         2.683901985190454E-019
  -31.0900000000000         2.663323869775806E-019
  -30.9000000000000         2.647753412383376E-019
  -30.7100000000000         2.643267084623636E-019
  -30.5200000000000         2.652510520197082E-019
  -30.3300000000000         2.673945423840618E-019
  -30.1400000000000         2.702319848942401E-019
  -29.9500000000000         2.730221673076274E-019
  -29.7600000000000         2.750261039628653E-019
  -29.5700000000000         2.757246382835263E-019
  -29.3800000000000         2.749721813577024E-019
  -29.1900000000000         2.730419136014316E-019
  -29.0000000000000         2.705491780074427E-019
  -28.8100000000000         2.682750453635146E-019
  -28.6200000000000         2.669410242068242E-019
  -28.4300000000000         2.670002327162509E-019
  -28.2400000000000         2.685057964987002E-019
  -28.0500000000000         2.710949818248755E-019
  -27.8600000000000         2.740940100022079E-019
  -27.6700000000000         2.767133968931824E-019
  -27.4800000000000         2.782772917610097E-019
  -27.2900000000000         2.784203546347649E-019
  -27.1000000000000         2.771950761858301E-019
  -26.9100000000000         2.750583490663966E-019
  -26.7200000000000         2.727410271019906E-019
  -26.5300000000000         2.710380752280046E-019
  -26.3400000000000         2.705799455030726E-019
  -26.1500000000000         2.716513299155149E-019
  -25.9600000000000         2.741097757284974E-019
  -25.7700000000000         2.774276930511833E-019
  -25.5800000000000         2.808454230127483E-019
  -25.3900000000000         2.835907420973359E-019
  -25.2000000000000         2.851009185534030E-019
  -25.0100000000000         2.851828324683070E-019
  -24.8200000000000         2.840648408375590E-019
  -24.6300000000000         2.823256438739989E-019
  -24.4400000000000         2.807211665001754E-019
  -24.2500000000000         2.799600483906259E-019
  -24.0600000000000         2.804932170277503E-019
  -23.8700000000000         2.823789219377500E-019
  -23.6800000000000         2.852626895674131E-019
  -23.4900000000000         2.884782088029187E-019
  -23.3000000000000         2.912398722227818E-019
  -23.1100000000000         2.928709032127788E-019
  -22.9200000000000         2.930005886879741E-019
  -22.7300000000000         2.916731818793091E-019
  -22.5400000000000         2.893368505186830E-019
  -22.3500000000000         2.867159994423535E-019
  -22.1600000000000         2.846041461562227E-019
  -21.9700000000000         2.836374577387282E-019
  -21.7800000000000         2.841145231285357E-019
  -21.5900000000000         2.859144591990528E-019
  -21.4000000000000         2.885369517977697E-019
  -21.2100000000000         2.912524980994134E-019
  -21.0200000000000         2.933191105274109E-019
  -20.8300000000000         2.942023453325761E-019
  -20.6400000000000         2.937344360914034E-019
  -20.4500000000000         2.921659541148005E-019
  -20.2600000000000         2.900946978029895E-019
  -20.0700000000000         2.882922938517019E-019
  -19.8800000000000         2.874787962220166E-019
  -19.6900000000000         2.881107091724330E-019
  -19.5000000000000         2.902439957043978E-019
  -19.3100000000000         2.935119578760262E-019
  -19.1200000000000         2.972246981954808E-019
  -18.9300000000000         3.005617621541319E-019
  -18.7400000000000         3.028026221940039E-019
  -18.5500000000000         3.035286643686908E-019
  -18.3600000000000         3.027385081304874E-019
  -18.1700000000000         3.008435390671922E-019
  -17.9800000000000         2.985452366947424E-019
  -17.7900000000000         2.966301237321148E-019
  -17.6000000000000         2.957419467283900E-019
  -17.4100000000000         2.961971118442589E-019
  -17.2200000000000         2.978966483869836E-019
  -17.0300000000000         3.003598392892298E-019
  -16.8400000000000         3.028693426818108E-019
  -16.6500000000000         3.046853421251458E-019
  -16.4600000000000         3.052662881258524E-019
  -16.2700000000000         3.044318688228635E-019
  -16.0800000000000         3.024205614038420E-019
  -15.8900000000000         2.998247030149967E-019
  -15.7000000000000         2.974216504788086E-019
  -15.5100000000000         2.959498916346247E-019
  -15.3200000000000         2.958950559097085E-019
  -15.1300000000000         2.973479393292618E-019
  -14.9400000000000         2.999757691640734E-019
  -14.7500000000000         3.031151339902440E-019
  -14.5600000000000         3.059598662563371E-019
  -14.3700000000000         3.077898315606563E-019
  -14.1800000000000         3.081748521460403E-019
  -13.9900000000000         3.070951763976760E-019
  -13.8000000000000         3.049439375790965E-019
  -13.6100000000000         3.024110645662679E-019
  -13.4200000000000         3.002823543783909E-019
  -13.2300000000000         2.992119846404441E-019
  -13.0400000000000         2.995344466726605E-019
  -12.8500000000000         3.011703936017696E-019
  -12.6600000000000         3.036535279176255E-019
  -12.4700000000000         3.062704091037526E-019
  -12.2800000000000         3.082722650896097E-019
  -12.0900000000000         3.090970770010270E-019
  -11.9000000000000         3.085373414400760E-019
  -11.7100000000000         3.068047384194756E-019
  -11.5200000000000         3.044728228698087E-019
  -11.3300000000000         3.023141872787243E-019
  -11.1400000000000         3.010791442513122E-019
  -10.9500000000000         3.012800138314270E-019
  -10.7600000000000         3.030435816400233E-019
  -10.5700000000000         3.060745683228430E-019
  -10.3800000000000         3.097407021989881E-019
  -10.1900000000000         3.132546253220019E-019
  -10.0000000000000         3.158997343966352E-019
  -9.81000000000000         3.172343646010128E-019
  -9.62000000000000         3.172151248496522E-019
  -9.42999999999999         3.162037706736636E-019
  -9.23999999999999         3.148558700509473E-019
  -9.05000000000000         3.139238618042078E-019
  -8.86000000000000         3.140320100140356E-019
  -8.67000000000000         3.154890073647129E-019
  -8.48000000000000         3.181931120743013E-019
  -8.28999999999999         3.216577778398225E-019
  -8.09999999999999         3.251505487136768E-019
  -7.91000000000000         3.279048346211239E-019
  -7.72000000000000         3.293428060245062E-019
  -7.53000000000000         3.292443382442302E-019
  -7.34000000000000         3.278126467875669E-019
  -7.15000000000001         3.256173268518687E-019
  -6.95999999999999         3.234311193062227E-019
  -6.77000000000000         3.220075372800559E-019
  -6.58000000000000         3.218636437083805E-019
  -6.39000000000000         3.231308554042687E-019
  -6.20000000000000         3.255170476884629E-019
  -6.01000000000001         3.283910474844461E-019
  -5.81999999999999         3.309651045776668E-019
  -5.63000000000000         3.325224322756555E-019
  -5.44000000000000         3.326237730852616E-019
  -5.25000000000000         3.312330866921011E-019
  -5.06000000000000         3.287261011002243E-019
  -4.87000000000000         3.257796420460228E-019
  -4.67999999999999         3.231743184358360E-019
  -4.48999999999999         3.215682033735083E-019
  -4.30000000000000         3.213074087069951E-019
  -4.11000000000000         3.223286070085570E-019
  -3.92000000000000         3.241818093414722E-019
  -3.73000000000000         3.261667967630782E-019
  -3.53999999999999         3.275435763783111E-019
  -3.34999999999999         3.277556150222053E-019
  -3.16000000000000         3.266007043645975E-019
  -2.97000000000000         3.242993560824249E-019
  -2.78000000000000         3.214403017802830E-019
  -2.59000000000000         3.188183420667884E-019
  -2.40000000000001         3.172110490192006E-019
  -2.20999999999999         3.171585850962035E-019
  -2.02000000000000         3.188100346997460E-019
  -1.83000000000000         3.218804582102475E-019
  -1.64000000000000         3.257309660475164E-019
  -1.45000000000000         3.295486802418145E-019
  -1.26000000000001         3.325746820125796E-019
  -1.06999999999999         3.343142299758397E-019
 -0.879999999999995         3.346687263159836E-019
 -0.689999999999998         3.339516797344577E-019
 -0.500000000000000         3.327846837277140E-019
 -0.310000000000002         3.319043505470645E-019
 -0.120000000000005         3.319369993986773E-019
  7.000000000000739E-002    3.332071357578335E-019
  0.260000000000005         3.356357296157233E-019
  0.450000000000003         3.387580226674221E-019
  0.640000000000001         3.418557790452144E-019
  0.829999999999998         3.441656248759607E-019
   1.02000000000000         3.451029650497950E-019
   1.21000000000001         3.444362979294817E-019
   1.40000000000001         3.423609555571917E-019
   1.59000000000000         3.394503376827676E-019
   1.78000000000000         3.364982262071729E-019
   1.97000000000000         3.342974549377109E-019
   2.16000000000000         3.334187830454196E-019
   2.34999999999999         3.340537845595788E-019
   2.54000000000001         3.359669218762819E-019
   2.73000000000000         3.385702309891217E-019
   2.92000000000000         3.410985282348809E-019
   3.11000000000000         3.428340719762211E-019
   3.30000000000000         3.433155021704983E-019
   3.48999999999999         3.424706203545877E-019
   3.68000000000001         3.406347314678602E-019
   3.87000000000000         3.384494623075625E-019
   4.06000000000000         3.366716714879026E-019
   4.25000000000000         3.359482545005200E-019
   4.44000000000000         3.366226650732891E-019
   4.63000000000000         3.386298114733617E-019
   4.82000000000001         3.415102630031337E-019
   5.01000000000001         3.445399262093843E-019
   5.20000000000000         3.469376915004031E-019
   5.39000000000000         3.480908342946832E-019
   5.58000000000000         3.477327724909752E-019
   5.77000000000000         3.460215786002325E-019
   5.96000000000001         3.434963639332646E-019
   6.15000000000001         3.409239844346944E-019
   6.34000000000000         3.390802859154487E-019
   6.53000000000000         3.385291242457792E-019