  -105.000000000000        -4.588088670519788E-020
  -104.810000000000        -1.024015021092826E-019
  -104.620000000000        -8.652928022607445E-020
  -104.430000000000        -2.830194168134946E-020
  -104.240000000000         5.412207299288593E-021
  -104.050000000000        -2.482085788768954E-020
  -103.860000000000        -9.355860101004168E-020
  -103.670000000000        -1.354400242100510E-019
  -103.480000000000        -1.085213823150975E-019
  -103.290000000000        -3.534134552250491E-020
  -103.100000000000         1.767656802370948E-020
  -102.910000000000         2.948070924767212E-021
  -102.720000000000        -6.328503332235783E-020
  -102.530000000000        -1.166649277952715E-019
  -102.340000000000        -1.061104049049857E-019
  -102.150000000000        -4.231558855305465E-020
  -101.960000000000         1.282469399904776E-020
  -101.770000000000         5.658499715357989E-021
  -101.580000000000        -5.770516172550474E-020
  -101.390000000000        -1.170329522028923E-019
  -101.200000000000        -1.154227693128228E-019
  -101.010000000000        -5.368244889442387E-020
  -100.820000000000         1.039087990274287E-020
  -100.630000000000         1.718493911234241E-020
  -100.440000000000        -3.781519085658654E-020
  -100.250000000000        -9.974874740681612E-020
  -100.060000000000        -1.068474632764907E-019
  -99.8700000000000        -4.960191366951560E-020
  -99.6800000000000         1.987349756122396E-020
  -99.4900000000000         3.733753405273507E-020
  -99.3000000000000        -1.235411432638893E-020
  -99.1100000000000        -8.073221651574550E-020
  -98.9200000000000        -1.018016975867484E-019
  -98.7300000000000        -5.477789921482210E-020
  -98.5400000000000         1.631824486070847E-020
  -98.3500000000000         4.476290042366423E-020
  -98.1600000000000         4.679471537593767E-021
  -97.9700000000000        -6.454267665833365E-020
  -97.7800000000000        -9.613993548198795E-020
  -97.5900000000000        -5.989246324692089E-020
  -97.4000000000000         9.059787051577272E-021
  -97.2100000000000         4.407067173819721E-020
  -97.0200000000000         1.112076689125739E-020
  -96.8300000000000        -5.814148707037629E-020
  -96.6400000000000        -9.610696190326561E-020
  -96.4500000000000        -6.340488225146005E-020
  -96.2600000000000         1.354902236141280E-020
  -96.0700000000000         6.739651487374521E-020
  -95.8800000000000         5.338043311596344E-020
  -95.6900000000000        -8.971050025485693E-021
  -95.5000000000000        -5.567672965804747E-020
  -95.3100000000000        -4.048146146922980E-020
  -95.1200000000000         2.030725768443002E-020
  -94.9300000000000         6.338025046883721E-020
  -94.7400000000000         3.957906137726966E-020
  -94.5500000000000        -3.786085679500694E-020
  -94.3600000000000        -1.042866454507315E-019
  -94.1700000000000        -1.037239015185348E-019
  -93.9800000000000        -4.109971996392945E-020
  -93.7900000000000         2.305421340714673E-020
  -93.6000000000000         3.033583304756290E-020
  -93.4100000000000        -2.040702145830586E-020
  -93.2200000000000        -7.303681253006887E-020
  -93.0300000000000        -6.894855679843289E-020
  -92.8400000000000        -4.179560259364342E-021
  -92.6500000000000         6.582414451584011E-020
  -92.4600000000000         7.838590775621432E-020
  -92.2700000000000         2.298842324217857E-020
  -92.0800000000000        -4.876789708599017E-020
  -91.8900000000000        -7.217320100152785E-020
  -91.7000000000000        -3.064942110169738E-020
  -91.5100000000000         2.919009016055736E-020
  -91.3200000000000         4.293138854140221E-020
  -91.1300000000000        -9.279274552489249E-021
  -90.9400000000000        -8.302183835938630E-020
  -90.7500000000000        -1.113823712550979E-019
  -90.5600000000000        -6.840958442338521E-020
  -90.3700000000000         6.233134267574266E-021
  -90.1800000000000         4.491599230328581E-020
  -89.9900000000000         1.605630975425354E-020
  -89.8000000000000        -4.660739535481740E-020
  -89.6100000000000        -7.733466845071798E-020
  -89.4200000000000        -4.223020576021011E-020
  -89.2300000000000         2.763669611899194E-020
  -89.0400000000000         6.563881286431695E-020
  -88.8500000000000         3.348316792050806E-020
  -88.6600000000000        -4.149724529503006E-020
  -88.4700000000000        -9.148922980246838E-020
  -88.2800000000000        -7.209607848397494E-020
  -88.0900000000000        -4.214608637159372E-021
  -87.9000000000000         4.602146511477702E-020
  -87.7100000000000         3.011772745343800E-020
  -87.5200000000000        -3.699626338753213E-020
  -87.3300000000000        -9.174890865895343E-020
  -87.1400000000000        -8.290336522350299E-020
  -86.9500000000000        -2.039783306507748E-020
  -86.7600000000000         3.453967874416511E-020
  -86.5700000000000         2.846147837398115E-020
  -86.3800000000000        -3.260609465646368E-020
  -86.1900000000000        -8.844652365090135E-020
  -86.0000000000000        -8.208448986652981E-020
  -85.8100000000000        -1.459120177549927E-020
  -85.6200000000000         5.513121207280893E-020
  -85.4300000000000         6.552252232492819E-020
  -85.2400000000000         1.005880078234317E-020
  -85.0500000000000        -5.731282399120031E-020
  -84.8600000000000        -7.397653683039161E-020
  -84.6700000000000        -2.817813134794367E-020
  -84.4800000000000         3.051146363852920E-020
  -84.2900000000000         3.966507901026429E-020
  -84.1000000000000        -1.514135627375993E-020
  -83.9100000000000        -8.551820021298677E-020
  -83.7200000000000        -1.058624224910225E-019
  -83.5300000000000        -5.588983590102201E-020
  -83.3400000000000         1.964498994629185E-020
  -83.1500000000000         5.300549076145658E-020
  -82.9600000000000         1.738430470077969E-020
  -82.7700000000000        -4.815334575395690E-020
  -82.5800000000000        -7.646245823034784E-020
  -82.3900000000000        -3.680704048460562E-020
  -82.2000000000000         3.549434071086873E-020
  -82.0100000000000         7.254246690671465E-020
  -81.8200000000000         3.847780747260145E-020
  -81.6300000000000        -3.636000208529840E-020
  -81.4400000000000        -8.417948189298576E-020
  -81.2500000000000        -6.387190330125300E-020
  -81.0600000000000         6.002908830423606E-022
  -80.8700000000000         4.403479609862595E-020
  -80.6800000000000         2.309431671273606E-020
  -80.4900000000000        -4.178143148773297E-020
  -80.3000000000000        -8.584140395963912E-020
  -80.1100000000000        -6.230091407231693E-020
  -79.9200000000000         1.212041701303918E-020
  -79.7300000000000         7.199079864446937E-020
  -79.5400000000000         6.433648202228337E-020
  -79.3500000000000        -1.931936028772489E-021
  -79.1600000000000        -6.523759863360843E-020
  -78.9700000000000        -7.022181534146258E-020
  -78.7800000000000        -2.000654548845539E-020
  -78.5900000000000         2.801557507442589E-020
  -78.4000000000000         1.858804983275651E-020
  -78.2100000000000        -4.710047006229529E-020
  -78.0200000000000        -1.114605320415123E-019
  -77.8300000000000        -1.150522525582252E-019
  -77.6400000000000        -5.355001247130384E-020
  -77.4500000000000         1.744285839134315E-020
  -77.2600000000000         3.463700272546758E-020
  -77.0700000000000        -1.322395014114710E-020
  -76.8800000000000        -7.506575380135783E-020
  -76.6900000000000        -8.647461698483218E-020
  -76.5000000000000        -3.127073589169298E-020
  -76.3100000000000         4.303253886081841E-020
  -76.1200000000000         7.050701611301028E-020
  -75.9300000000000         2.951278244058383E-020
  -75.7400000000000        -3.698697067495548E-020
  -75.5500000000000        -6.279427970186126E-020
  -75.3600000000000        -2.197525445323021E-020
  -75.1700000000000         4.620020923970899E-020
  -74.9800000000000         7.479601751611379E-020
  -74.7900000000000         3.343924847212289E-020
  -74.6000000000000        -4.214170381738688E-020
  -74.4100000000000        -8.358636432495883E-020
  -74.2200000000000        -5.456337727341903E-020
  -74.0300000000000         1.493392558117570E-020
  -73.8400000000000         5.727503940813300E-020
  -73.6500000000000         3.151758479710955E-020
  -73.4600000000000        -3.788731447978145E-020
  -73.2700000000000        -8.483789253440956E-020
  -73.0800000000000        -6.501399660044006E-020
  -72.8900000000000         1.672204979396689E-021
  -72.7000000000000         5.018768319504941E-020
  -72.5100000000000         3.271307174625783E-020
  -72.3200000000000        -3.546015127023760E-020
  -72.1300000000000        -9.036686364122159E-020
  -71.9400000000000        -8.037901005241144E-020
  -71.7500000000000        -1.554837927511944E-020
  -71.5600000000000         4.188011641048952E-020
  -71.3700000000000         3.683576150093141E-020
  -71.1800000000000        -2.594248332422445E-020
  -70.9900000000000        -8.625304496645330E-020
  -70.8000000000000        -8.562065417646312E-020
  -70.6100000000000        -2.278880095432951E-020
  -70.4200000000000         4.527709184285113E-020
  -70.2300000000000         5.762757398766340E-020
  -70.0400000000000         6.991467578267834E-021
  -69.8500000000000        -5.405066501008127E-020
  -69.6600000000000        -6.409879891224513E-020
  -69.4700000000000        -1.227062039960353E-020
  -69.2800000000000         5.100217070321195E-020
  -69.0900000000000         6.214684345920559E-020
  -68.9000000000000         5.564924184613921E-021
  -68.7100000000000        -7.077982919344686E-020
  -68.5200000000000        -1.003030788906653E-019
  -68.3300000000000        -6.049836368509679E-020
  -68.1400000000000         6.324597145566752E-021
  -67.9500000000000         3.398077551789923E-020
  -67.7600000000000        -4.092354238106570E-021
  -67.5700000000000        -6.947616098796973E-020
  -67.3800000000000        -9.581455151235504E-020
  -67.1900000000000        -5.278437147158037E-020
  -67.0000000000000         2.430504809659218E-020
  -66.8100000000000         6.768602292920073E-020
  -66.6200000000000         4.141743022803413E-020
  -66.4300000000000        -2.462663164311049E-020
  -66.2400000000000        -6.355960327074430E-020
  -66.0500000000000        -3.564826027920535E-020
  -65.8600000000000         3.340401108600338E-020
  -65.6700000000000         7.671296324233074E-020
  -65.4800000000000         4.999791069575335E-020
  -65.2900000000000        -2.591151064904664E-020
  -65.1000000000000        -8.439562880318003E-020
  -64.9100000000000        -7.579499735825861E-020
  -64.7200000000000        -1.388037526330074E-020
  -64.5300000000000         3.805094475442689E-020
  -64.3400000000000         2.803153892762515E-020
  -64.1500000000000        -3.484794596796569E-020
  -63.9600000000000        -8.926924274904506E-020
  -63.7700000000000        -8.062214235433187E-020
  -63.5800000000000        -1.369762671527703E-020
  -63.3900000000000         5.129978656618143E-020
  -63.2000000000000         5.569921626212873E-020
  -63.0100000000000        -2.053756863298174E-021
  -62.8200000000000        -6.517852793232825E-020
  -62.6300000000000        -7.281869530252548E-020
  -62.4400000000000        -1.800199206642179E-020
  -62.2500000000000         4.597737219838879E-020
  -62.0600000000000         5.678955136246944E-020
  -61.8700000000000         2.890357822680883E-021
  -61.6800000000000        -6.531300807368376E-020
  -61.4900000000000        -8.361766462834978E-020
  -61.3000000000000        -3.538922845828771E-020
  -61.1100000000000         3.255912458611714E-020
  -60.9200000000000         5.472460536760122E-020
  -60.7300000000000         9.544472152365932E-021
  -60.5400000000000        -5.991388531372515E-020
  -60.3500000000000        -8.701748049211131E-020
  -60.1600000000000        -4.526444245407800E-020
  -59.9700000000000         2.619790900428611E-020
  -59.7800000000000         5.967313487626962E-020
  -59.5900000000000         2.329601990094679E-020
  -59.4000000000000        -4.868289025389174E-020
  -59.2100000000000        -8.852790631930619E-020
  -59.0200000000000        -5.941250597912989E-020
  -58.8300000000000         9.771141668839480E-021
  -58.6400000000000         5.229786311078342E-020
  -58.4500000000000         2.753802858913562E-020
  -58.2600000000000        -4.012685959530490E-020
  -58.0700000000000        -8.461513002247633E-020
  -57.8800000000000        -6.142698616224986E-020
  -57.6900000000000         9.607098778994103E-021
  -57.5000000000000         6.298514014598042E-020
  -57.3100000000000         4.977931694625343E-020
  -57.1200000000000        -1.593992212889692E-020
  -56.9300000000000        -7.075216740564552E-020
  -56.7400000000000        -6.251949880506454E-020
  -56.5500000000000        -8.080602925858064E-023
  -56.3600000000000         5.545951632273382E-020
  -56.1700000000000         4.946485777106586E-020
  -55.9800000000000        -1.373806348017381E-020
  -55.7900000000000        -7.487261579624412E-020
  -55.6000000000000        -7.639048107335661E-020
  -55.4100000000000        -1.759983241079878E-020
  -55.2200000000000         4.447687560376367E-020
  -55.0300000000000         4.943565588806039E-020
  -54.8400000000000        -8.742965280771610E-021
  -54.6500000000000        -7.563501081239070E-020
  -54.4600000000000        -8.793810637587339E-020
  -54.2700000000000        -3.357667090535264E-020
  -54.0800000000000         3.696082752038559E-020
  -53.8900000000000         5.883496718264780E-020
  -53.7000000000000         1.457825454341722E-020
  -53.5100000000000        -4.954681123363572E-020
  -53.3200000000000        -6.812031992651276E-020
  -53.1300000000000        -1.953704719149129E-020
  -52.9400000000000         5.273407769385863E-020
  -52.7500000000000         8.101724813409208E-020
  -52.5600000000000         3.757785118203872E-020
  -52.3700000000000        -3.908763850716153E-020
  -52.1800000000000        -8.085847730941750E-020
  -51.9900000000000        -5.449407978620563E-020
  -51.8000000000000         7.491736019032209E-021
  -51.6100000000000         3.885723369123875E-020
  -51.4200000000000         3.758937854597928E-021
  -51.2300000000000        -6.837547054209940E-020
  -51.0400000000000        -1.105840977902496E-019
  -50.8500000000000        -8.225153212571656E-020
  -50.6600000000000        -8.081972745047228E-021
  -50.4700000000000         4.512546788840610E-020
  -50.2800000000000         3.173127184373535E-020
  -50.0900000000000        -2.986027638187723E-020
  -49.9000000000000        -7.552579031591514E-020
  -49.7100000000000        -5.728455894915302E-020
  -49.5200000000000         1.048385817693010E-020
  -49.3300000000000         6.465387748286378E-020
  -49.1400000000000         5.384954478403017E-020
  -48.9500000000000        -1.197934472829029E-020
  -48.7600000000000        -7.042444000667179E-020
  -48.5700000000000        -6.568624929698974E-020
  -48.3800000000000        -1.575452866533625E-021
  -48.1900000000000         6.210508317549335E-020
  -48.0000000000000         6.634802674637660E-020
  -47.8100000000000         8.785437679900572E-021
  -47.6200000000000        -5.456192407962519E-020
  -47.4300000000000        -6.319660038279722E-020
  -47.2400000000000        -1.020825227975439E-020
  -47.0500000000000         5.101930949903435E-020
  -46.8600000000000         5.794945688327123E-020
  -46.6700000000000        -9.501522721906443E-022
  -46.4800000000000        -7.455072690052189E-020
  -46.2900000000000        -9.710416787564035E-020
  -46.1000000000000        -5.021320233336446E-020
  -45.9100000000000         2.023885188636056E-020
  -45.7200000000000         4.815612129273889E-020
  -45.5300000000000         1.014171289024067E-020
  -45.3400000000000        -5.277028501868721E-020
  -45.1500000000000        -7.518950979676719E-020
  -44.9600000000000        -3.076598273915926E-020
  -44.7700000000000         4.189146087932391E-020
  -44.5800000000000         7.567737948403298E-020
  -44.3900000000000         3.900977545831211E-020
  -44.2000000000000        -3.378097202995179E-020
  -44.0100000000000        -7.478093705148331E-020
  -43.8200000000000        -4.680987422093900E-020
  -43.6300000000000         2.151816189817393E-020
  -43.4400000000000         6.339391886924215E-020
  -43.2500000000000         3.772384274693752E-020
  -43.0600000000000        -3.169076793828640E-020
  -42.8700000000000        -7.913356866083944E-020
  -42.6800000000000        -6.009533687060735E-020
  -42.4900000000000         5.865854757196973E-021
  -42.3000000000000         5.356383305603450E-020
  -42.1100000000000         3.442537088306219E-020
  -41.9200000000000        -3.680166218343263E-020
  -41.7300000000000        -9.551047857524836E-020
  -41.5400000000000        -8.821935439162129E-020
  -41.3500000000000        -2.307076411999290E-020
  -41.1600000000000         3.824174410433411E-020
  -40.9700000000000         3.933666584189978E-020
  -40.7800000000000        -1.741902204235635E-020
  -40.5900000000000        -7.379642095270556E-020
  -40.4000000000000        -7.194482593156396E-020
  -40.2100000000000        -1.014919378517844E-020
  -40.0200000000000         5.515962567981995E-020
  -39.8300000000000         6.306794205850130E-020
  -39.6400000000000         6.277709009184519E-021
  -39.4500000000000        -6.187360073568873E-020
  -39.2600000000000        -7.819580515224326E-020
  -39.0700000000000        -2.969645513365389E-020
  -38.8800000000000         3.445599855720018E-020
  -38.6900000000000         5.039008151184445E-020
  -38.5000000000000         9.898297429492157E-022
  -38.3100000000000        -6.737558418172258E-020
  -38.1200000000000        -8.887818121085788E-020
  -37.9300000000000        -4.105931937263689E-020
  -37.7400000000000         3.351827890250934E-020
  -37.5500000000000         6.755078752543999E-020
  -37.3600000000000         3.280983410987614E-020
  -37.1700000000000        -3.342048504809136E-020
  -36.9800000000000        -6.446675854694897E-020
  -36.7900000000000        -2.834376456080363E-020
  -36.6000000000000         4.148291352992913E-020
  -36.4100000000000         7.808217668522938E-020
  -36.2200000000000         4.531316033828124E-020
  -36.0300000000000        -2.702998723803149E-020
  -35.8400000000000        -7.094407513203143E-020
  -35.6500000000000        -4.460611212391465E-020
  -35.4600000000000         2.787886928447635E-020
  -35.2700000000000         7.924572325633716E-020
  -35.0800000000000         6.262219008368349E-020
  -34.8900000000000        -4.639631193048177E-021
  -34.7000000000000        -5.837628635918789E-020
  -34.5100000000000        -4.935549954047112E-020
  -34.3200000000000         9.717276870892145E-021
  -34.1300000000000         5.678727627756941E-020
  -33.9400000000000         4.049418742587412E-020
  -33.7500000000000        -2.988933970946486E-020
  -33.5600000000000        -9.255991905245971E-020
  -33.3700000000000        -9.172447961248064E-020
  -33.1800000000000        -3.070302488698560E-020
  -32.9900000000000         3.111874482963093E-020
  -32.8000000000000         3.463999099806010E-020
  -32.6100000000000        -2.293667120740778E-020
  -32.4200000000000        -8.573210998768278E-020
  -32.2300000000000        -9.267083459551184E-020
  -32.0400000000000        -3.576393481658343E-020
  -31.8500000000000         3.243555184428750E-020
  -31.6600000000000         4.923537876244010E-020
  -31.4700000000000         1.758204940731100E-021
  -31.2800000000000        -6.093988796975625E-020
  -31.0900000000000        -7.516063251968827E-020
  -30.9000000000000        -2.401990653781216E-020
  -30.7100000000000         4.576452011151781E-020
  -30.5200000000000         6.802177031987419E-020
  -30.3300000000000         2.028373293505298E-020
  -30.1400000000000        -5.431420168433498E-020
  -29.9500000000000        -8.744792012865688E-020
  -29.7600000000000        -4.995770016908348E-020
  -29.5700000000000         2.107368486705473E-020
  -29.3800000000000         5.812701270714639E-020
  -29.1900000000000         2.762277296740824E-020
  -29.0000000000000        -3.849111021050201E-020
  -28.8100000000000        -7.385896060376500E-020
  -28.6200000000000        -4.162498720490912E-020
  -28.4300000000000         3.003251607936370E-020
  -28.2400000000000         7.474963077057677E-020
  -28.0500000000000         5.151979915931688E-020
  -27.8600000000000        -1.592001434180479E-020
  -27.6700000000000        -6.162732924839380E-020
  -27.4800000000000        -4.046448082868518E-020
  -27.2900000000000         2.855172950241948E-020
  -27.1000000000000         7.996876073421417E-020
  -26.9100000000000         6.390901649530760E-020
  -26.7200000000000        -6.629227328794931E-021
  -26.5300000000000        -6.822321612118012E-020
  -26.3400000000000        -6.731652348245170E-020
  -26.1500000000000        -1.077971978292413E-020
  -25.9600000000000         4.147125828652013E-020
  -25.7700000000000         3.454457836280012E-020
  -25.5800000000000        -2.837119619029957E-020
  -25.3900000000000        -8.878056320744826E-020
  -25.2000000000000        -8.888182711301679E-020
  -25.0100000000000        -2.727472013824795E-020
  -24.8200000000000         3.901494486179023E-020
  -24.6300000000000         4.843380145017751E-020
  -24.4400000000000        -6.521591696136170E-021
  -24.2500000000000        -7.195962806007283E-020
  -24.0600000000000        -8.360594156042993E-020
  -23.8700000000000        -2.765691791159269E-020
  -23.6800000000000         4.635537102858500E-020
  -23.4900000000000         7.273397392635694E-020
  -23.3000000000000         3.176968646281412E-020
  -23.1100000000000        -3.227197771823225E-020
  -22.9200000000000        -5.426188008857025E-020
  -22.7300000000000        -1.103863310814604E-020
  -22.5400000000000         5.622121056880328E-020
  -22.3500000000000         8.153063252384681E-020
  -22.1600000000000         3.766828711556328E-020
  -21.9700000000000        -3.710170440562228E-020
  -21.7800000000000        -7.486781809044621E-020
  -21.5900000000000        -4.244166648621282E-020
  -21.4000000000000         2.702370728893178E-020
  -21.2100000000000         6.533905665709258E-020
  -21.0200000000000         3.380333098631762E-020
  -20.8300000000000        -4.040885450809467E-020
  -20.6400000000000        -9.052009526899775E-020
  -20.4500000000000        -7.380076057628829E-020
  -20.2600000000000        -1.172117156187700E-020
  -20.0700000000000         3.160027328845152E-020
  -19.8800000000000         1.174576469735248E-020
  -19.6900000000000        -5.272465026202727E-020
  -19.5000000000000        -9.763422824651789E-020
  -19.3100000000000        -7.475269778889871E-020
  -19.1200000000000         1.261953510003311E-021
  -18.9300000000000         6.562484526373780E-020
  -18.7400000000000         6.403699383688603E-020
  -18.5500000000000         3.522994508576138E-021
  -18.3600000000000        -5.487757831946589E-020
  -18.1700000000000        -5.447956618925828E-020
  -17.9800000000000         3.299639035552317E-021
  -17.7900000000000         6.091586179330670E-020
  -17.6000000000000         6.028978946651180E-020
  -17.4100000000000        -1.190676247333409E-021
  -17.2200000000000        -6.781155513548840E-020
  -17.0300000000000        -7.858851860560585E-020
  -16.8400000000000        -2.549757918045269E-020
  -16.6500000000000         3.888006758705693E-020
  -16.4600000000000         5.168967761254392E-020
  -16.2700000000000         4.183500586980605E-023
  -16.0800000000000        -6.641247010678803E-020
  -15.8900000000000        -8.269141302078618E-020
  -15.7000000000000        -3.058030294948419E-020
  -15.5100000000000         4.357646925010875E-020
  -15.3200000000000         7.248288820999122E-020
  -15.1300000000000         3.147076558770568E-020
  -14.9400000000000        -3.847948812345681E-020
  -14.7500000000000        -7.010851977464871E-020
  -14.5600000000000        -3.392880597284017E-020
  -14.3700000000000         3.417195581422768E-020
  -14.1800000000000         6.792948046620443E-020
  -13.9900000000000         3.465333524705048E-020
  -13.8000000000000        -3.310862605374869E-020
  -13.6100000000000        -6.857841280897847E-020
  -13.4200000000000        -3.490952786759249E-020
  -13.2300000000000         3.884413348782193E-020
  -13.0400000000000         8.451764243870871E-020
  -12.8500000000000         5.903842266890696E-020
  -12.6600000000000        -1.502700402573005E-020
  -12.4700000000000        -7.106186414863024E-020
  -12.2800000000000        -6.141410001097591E-020
  -12.0900000000000        -1.838598439503302E-021
  -11.9000000000000         4.474237265346640E-020
  -11.7100000000000         2.935137992413628E-020
  -11.5200000000000        -3.565491552666250E-020
  -11.3300000000000        -8.833192036820012E-020
  -11.1400000000000        -7.678331855544341E-020
  -10.9500000000000        -9.506339555516944E-021
  -10.7600000000000         5.190759376553719E-020
  -10.5700000000000         5.095534620526603E-020
  -10.3800000000000        -1.011949337656283E-020
  -10.1900000000000        -7.237430445972318E-020
  -10.0000000000000        -7.608285997253157E-020
  -9.81000000000000        -1.733374481524280E-020
  -9.62000000000000         4.859735601733796E-020
  -9.42999999999999         6.025566771922068E-020
  -9.23999999999999         8.693788419724667E-021
  -9.05000000000000        -5.425127856810374E-020
  -8.86000000000000        -6.591098912057680E-020
  -8.67000000000000        -1.312642502117496E-020
  -8.48000000000000         5.473276436862572E-020
  -8.28999999999999         7.258195178677394E-020
  -8.09999999999999         2.166999844094026E-020
  -7.91000000000000        -5.235324308159759E-020
  -7.72000000000000        -8.268573459388398E-020
  -7.53000000000000        -4.473254122980848E-020
  -7.34000000000000         2.088157687444573E-020
  -7.15000000000001         4.756160362502522E-020
  -6.95999999999999         6.713460618387580E-021
  -6.77000000000000        -6.462296659508340E-020
  -6.58000000000000        -9.880855226162893E-020
  -6.39000000000000        -6.190846604990768E-020
  -6.20000000000000         1.400100386335608E-020
  -6.01000000000001         6.129603327423319E-020
  -5.81999999999999         4.093905844858797E-020
  -5.63000000000000        -2.097071364499964E-020
  -5.44000000000000        -5.907887665308851E-020
  -5.25000000000000        -3.217618093392896E-020
  -5.06000000000000         3.667348591889035E-020
  -4.87000000000000         8.177440053084607E-020
  -4.67999999999999         5.765976625249631E-020
  -4.48999999999999        -1.681316398741106E-020
  -4.30000000000000        -7.538294477598812E-020
  -4.11000000000000        -6.647551091588141E-020
  -3.92000000000000        -1.472488774948736E-021
  -3.73000000000000         5.675621338640667E-020
  -3.53999999999999         5.399156505346710E-020
  -3.34999999999999        -3.979019546388537E-021
  -3.16000000000000        -5.768261684702081E-020
  -2.97000000000000        -5.166851594109985E-020
  -2.78000000000000         1.170111667573954E-020
  -2.59000000000000         7.387962379047441E-020
  -2.40000000000001         7.577896515006842E-020
  -2.20999999999999         1.438748589480281E-020
  -2.02000000000000        -5.377420254024643E-020
  -1.83000000000000        -6.584294244076320E-020
  -1.64000000000000        -1.186110001561061E-020
  -1.45000000000000         5.625177596328156E-020
  -1.26000000000001         7.433108318704884E-020
  -1.06999999999999         2.675060055203175E-020
 -0.879999999999995        -3.949707022248903E-020
 -0.689999999999998        -6.058893015531408E-020
 -0.500000000000000        -1.755830254601205E-020
 -0.310000000000002         4.524450745228980E-020
 -0.120000000000005         6.267505981104726E-020
  7.000000000000739E-002    1.161539872409190E-020
  0.260000000000005        -6.612260959688575E-020
  0.450000000000003        -1.028663498581091E-019
  0.640000000000001        -6.891950574937020E-020
  0.829999999999998        -3.049817902327358E-022
   1.02000000000000         3.601611323809029E-020
   1.21000000000001         6.255824173151278E-021
   1.40000000000001        -5.797467883944530E-020
   1.59000000000000        -9.017207611033757E-020
   1.78000000000000        -5.307306850941772E-020
   1.97000000000000         2.496030830984338E-020
   2.16000000000000         7.622784373159635E-020
   2.34999999999999         5.766833594467053E-020
   2.54000000000001        -8.475304911356546E-021
   2.73000000000000        -5.607604570740908E-020
   2.92000000000000        -3.823358090277889E-020
   3.11000000000000         2.805948884390651E-020
   3.30000000000000         7.831537587950607E-020
   3.48999999999999         6.242074891300430E-020
   3.68000000000001        -7.085697048325260E-021
   3.87000000000000        -6.649509786487633E-020
   4.06000000000000        -6.128570800263063E-020
   4.25000000000000         2.159277066398761E-021
   4.44000000000000         6.267814207323245E-020
   4.63000000000000         6.237157716738255E-020
   4.82000000000001         1.292752071622110E-021
   5.01000000000001        -6.316308011292625E-020
   5.20000000000000        -7.138275387035369E-020
   5.39000000000000        -1.842185792479093E-020
   5.58000000000000         4.169752599427013E-020
   5.77000000000000         4.825561163627076E-020
   5.96000000000001        -7.489354189365868E-021
   6.15000000000001        -7.343598690092443E-020
   6.34000000000000        -8.611439166503610E-020
   6.53000000000000        -3.129256444906894E-020