  -105.000000000000         7.163148732177112E-019
  -104.810000000000         5.425601260442821E-019
  -104.620000000000         2.534560224898581E-019
  -104.430000000000        -6.998672143399434E-020
  -104.240000000000        -3.377246025763889E-019
  -104.050000000000        -4.766149932593323E-019
  -103.860000000000        -4.514333174181394E-019
  -103.670000000000        -2.748637569032362E-019
  -103.480000000000        -3.559011279392313E-021
  -103.290000000000         2.785671767835097E-019
  -103.100000000000         4.849216656423741E-019
  -102.910000000000         5.515131313885134E-019
  -102.720000000000         4.555905591897319E-019
  -102.530000000000         2.222631614286244E-019
  -102.340000000000        -8.277909449941419E-020
  -102.150000000000        -3.723202534016413E-019
  -101.960000000000        -5.629415724901640E-019
  -101.770000000000        -5.992944026210646E-019
  -101.580000000000        -4.702827579461593E-019
  -101.390000000000        -2.124272768140109E-019
  -101.200000000000         1.006110331026050E-019
  -101.010000000000         3.793279184033459E-019
  -100.820000000000         5.442922761154154E-019
  -100.630000000000         5.491202831659939E-019
  -100.440000000000         3.938222171621195E-019
  -100.250000000000         1.246734507645484E-019
  -100.060000000000        -1.793054619147524E-019
  -99.8700000000000        -4.293051378240355E-019
  -99.6800000000000        -5.524678824847954E-019
  -99.4900000000000        -5.129827647273009E-019
  -99.3000000000000        -3.224487067250424E-019
  -99.1100000000000        -3.649857344151453E-020
  -98.9200000000000         2.613654843906449E-019
  -98.7300000000000         4.840584369273834E-019
  -98.5400000000000         5.662628492384017E-019
  -98.3500000000000         4.834501104190628E-019
  -98.1600000000000         2.590213374264880E-019
  -97.9700000000000        -4.250405404632521E-020
  -97.7800000000000        -3.342453539838846E-019
  -97.5900000000000        -5.321860322394447E-019
  -97.4000000000000        -5.795377920844455E-019
  -97.2100000000000        -4.631918784689775E-019
  -97.0200000000000        -2.175067378192049E-019
  -96.8300000000000         8.566666787629882E-020
  -96.6400000000000         3.578491908087493E-019
  -96.4500000000000         5.196509330083564E-019
  -96.2600000000000         5.238702704641251E-019
  -96.0700000000000         3.692389077847778E-019
  -95.8800000000000         1.007934217508400E-019
  -95.6900000000000        -2.032371913747470E-019
  -95.5000000000000        -4.541935540347139E-019
  -95.3100000000000        -5.787569457869349E-019
  -95.1200000000000        -5.402426205371793E-019
  -94.9300000000000        -3.492606167559718E-019
  -94.7400000000000        -6.067827595553722E-020
  -94.5500000000000         2.422355801402501E-019
  -94.3600000000000         4.719180929624762E-019
  -94.1700000000000         5.619151397580713E-019
  -93.9800000000000         4.862180751062474E-019
  -93.7900000000000         2.668931979198987E-019
  -93.6000000000000        -3.225677595230771E-020
  -93.4100000000000        -3.241843736780398E-019
  -93.2200000000000        -5.238607880945617E-019
  -93.0300000000000        -5.729469234736988E-019
  -92.8400000000000        -4.567007168703909E-019
  -92.6500000000000        -2.082388440030092E-019
  -92.4600000000000         1.010437240091441E-019
  -92.2700000000000         3.820967965763082E-019
  -92.0800000000000         5.539187372164684E-019
  -91.8900000000000         5.669344530411177E-019
  -91.7000000000000         4.173077184986840E-019
  -91.5100000000000         1.480386328069340E-019
  -91.3200000000000        -1.635032029015933E-019
  -91.1300000000000        -4.280215474392137E-019
  -90.9400000000000        -5.701975091340019E-019
  -90.7500000000000        -5.505077620021875E-019
  -90.5600000000000        -3.765986919782151E-019
  -90.3700000000000        -1.009191301675731E-019
  -90.1800000000000         1.946673931572312E-019
  -89.9900000000000         4.227877996076371E-019
  -89.8000000000000         5.160335840945961E-019
  -89.6100000000000         4.466289767809364E-019
  -89.4200000000000         2.346031084859107E-019
  -89.2300000000000        -5.791619508271304E-020
  -89.0400000000000        -3.446675360658995E-019
  -88.8500000000000        -5.402994606334684E-019
  -88.6600000000000        -5.852288409856621E-019
  -88.4700000000000        -4.630755662956646E-019
  -88.2800000000000        -2.055836965748253E-019
  -88.0900000000000         1.164091536923501E-019
  -87.9000000000000         4.133191175579209E-019
  -87.7100000000000         6.025604692857122E-019
  -87.5200000000000         6.322303572021291E-019
  -87.3300000000000         4.959069143637876E-019
  -87.1400000000000         2.343171164799720E-019
  -86.9500000000000        -7.658548598392284E-020
  -86.7600000000000        -3.476830133119962E-019
  -86.5700000000000        -5.025161237282592E-019
  -86.3800000000000        -4.993805821191847E-019
  -86.1900000000000        -3.432643780672434E-019
  -86.0000000000000        -8.413551362989609E-020
  -85.8100000000000         1.979143043103517E-019
  -85.6200000000000         4.163016266357860E-019
  -85.4300000000000         5.034242355192869E-019
  -85.2400000000000         4.305335298389699E-019
  -85.0500000000000         2.162389757291652E-019
  -84.8600000000000        -7.879327198978854E-020
  -84.6700000000000        -3.693865577298709E-019
  -84.4800000000000        -5.705616890964312E-019
  -84.2900000000000        -6.222656165941440E-019
  -84.1000000000000        -5.069578300117845E-019
  -83.9100000000000        -2.549231914246293E-019
  -83.7200000000000         6.428564439634423E-020
  -83.5300000000000         3.618358961652272E-019
  -83.3400000000000         5.552362242077815E-019
  -83.1500000000000         5.921293878282109E-019
  -82.9600000000000         4.653229738396618E-019
  -82.7700000000000         2.146954713956744E-019
  -82.5800000000000        -8.454424716953401E-020
  -82.3900000000000        -3.437981627981457E-019
  -82.2000000000000        -4.868394681994293E-019
  -82.0100000000000        -4.719342891710614E-019
  -81.8200000000000        -3.039308467885478E-019
  -81.6300000000000        -3.281334094071691E-020
  -81.4400000000000         2.608766696505205E-019
  -81.2500000000000         4.895367798681548E-019
  -81.0600000000000         5.840909482854198E-019
  -80.8700000000000         5.142076085784348E-019
  -80.6800000000000         2.972458593112824E-019
  -80.4900000000000        -6.673588792332115E-021
  -80.3000000000000        -3.120177287217068E-019
  -80.1100000000000        -5.325498672160077E-019
  -79.9200000000000        -6.062319302839054E-019
  -79.7300000000000        -5.131296043205434E-019
  -79.5400000000000        -2.811592926225079E-019
  -79.3500000000000         2.198733105962114E-020
  -79.1600000000000         3.084286650216737E-019
  -78.9700000000000         4.955449176881898E-019
  -78.7800000000000         5.299265320539938E-019
  -78.5900000000000         4.028497735128970E-019
  -78.4000000000000         1.527546591048771E-019
  -78.2100000000000        -1.460052370173687E-019
  -78.0200000000000        -4.048516028135272E-019
  -77.8300000000000        -5.467774790466868E-019
  -77.6400000000000        -5.287511737972611E-019
  -77.4500000000000        -3.542514590580345E-019
  -77.2600000000000        -7.233942495654604E-020
  -77.0700000000000         2.364432330860618E-019
  -76.8800000000000         4.832872020710707E-019
  -76.6900000000000         5.967707261601663E-019
  -76.5000000000000         5.435688581099237E-019
  -76.3100000000000         3.382139346612472E-019
  -76.1200000000000         3.903516090254850E-020
  -75.9300000000000        -2.685932372264837E-019
  -75.7400000000000        -4.968594078141561E-019
  -75.5500000000000        -5.808354984531889E-019
  -75.3600000000000        -4.971618565785002E-019
  -75.1700000000000        -2.706886911872622E-019
  -74.9800000000000         3.281465878583435E-020
  -74.7900000000000         3.257354147033219E-019
  -74.6000000000000         5.239439855437137E-019
  -74.4100000000000         5.710558652363816E-019
  -74.2200000000000         4.546262555521413E-019
  -74.0300000000000         2.095949671538331E-019
  -73.8400000000000        -9.202112280538878E-020
  -73.6500000000000        -3.621985927196399E-019
  -73.4600000000000        -5.226064273068477E-019
  -73.2700000000000        -5.274342272043154E-019
  -73.0800000000000        -3.766871855896042E-019
  -72.8900000000000        -1.160853008207095E-019
  -72.7000000000000         1.763711401627241E-019
  -72.5100000000000         4.132302249995268E-019
  -72.3200000000000         5.231689738341427E-019
  -72.1300000000000         4.719100885280646E-019
  -71.9400000000000         2.724106802951976E-019
  -71.7500000000000        -1.865683336970400E-020
  -71.5600000000000        -3.171629860087011E-019
  -71.3700000000000        -5.358531545649029E-019
  -71.1800000000000        -6.097067841891966E-019
  -70.9900000000000        -5.149298970931486E-019
  -70.8000000000000        -2.760144983872005E-019
  -70.6100000000000         4.121297908736622E-020
  -70.4200000000000         3.485221602518733E-019
  -70.2300000000000         5.606594968093647E-019
  -70.0400000000000         6.197994284743613E-019
  -69.8500000000000         5.119994339765087E-019
  -69.6600000000000         2.709439491735078E-019
  -69.4700000000000        -3.205618079546672E-020
  -69.2800000000000        -3.088913340373229E-019
  -69.0900000000000        -4.802802619838112E-019
  -68.9000000000000        -4.987717415367668E-019
  -68.7100000000000        -3.624266736424588E-019
  -68.5200000000000        -1.151732675404336E-019
  -68.3300000000000         1.662834355942454E-019
  -68.1400000000000         3.951658014363670E-019
  -67.9500000000000         5.002781227027183E-019
  -67.7600000000000         4.470857968581711E-019
  -67.5700000000000         2.480522470041380E-019
  -67.3800000000000        -4.077569732463221E-020
  -67.1900000000000        -3.359346060222392E-019
  -67.0000000000000        -5.507713665754111E-019
  -66.8100000000000        -6.207075120846166E-019
  -66.6200000000000        -5.222040957703366E-019
  -66.4300000000000        -2.798895125709323E-019
  -66.2400000000000         4.027280657019200E-020
  -66.0500000000000         3.498425004603451E-019
  -65.8600000000000         5.633302725847122E-019
  -65.6700000000000         6.227986681346626E-019
  -65.4800000000000         5.144706251932614E-019
  -65.2900000000000         2.725267239248601E-019
  -65.1000000000000        -3.097627985483180E-020
  -64.9100000000000        -3.071007703031207E-019
  -64.7200000000000        -4.758364183322743E-019
  -64.5300000000000        -4.892618444493808E-019
  -64.3400000000000        -3.453808874855827E-019
  -64.1500000000000        -8.863824732494720E-020
  -63.9600000000000         2.030512136847199E-019
  -63.7700000000000         4.410272169555818E-019
  -63.5800000000000         5.517799936167026E-019
  -63.3900000000000         4.984801814791740E-019
  -63.2000000000000         2.918614314600532E-019
  -63.0100000000000        -1.271286973187300E-020
  -62.8200000000000        -3.311277099754607E-019
  -62.6300000000000        -5.747067303032827E-019
  -62.4400000000000        -6.756969026271056E-019
  -62.2500000000000        -6.066921535346140E-019
  -62.0600000000000        -3.884173392758440E-019
  -61.8700000000000        -8.365226392622680E-020
  -61.6800000000000         2.209464453124113E-019
  -61.4900000000000         4.398878639035482E-019
  -61.3000000000000         5.135186559934295E-019
  -61.1100000000000         4.251662270857091E-019
  -60.9200000000000         2.057592027140041E-019
  -60.7300000000000        -7.542330319821304E-020
  -60.5400000000000        -3.311629688602169E-019
  -60.3500000000000        -4.818992189030729E-019
  -60.1600000000000        -4.790414762483768E-019
  -59.9700000000000        -3.192303430462146E-019
  -59.7800000000000        -4.544448670759255E-020
  -59.5900000000000         2.653365334089678E-019
  -59.4000000000000         5.243423526808632E-019
  -59.2100000000000         6.566949831045334E-019
  -59.0200000000000         6.231555711119611E-019
  -58.8300000000000         4.316313574125101E-019
  -58.6400000000000         1.350723788435606E-019
  -58.4500000000000        -1.836741579380332E-019
  -58.2600000000000        -4.356780597236762E-019
  -58.0700000000000        -5.514906274985940E-019
  -57.8800000000000        -5.010296575215782E-019
  -57.6900000000000        -3.020332770333706E-019
  -57.5000000000000        -1.468385159904725E-020
  -57.3100000000000         2.759771956972771E-019
  -57.1200000000000         4.847108765378622E-019
  -56.9300000000000         5.506781327107310E-019
  -56.7400000000000         4.548822734571295E-019
  -56.5500000000000         2.254414914724286E-019
  -56.3600000000000        -7.081264800536991E-020
  -56.1700000000000        -3.479602908519583E-019
  -55.9800000000000        -5.261234034629311E-019
  -55.7900000000000        -5.547648580277715E-019
  -55.6000000000000        -4.273548151909835E-019
  -55.4100000000000        -1.831428761415142E-019
  -55.2200000000000         1.044416813961706E-019
  -55.0300000000000         3.493411493158510E-019
  -54.8400000000000         4.780791965714125E-019
  -54.6500000000000         4.513045882122725E-019
  -54.4600000000000         2.754228862473039E-019
  -54.2700000000000         9.308070828496288E-022
  -54.0800000000000        -2.921029264189541E-019
  -53.8900000000000        -5.172438055208972E-019
  -53.7000000000000        -6.068659346724529E-019
  -53.5100000000000        -5.319565349612760E-019
  -53.3200000000000        -3.107446939616470E-019
  -53.1300000000000        -3.605989942473136E-021
  -52.9400000000000         3.042818134679351E-019
  -52.7500000000000         5.274689775974850E-019
  -52.5600000000000         6.048057712121272E-019
  -52.3700000000000         5.169399880852471E-019
  -52.1800000000000         2.917148508975452E-019
  -51.9900000000000        -4.049163429101692E-021
  -51.8000000000000        -2.839951353204998E-019
  -51.6100000000000        -4.672834015158391E-019
  -51.4200000000000        -5.020238440269599E-019
  -51.2300000000000        -3.802920718116302E-019
  -51.0400000000000        -1.403421185821525E-019
  -50.8500000000000         1.446619239145708E-019
  -50.6600000000000         3.881294381323096E-019
  -50.4700000000000         5.154698937471079E-019
  -50.2800000000000         4.860308711574683E-019
  -50.0900000000000         3.051483917522200E-019
  -49.9000000000000         2.280924921926134E-020
  -49.7100000000000        -2.806803675634825E-019
  -49.5200000000000        -5.178685068485843E-019
  -49.3300000000000        -6.194735083658679E-019
  -49.1400000000000        -5.545218503861340E-019
  -48.9500000000000        -3.394664823187766E-019
  -48.7600000000000        -3.360790537397343E-020
  -48.5700000000000         2.779017812736152E-019
  -48.3800000000000         5.085719782839090E-019
  -48.1900000000000         5.954902054421384E-019
  -48.0000000000000         5.173962991109768E-019
  -47.8100000000000         3.006676441058233E-019
  -47.6200000000000         1.150000450989378E-020
  -47.4300000000000        -2.634217482371325E-019
  -47.2400000000000        -4.421536464234607E-019
  -47.0500000000000        -4.713362372576656E-019
  -46.8600000000000        -3.417753454145034E-019
  -46.6700000000000        -9.124546169727211E-020
  -46.4800000000000         2.063452044043333E-019
  -46.2900000000000         4.623542128709183E-019
  -46.1000000000000         5.991990819053248E-019
  -45.9100000000000         5.730451795521301E-019
  -45.7200000000000         3.867520981788540E-019
  -45.5300000000000         8.927683392143018E-020
  -45.3400000000000        -2.383021471001888E-019
  -45.1500000000000        -5.060628467210648E-019
  -44.9600000000000        -6.410470123022141E-019
  -44.7700000000000        -6.081266897025008E-019
  -44.5800000000000        -4.199287500562603E-019
  -44.3900000000000        -1.329907776776650E-019
  -44.2000000000000         1.687184088861049E-019
  -44.0100000000000         3.981534310689910E-019
  -43.8200000000000         4.903906010146268E-019
  -43.6300000000000         4.213747633415303E-019
  -43.4400000000000         2.147607418905106E-019
  -43.2500000000000        -6.516077174077400E-020
  -43.0600000000000        -3.323993878286397E-019
  -42.8700000000000        -5.045272615974274E-019
  -42.6800000000000        -5.268810031693248E-019
  -42.4900000000000        -3.886486765653246E-019
  -42.3000000000000        -1.261781079669131E-019
  -42.1100000000000         1.874341826969588E-019
  -41.9200000000000         4.634445955534813E-019
  -41.7300000000000         6.231420476339196E-019
  -41.5400000000000         6.206673958911999E-019
  -41.3500000000000         4.563461328770205E-019
  -41.1600000000000         1.766397160515662E-019
  -40.9700000000000        -1.392928360768716E-019
  -40.7800000000000        -4.025157200207348E-019
  -40.5900000000000        -5.400329085167390E-019
  -40.4000000000000        -5.158072688066382E-019
  -40.2100000000000        -3.409862885669515E-019
  -40.0200000000000        -7.040611807685242E-020
  -39.8300000000000         2.135612434789914E-019
  -39.6400000000000         4.251000922063382E-019
  -39.4500000000000         4.999969598838862E-019
  -39.2600000000000         4.143975700300311E-019
  -39.0700000000000         1.918392486602580E-019
  -38.8800000000000        -1.035115822393741E-019
  -38.6900000000000        -3.854977258061315E-019
  -38.5000000000000        -5.710891943406571E-019
  -38.3100000000000        -6.046523249668084E-019
  -38.1200000000000        -4.742579806532582E-019
  -37.9300000000000        -2.152456339873870E-019
  -37.7400000000000         9.998568791685870E-020
  -37.5500000000000         3.829425146516932E-019
  -37.3600000000000         5.546197934869137E-019
  -37.1700000000000         5.682710308154699E-019
  -36.9800000000000         4.227999283211591E-019
  -36.7900000000000         1.629359983833615E-019
  -36.6000000000000        -1.338393872578657E-019
  -36.4100000000000        -3.798387140922359E-019
  -36.2200000000000        -5.026674011300999E-019
  -36.0300000000000        -4.662811355577264E-019
  -35.8400000000000        -2.814678778008827E-019
  -35.6500000000000        -2.682615593080024E-021
  -35.4600000000000         2.878524157498001E-019
  -35.2700000000000         5.041394653653412E-019
  -35.0800000000000         5.814866503485215E-019
  -34.8900000000000         4.953794881022908E-019
  -34.7000000000000         2.686727937808779E-019
  -34.5100000000000        -3.496498469748632E-020
  -34.3200000000000        -3.294430287904017E-019
  -34.1300000000000        -5.311498375458984E-019
  -33.9400000000000        -5.831625462748405E-019
  -33.7500000000000        -4.717479183662760E-019
  -33.5600000000000        -2.303486046627787E-019
  -33.3700000000000         7.012781398173416E-020
  -33.1800000000000         3.419014037918453E-019
  -32.9900000000000         5.057941911166522E-019
  -32.8000000000000         5.141720738700058E-019
  -32.6100000000000         3.647056113838444E-019
  -32.4200000000000         1.009952146719738E-019
  -32.2300000000000        -2.000808636433057E-019
  -32.0400000000000        -4.506188954858131E-019
  -31.8500000000000        -5.771255356671759E-019
  -31.6600000000000        -5.418128559864522E-019
  -31.4700000000000        -3.535988453151355E-019
  -31.2800000000000        -6.559773994352540E-020
  -31.0900000000000         2.402170486108832E-019
  -30.9000000000000         4.767530834901498E-019
  -30.7100000000000         5.770419177824517E-019
  -30.5200000000000         5.136251919873732E-019
  -30.3300000000000         3.064339541228068E-019
  -30.1400000000000         1.689037276972671E-020
  -29.9500000000000        -2.700047527278980E-019
  -29.7600000000000        -4.703548963895988E-019
  -29.5700000000000        -5.256605905467578E-019
  -29.3800000000000        -4.197212396503289E-019
  -29.1900000000000        -1.832953735822252E-019
  -29.0000000000000         1.148127410910064E-019
  -28.8100000000000         3.876747842045937E-019
  -28.6200000000000         5.554259475518333E-019
  -28.4300000000000         5.684304098719965E-019
  -28.2400000000000         4.216915170040325E-019
  -28.0500000000000         1.563044403276680E-019
  -27.8600000000000        -1.524665143460512E-019
  -27.6700000000000        -4.169955233851511E-019
  -27.4800000000000        -5.626340546762754E-019
  -27.2900000000000        -5.492345631160174E-019
  -27.1000000000000        -3.826470690666413E-019
  -26.9100000000000        -1.128887138518097E-019
  -26.7200000000000         1.804662536813246E-019
  -26.5300000000000         4.114467394244280E-019
  -26.3400000000000         5.126956452536458E-019
  -26.1500000000000         4.550773263775457E-019
  -25.9600000000000         2.561684343823534E-019
  -25.7700000000000        -2.485954955635996E-020
  -25.5800000000000        -3.044839103766376E-019
  -25.3900000000000        -4.991720155091519E-019
  -25.2000000000000        -5.497283763586880E-019
  -25.0100000000000        -4.385758092994585E-019
  -24.8200000000000        -1.949804541691210E-019
  -24.6300000000000         1.132592007701597E-019
  -24.4400000000000         3.992398721799095E-019
  -24.2500000000000         5.819055634954097E-019
  -24.0600000000000         6.093565687222407E-019
  -23.8700000000000         4.737974664364604E-019
  -23.6800000000000         2.137787293262386E-019
  -23.4900000000000        -9.695680520238209E-020
  -23.3000000000000        -3.708133671723180E-019
  -23.1100000000000        -5.316686787782300E-019
  -22.9200000000000        -5.368063488152795E-019
  -22.7300000000000        -3.890665234447669E-019
  -22.5400000000000        -1.357055179481978E-019
  -22.3500000000000         1.456520232914003E-019
  -22.1600000000000         3.698413491738826E-019
  -21.9700000000000         4.691227818363448E-019
  -21.7800000000000         4.130445974600993E-019
  -21.5900000000000         2.174426302130583E-019
  -21.4000000000000        -6.005152651514413E-020
  -21.2100000000000        -3.367252159353471E-019
  -21.0200000000000        -5.289055820391370E-019
  -20.8300000000000        -5.764887573676042E-019
  -20.6400000000000        -4.607165282795611E-019
  -20.4500000000000        -2.099817636157813E-019
  -20.2600000000000         1.080594318643300E-019
  -20.0700000000000         4.057870187580519E-019
  -19.8800000000000         6.007310396322904E-019
  -19.6900000000000         6.392362204190702E-019
  -19.5000000000000         5.118505148914018E-019
  -19.3100000000000         2.560059058006235E-019
  -19.1200000000000        -5.478600306549666E-020
  -18.9300000000000        -3.321273840454700E-019
  -18.7400000000000        -4.982151925993048E-019
  -18.5500000000000        -5.082327079738810E-019
  -18.3600000000000        -3.631352074227125E-019
  -18.1700000000000        -1.091026540213256E-019
  -17.9800000000000         1.761631176455513E-019
  -17.7900000000000         4.062685218662755E-019
  -17.6000000000000         5.114027655992602E-019
  -17.4100000000000         4.586890409809120E-019
  -17.2200000000000         2.617172853277801E-019
  -17.0300000000000        -2.346263802296065E-020
  -16.8400000000000        -3.146838182853375E-019
  -16.6500000000000        -5.275920706003215E-019
  -16.4600000000000        -6.002327187601559E-019
  -16.2700000000000        -5.111589310306082E-019
  -16.0800000000000        -2.857765336822555E-019
  -15.8900000000000         1.095846697695062E-020
  -15.7000000000000         2.933948046371428E-019
  -15.5100000000000         4.801045450366813E-019
  -15.3200000000000         5.175813240547049E-019
  -15.1300000000000         3.957945738112525E-019
  -14.9400000000000         1.510866001865096E-019
  -14.7500000000000        -1.443885027146107E-019
  -14.5600000000000        -4.035874445185049E-019
  -14.3700000000000        -5.497948766460343E-019
  -14.1800000000000        -5.388454061468670E-019
  -13.9900000000000        -3.719263274684447E-019
  -13.8000000000000        -9.525085833439388E-020
  -13.6100000000000         2.133176347944205E-019
  -13.4200000000000         4.668245328860709E-019
  -13.2300000000000         5.944115407148766E-019
  -13.0400000000000         5.617921890578555E-019
  -12.8500000000000         3.810526348584407E-019
  -12.6600000000000         1.069530453146223E-019
  -12.4700000000000        -1.791462211474951E-019
  -12.2800000000000        -3.930196219773689E-019
  -12.0900000000000        -4.720649324995996E-019
  -11.9000000000000        -3.934591283107814E-019
  -11.7100000000000        -1.807573188181902E-019
  -11.5200000000000         1.029526639464612E-019
  -11.3300000000000         3.733696542953676E-019
  -11.1400000000000         5.494924206401415E-019
  -10.9500000000000         5.772225070425854E-019
  -10.7600000000000         4.451790993364823E-019
  -10.5700000000000         1.881027320732457E-019
  -10.3800000000000        -1.231485586472762E-019
  -10.1900000000000        -4.020874026176105E-019
  -10.0000000000000        -5.715930247369721E-019
  -9.81000000000000        -5.861477137250932E-019
  -9.62000000000000        -4.448825452272326E-019
  -9.42999999999999        -1.916853239936841E-019
  -9.23999999999999         9.764471200954996E-020
  -9.05000000000000         3.374880612580183E-019
  -8.86000000000000         4.573596976612898E-019
  -8.67000000000000         4.224909434456075E-019
  -8.48000000000000         2.440409917009206E-019
  -8.28999999999999        -2.407019734669009E-020
  -8.09999999999999        -3.008331772068346E-019
  -7.91000000000000        -5.017926899269673E-019
  -7.72000000000000        -5.637808554008129E-019
  -7.53000000000000        -4.635323423350353E-019
  -7.34000000000000        -2.247716626293524E-019
  -7.15000000000001         8.828137745906471E-020
  -6.95999999999999         3.891266705398850E-019
  -6.77000000000000         5.936950375390348E-019
  -6.58000000000000         6.444612500835606E-019
  -6.39000000000000         5.270152407599647E-019
  -6.20000000000000         2.742833501098338E-019
  -6.01000000000001        -4.287704119358184E-020
  -5.81999999999999        -3.360401881813199E-019
  -5.63000000000000        -5.246420149080195E-019
  -5.44000000000000        -5.590777837185360E-019
  -5.25000000000000        -4.347511541283665E-019
  -5.06000000000000        -1.930208623922996E-019
  -4.87000000000000         9.118082308496053E-020
  -4.67999999999999         3.314158636090851E-019
  -4.48999999999999         4.550622865647074E-019
  -4.30000000000000         4.245461764466879E-019
  -4.11000000000000         2.483461574724007E-019
  -3.92000000000000        -2.141707412823418E-020
  -3.73000000000000        -3.041360380570788E-019
  -3.53999999999999        -5.142537249347554E-019
  -3.34999999999999        -5.863523933755498E-019
  -3.16000000000000        -4.944707658386787E-019
  -2.97000000000000        -2.599820157262001E-019
  -2.78000000000000         5.430439238611952E-020
  -2.59000000000000         3.621203502615789E-019
  -2.40000000000001         5.785590424927456E-019
  -2.20999999999999         6.445160056637658E-019
  -2.02000000000000         5.436754110108718E-019
  -1.83000000000000         3.071480848185334E-019
  -1.64000000000000         4.427099501983111E-021
  -1.45000000000000        -2.767366427917338E-019
  -1.26000000000001        -4.557270797783402E-019
  -1.06999999999999        -4.823663247799322E-019
 -0.879999999999995        -3.513591445324646E-019
 -0.689999999999998        -1.036723549722945E-019
 -0.500000000000000         1.855514479057228E-019
 -0.310000000000002         4.290039815443408E-019
 -0.120000000000005         5.527022243133321E-019
  7.000000000000739E-002    5.175305314504793E-019
  0.260000000000005         3.305980568024874E-019
  0.450000000000003         4.315894214090153E-020
  0.640000000000001        -2.642621306994263E-019
  0.829999999999998        -5.052040405191266E-019
   1.02000000000000        -6.122971247804933E-019
   1.21000000000001        -5.567392224676483E-019
   1.40000000000001        -3.565686226680624E-019
   1.59000000000000        -7.130944590264618E-020
   1.78000000000000         2.154662606540183E-019
   1.97000000000000         4.205568400577454E-019
   2.16000000000000         4.853684864619622E-019
   2.34999999999999         3.928863058791363E-019
   2.54000000000001         1.724576008752120E-019
   2.73000000000000        -1.089497768539077E-019
   2.92000000000000        -3.664098351439925E-019
   3.11000000000000        -5.218717837306438E-019
   3.30000000000000        -5.269605683452544E-019
   3.48999999999999        -3.771545867856335E-019
   3.68000000000001        -1.132315063749561E-019
   3.87000000000000         1.904625067915540E-019
   4.06000000000000         4.475394227053408E-019
   4.25000000000000         5.846434590529810E-019
   4.44000000000000         5.627747228681386E-019
   4.63000000000000         3.886454970674731E-019
   4.82000000000001         1.127541245355942E-019
   5.01000000000001        -1.852536184964644E-019
   5.20000000000000        -4.196514845425399E-019
   5.39000000000000        -5.234161216003362E-019
   5.58000000000000        -4.675641564769178E-019
   5.77000000000000        -2.694814723352818E-019
   5.96000000000001         1.214797716809252E-020
   6.15000000000001         2.943565403810172E-019
   6.34000000000000         4.939481255067724E-019
   6.53000000000000         5.516438450204640E-019