  -105.000000000000        -2.289754350539409E-020
  -104.810000000000        -5.110500326876813E-020
  -104.620000000000        -4.318373420290251E-020
  -104.430000000000        -1.412451001543709E-020
  -104.240000000000         2.701040636776743E-021
  -104.050000000000        -1.238722227129577E-020
  -103.860000000000        -4.669182133396246E-020
  -103.670000000000        -6.759337401959820E-020
  -103.480000000000        -5.415922116202372E-020
  -103.290000000000        -1.763761782277674E-020
  -103.100000000000         8.821756256204334E-021
  -102.910000000000         1.471220940304204E-021
  -102.720000000000        -3.158339620426313E-020
  -102.530000000000        -5.822319229499426E-020
  -102.340000000000        -5.295560940303233E-020
  -102.150000000000        -2.111849009193122E-020
  -101.960000000000         6.398783168436568E-021
  -101.770000000000         2.822753538640262E-021
  -101.580000000000        -2.879567902221980E-020
  -101.390000000000        -5.839951662773771E-020
  -101.200000000000        -5.759982272189118E-020
  -101.010000000000        -2.680375340455028E-020
  -100.820000000000         5.157210969275575E-021
  -100.630000000000         8.558129554007478E-021
  -100.440000000000        -1.884298063125245E-020
  -100.250000000000        -4.969606257705741E-020
  -100.060000000000        -5.323570377958136E-020
  -99.8700000000000        -2.475842367594244E-020
  -99.6800000000000         9.758701930259668E-021
  -99.4900000000000         1.836383051186032E-020
  -99.3000000000000        -6.382582862597112E-021
  -99.1100000000000        -4.025740992964901E-020
  -98.9200000000000        -5.042249599755324E-020
  -98.7300000000000        -2.669423094673298E-020
  -98.5400000000000         8.777266973354196E-021
  -98.3500000000000         2.261609249647388E-020
  -98.1600000000000         1.977297088375538E-021
  -97.9700000000000        -3.329059885697348E-020
  -97.7800000000000        -4.962235110533348E-020
  -97.5900000000000        -3.171035030922757E-020
  -97.4000000000000         3.055390757738903E-021
  -97.2100000000000         2.144741211889452E-020
  -97.0200000000000         6.390319292862097E-021
  -96.8300000000000        -2.655485560084652E-020
  -96.6400000000000        -4.400325561713668E-020
  -96.4500000000000        -2.673384073196319E-020
  -96.2600000000000         1.167435029081678E-020
  -96.0700000000000         3.737139981613436E-020
  -95.8800000000000         2.804971204525406E-020
  -95.6900000000000        -6.230193627877777E-021
  -95.5000000000000        -3.299040827436163E-020
  -95.3100000000000        -2.845639964107933E-020
  -95.1200000000000        -3.937068796368361E-023
  -94.9300000000000         2.128485539661471E-020
  -94.7400000000000         1.129976291278480E-020
  -94.5500000000000        -2.355686376733480E-020
  -94.3600000000000        -5.171498910258479E-020
  -94.1700000000000        -4.628880011871621E-020
  -93.9800000000000        -1.079817399511075E-020
  -93.7900000000000         2.380808055650249E-020
  -93.6000000000000         2.811889516882916E-020
  -93.4100000000000         1.698811909730471E-021
  -93.2200000000000        -2.708680355952534E-020
  -93.0300000000000        -2.859906869811355E-020
  -92.8400000000000        -4.776053945133828E-022
  -92.6500000000000         3.003072130207336E-020
  -92.4600000000000         3.217128991589728E-020
  -92.2700000000000         1.292739851474233E-021
  -92.0800000000000        -3.632851788623677E-020
  -91.8900000000000        -4.813504747039615E-020
  -91.7000000000000        -2.595053680290482E-020
  -91.5100000000000         6.577058976041902E-021
  -91.3200000000000         1.682161274452103E-020
  -91.1300000000000        -5.534487095069469E-021
  -90.9400000000000        -3.864283116960683E-020
  -90.7500000000000        -4.944495244873232E-020
  -90.5600000000000        -2.543237189461263E-020
  -90.3700000000000         1.309771834227518E-020
  -90.1800000000000         3.201526811401636E-020
  -89.9900000000000         1.550828308456178E-020
  -89.8000000000000        -1.920711185469524E-020
  -89.6100000000000        -3.856802015905178E-020
  -89.4200000000000        -2.471680207546636E-020
  -89.2300000000000         7.695088532178714E-021
  -89.0400000000000         2.589860752879468E-020
  -88.8500000000000         1.071460920894173E-020
  -88.6600000000000        -2.480252244380742E-020
  -88.4700000000000        -4.765739319105943E-020
  -88.2800000000000        -3.643820662809065E-020
  -88.0900000000000        -1.928654409252171E-021
  -87.9000000000000         2.298058256797122E-020
  -87.7100000000000         1.453893946190103E-020
  -87.5200000000000        -1.925104647680903E-020
  -87.3300000000000        -4.622419315818042E-020
  -87.1400000000000        -4.060328093826617E-020
  -86.9500000000000        -7.401564841746342E-021
  -86.7600000000000         2.252772609979069E-020
  -86.5700000000000         2.199196673707952E-020
  -86.3800000000000        -6.709509193280606E-021
  -86.1900000000000        -3.430978600779322E-020
  -86.0000000000000        -3.298390910642281E-020
  -85.8100000000000        -3.363027993885183E-021
  -85.6200000000000         2.580018237283970E-020
  -85.4300000000000         2.507822452075491E-020
  -85.2400000000000        -7.266657213379805E-021
  -85.0500000000000        -4.312536259733391E-020
  -84.8600000000000        -5.076899151064849E-020
  -84.6700000000000        -2.458371357631810E-020
  -84.4800000000000         9.947346064629239E-021
  -84.2900000000000         2.070997095490411E-020
  -84.1000000000000        -5.130343798486553E-022
  -83.9100000000000        -3.058832808761055E-020
  -83.7200000000000        -3.768998172202458E-020
  -83.5300000000000        -1.230857605099205E-020
  -83.3400000000000         2.311791520795333E-020
  -83.1500000000000         3.525619169632761E-020
  -82.9600000000000         1.160071734942059E-020
  -82.7700000000000        -2.741163482800625E-020
  -82.5800000000000        -4.755167756934389E-020
  -82.3900000000000        -3.303557044918401E-020
  -82.2000000000000        -1.122738340736265E-021
  -82.0100000000000         1.484138575671986E-020
  -81.8200000000000        -2.282678080894367E-021
  -81.6300000000000        -3.666114001199574E-020
  -81.4400000000000        -5.429020871968418E-020
  -81.2500000000000        -3.532657856017981E-020
  -81.0600000000000         6.803875601988897E-021
  -80.8700000000000         3.771122200515511E-020
  -80.6800000000000         3.407118804344523E-020
  -80.4900000000000         4.937815629669790E-021
  -80.3000000000000        -1.782104914644484E-020
  -80.1100000000000        -1.063022602377323E-020
  -79.9200000000000         1.898106813162455E-020
  -79.7300000000000         3.966082009632451E-020
  -79.5400000000000         2.660574622725163E-020
  -79.3500000000000        -1.403800947257853E-020
  -79.1600000000000        -5.014136508969246E-020
  -78.9700000000000        -5.334628335324992E-020
  -78.7800000000000        -2.537307358920703E-020
  -78.5900000000000         4.103858097849876E-021
  -78.4000000000000         5.895067855214961E-021
  -78.2100000000000        -2.112025220601334E-020
  -78.0200000000000        -4.948671512203522E-020
  -77.8300000000000        -4.999896153865316E-020
  -77.6400000000000        -2.003291947043184E-020
  -77.4500000000000         1.377600376100184E-020
  -77.2600000000000         2.104868757073301E-020
  -77.0700000000000        -3.119755648134389E-021
  -76.8800000000000        -3.333100642339624E-020
  -76.6900000000000        -3.819394699970627E-020
  -76.5000000000000        -1.055938381772298E-020
  -76.3100000000000         2.529350927446744E-020
  -76.1200000000000         3.649566809486853E-020
  -75.9300000000000         1.274633395619397E-020
  -75.7400000000000        -2.387772566717918E-020
  -75.5500000000000        -3.981236042599416E-020
  -75.3600000000000        -2.170913451382250E-020
  -75.1700000000000         1.124911777572343E-020
  -74.9800000000000         2.612997899718334E-020
  -74.7900000000000         8.121683368972646E-021
  -74.6000000000000        -2.505491415779569E-020
  -74.4100000000000        -4.004923554691751E-020
  -74.2200000000000        -1.998940440926252E-020
  -74.0300000000000         1.889581835885584E-020
  -73.8400000000000         4.212031059162841E-020
  -73.6500000000000         2.925181750202339E-020
  -73.4600000000000        -7.000906099825974E-021
  -73.2700000000000        -3.309106910778625E-020
  -73.0800000000000        -2.660196921417602E-020
  -72.8900000000000         2.601858999746453E-021
  -72.7000000000000         2.217972011502093E-020
  -72.5100000000000         8.643516355987580E-021
  -72.3200000000000        -2.973663265527156E-020
  -72.1300000000000        -6.030522446944211E-020
  -71.9400000000000        -5.664580006723285E-020
  -71.7500000000000        -2.330764087560132E-020
  -71.5600000000000         8.851898920266328E-021
  -71.3700000000000         1.216180924470341E-020
  -71.1800000000000        -1.176151853685676E-020
  -70.9900000000000        -3.423403374251867E-020
  -70.8000000000000        -2.782175376093622E-020
  -70.6100000000000         6.468529201468782E-021
  -70.4200000000000         3.928252189100623E-020
  -70.2300000000000         4.037986450804548E-020
  -70.0400000000000         7.383600769979450E-021
  -69.8500000000000        -3.158836382553608E-020
  -69.6600000000000        -4.401912811096642E-020
  -69.4700000000000        -2.307961441007629E-020
  -69.2800000000000         6.834242633146115E-021
  -69.0900000000000         1.421437544113520E-020
  -68.9000000000000        -8.995884247823971E-021
  -68.7100000000000        -3.966039915541145E-020
  -68.5200000000000        -4.588349929267937E-020
  -68.3300000000000        -1.807954401785290E-020
  -68.1400000000000         2.113450915345707E-020
  -67.9500000000000         3.784016391549706E-020
  -67.7600000000000         1.871339591580791E-020
  -67.5700000000000        -1.646630606127606E-020
  -67.3800000000000        -3.366212675587243E-020
  -67.1900000000000        -1.686447877098875E-020
  -67.0000000000000         1.689761310857547E-020
  -66.8100000000000         3.401758391691103E-020
  -66.6200000000000         1.645539465939309E-020
  -66.4300000000000        -2.107555907053784E-020
  -66.2400000000000        -4.517116690740372E-020
  -66.0500000000000        -3.553240023073468E-020
  -65.8600000000000        -4.095698440260020E-021
  -65.6700000000000         1.675940994618888E-020
  -65.4800000000000         5.576990936338894E-021
  -65.2900000000000        -2.733776474673583E-020
  -65.1000000000000        -4.962644339100816E-020
  -64.9100000000000        -3.788423686476678E-020
  -64.7200000000000        -3.180338790633337E-022
  -64.5300000000000         3.064652611302591E-020
  -64.3400000000000         2.884163952565895E-020
  -64.1500000000000        -1.095979980609708E-021
  -63.9600000000000        -2.850466909542207E-020
  -63.7700000000000        -2.621649120019285E-020
  -63.5800000000000         3.418318929675266E-021
  -63.3900000000000         3.088396365234861E-020
  -63.2000000000000         2.794467417715701E-020
  -63.0100000000000        -5.056325741786670E-021
  -62.8200000000000        -3.917157650190244E-020
  -62.6300000000000        -4.417176060319131E-020
  -62.4400000000000        -1.717686365812746E-020
  -62.2500000000000         1.473777140582371E-020
  -62.0600000000000         2.050116680588870E-020
  -61.8700000000000        -5.182585942733253E-021
  -61.6800000000000        -3.671882932998039E-020
  -61.4900000000000        -4.211952508688133E-020
  -61.3000000000000        -1.377932169130646E-020
  -61.1100000000000         2.383095715774711E-020
  -60.9200000000000         3.694625787481635E-020
  -60.7300000000000         1.416380443111294E-020
  -60.5400000000000        -2.305768877932452E-020
  -60.3500000000000        -4.095218999521109E-020
  -60.1600000000000        -2.539625814797927E-020
  -59.9700000000000         5.208381186904035E-021
  -59.7800000000000         1.828865453005781E-020
  -59.5900000000000        -1.046095773431476E-021
  -59.4000000000000        -3.526047432571571E-020
  -59.2100000000000        -5.092893690138279E-020
  -59.0200000000000        -3.077010561976129E-020
  -58.8300000000000         9.440370958592849E-021
  -58.6400000000000         3.531398560254386E-020
  -58.4500000000000         2.599902364331954E-020
  -58.2600000000000        -6.527403647706062E-021
  -58.0700000000000        -2.935018821000879E-020
  -57.8800000000000        -2.026230572662628E-020
  -57.6900000000000         1.108572483884381E-020
  -57.5000000000000         3.267875203050565E-020
  -57.3100000000000         2.110130311893805E-020
  -57.1200000000000        -1.568666698252571E-020
  -56.9300000000000        -4.557839779669860E-020
  -56.7400000000000        -4.270952860143922E-020
  -56.5500000000000        -1.199929495587098E-020
  -56.3600000000000         1.565927688519716E-020
  -56.1700000000000         1.304413149539811E-020
  -55.9800000000000        -1.722134812180450E-020
  -55.7900000000000        -4.501543595443204E-020
  -55.6000000000000        -4.141447580201725E-020
  -55.4100000000000        -6.412231696841089E-021
  -55.2200000000000         3.074738326940223E-020
  -55.0300000000000         3.896700515473055E-020
  -54.8400000000000         1.438196807293198E-020
  -54.6500000000000        -1.649694015074099E-020
  -54.4600000000000        -2.247868117529122E-020
  -54.2700000000000         2.378899172630883E-021
  -54.0800000000000         3.318964405304653E-020
  -53.8900000000000         3.825521518180859E-020
  -53.7000000000000         9.636887303841459E-021
  -53.5100000000000        -2.895967389241909E-020
  -53.3200000000000        -4.452241613411425E-020
  -53.1300000000000        -2.598274944565064E-020
  -52.9400000000000         5.443741279407580E-021
  -52.7500000000000         1.671286773906804E-020
  -52.5600000000000        -5.316655553875249E-021
  -52.3700000000000        -4.119319768667288E-020
  -52.1800000000000        -5.735037462186604E-020
  -51.9900000000000        -3.809025995731063E-020
  -51.8000000000000        -5.362717370897899E-022
  -51.6100000000000         2.166980487015302E-020
  -51.4200000000000         1.030766034456543E-020
  -51.2300000000000        -2.036007070860064E-020
  -51.0400000000000        -3.768270423449320E-020
  -50.8500000000000        -2.234275628030765E-020
  -50.6600000000000         1.274186126016627E-020
  -50.4700000000000         3.455211739760342E-020
  -50.2800000000000         2.162066164742123E-020
  -50.0900000000000        -1.506788615640034E-020
  -49.9000000000000        -4.199532643782083E-020
  -49.7100000000000        -3.452877519359257E-020
  -49.5200000000000        -1.400031082025025E-023
  -49.3300000000000         2.939518786202039E-020
  -49.1400000000000         2.733061257780129E-020
  -48.9500000000000        -1.912464181072122E-021
  -48.7600000000000        -2.789194024242844E-020
  -48.5700000000000        -2.353629052464531E-020
  -48.3800000000000         8.607544925947460E-021
  -48.1900000000000         3.850947537316173E-020
  -48.0000000000000         3.715317155991280E-020
  -47.8100000000000         4.212080227083968E-021
  -47.6200000000000        -3.149710115741954E-020
  -47.4300000000000        -3.924960380143978E-020
  -47.2400000000000        -1.540485187490748E-020
  -47.0500000000000         1.347737675750459E-020
  -46.8600000000000         1.634574104452228E-020
  -46.6700000000000        -1.239464912823443E-020
  -46.4800000000000        -4.731380593398992E-020
  -46.2900000000000        -5.606227545114299E-020
  -46.1000000000000        -3.011448228785691E-020
  -45.9100000000000         7.168670292511220E-021
  -45.7200000000000         2.280139865231089E-020
  -45.5300000000000         5.479032001022945E-021
  -45.3400000000000        -2.396546244588381E-020
  -45.1500000000000        -3.292009088109953E-020
  -44.9600000000000        -8.652535972616706E-021
  -44.7700000000000         2.907720732314213E-020
  -44.5800000000000         4.657540576248373E-020
  -44.3900000000000         2.824799496290847E-020
  -44.2000000000000        -8.474091394337625E-021
  -44.0100000000000        -2.959065475346127E-020
  -43.8200000000000        -1.673480672221768E-020
  -43.6300000000000         1.553512586747783E-020
  -43.4400000000000         3.383563939869232E-020
  -43.2500000000000         1.800518708845087E-020
  -43.0600000000000        -1.948953821224084E-020
  -42.8700000000000        -4.530741740863627E-020
  -42.6800000000000        -3.689857596188770E-020
  -42.4900000000000        -3.850668648431031E-021
  -42.3000000000000         2.140703705504409E-020
  -42.1100000000000         1.460762127365686E-020
  -41.9200000000000        -1.725702704263372E-020
  -41.7300000000000        -4.279187524183315E-020
  -41.5400000000000        -3.644336803406174E-020
  -41.3500000000000        -3.200273909970696E-021
  -41.1600000000000         2.590585882341996E-020
  -40.9700000000000         2.323463012386468E-020
  -40.7800000000000        -9.195659660279407E-021
  -40.5900000000000        -4.164808866251864E-020
  -40.4000000000000        -4.490285843496078E-020
  -40.2100000000000        -1.782233924886272E-020
  -40.0200000000000         1.201695967424807E-020
  -39.8300000000000         1.514171448723109E-020
  -39.6400000000000        -1.127788877248356E-020
  -39.4500000000000        -4.055743582715855E-020
  -39.2600000000000        -4.211282628470693E-020
  -39.0700000000000        -1.104790785197575E-020
  -38.8800000000000         2.666809719835730E-020
  -38.6900000000000         3.850843968881049E-020
  -38.5000000000000         1.607833997804589E-020
  -38.3100000000000        -1.706312622626284E-020
  -38.1200000000000        -2.795374162601129E-020
  -37.9300000000000        -5.702527340462514E-021
  -37.7400000000000         2.813613619115528E-020
  -37.5500000000000         4.023311106817919E-020
  -37.3600000000000         1.749186869055020E-020
  -37.1700000000000        -2.018406685685528E-020
  -36.9800000000000        -3.859028482367117E-020
  -36.7900000000000        -2.159555611884245E-020
  -36.6000000000000         1.362770937274776E-020
  -36.4100000000000         3.300606639776997E-020
  -36.2200000000000         1.798575237731096E-020
  -36.0300000000000        -1.689185099849958E-020
  -35.8400000000000        -3.798755954230768E-020
  -35.6500000000000        -2.476284405577288E-020
  -35.4600000000000         1.054327516746802E-020
  -35.2700000000000         3.449606530063490E-020
  -35.0800000000000         2.420916516801907E-020
  -34.8900000000000        -1.100541839106002E-020
  -34.7000000000000        -3.862490687644824E-020
  -34.5100000000000        -3.387349948720571E-020
  -34.3200000000000        -3.109437361880493E-021
  -34.1300000000000         2.260470050590733E-020
  -33.9400000000000         1.749408529672024E-020
  -33.7500000000000        -1.413514535405192E-020
  -33.5600000000000        -4.203368711486811E-020
  -33.3700000000000        -3.906174179725036E-020
  -33.1800000000000        -7.290260603539853E-021
  -32.9900000000000         2.384919529090543E-020
  -32.8000000000000         2.560896093940662E-020
  -32.6100000000000        -2.638345530327804E-021
  -32.4200000000000        -3.282109925156034E-020
  -32.2300000000000        -3.505532931676162E-020
  -32.0400000000000        -6.317243160569633E-021
  -31.8500000000000         2.654396720550142E-020
  -31.6600000000000         3.236936876288781E-020
  -31.4700000000000         5.396164574827236E-021
  -31.2800000000000        -2.928470728657395E-020
  -31.0900000000000        -3.972197450805226E-020
  -30.9000000000000        -1.762024604243344E-020
  -30.7100000000000         1.379239442635477E-020
  -30.5200000000000         2.212813713386873E-020
  -30.3300000000000        -2.869994808755948E-021
  -30.1400000000000        -3.904475800019909E-020
  -29.9500000000000        -5.250953671412512E-020
  -29.7600000000000        -2.969118968854670E-020
  -29.5700000000000         9.764473191854066E-021
  -29.3800000000000         3.150187663116464E-020
  -29.1900000000000         1.876058978059472E-020
  -29.0000000000000        -1.222104390107278E-020
  -28.8100000000000        -2.826435566266514E-020
  -28.6200000000000        -1.135707697485566E-020
  -28.4300000000000         2.389326511383778E-020
  -28.2400000000000         4.415148842650395E-020
  -28.0500000000000         2.929901148767630E-020
  -27.8600000000000        -8.144079842428798E-021
  -27.6700000000000        -3.471080598579523E-020
  -27.4800000000000        -2.764377212202219E-020
  -27.2900000000000         3.672661939378835E-021
  -27.1000000000000         2.691390138762922E-020
  -26.9100000000000         1.784680414353095E-020
  -26.7200000000000        -1.642718270064004E-020
  -26.5300000000000        -4.421159370303175E-020
  -26.3400000000000        -3.949675403148995E-020
  -26.1500000000000        -6.833770614413639E-021
  -25.9600000000000         2.297213653661392E-020
  -25.7700000000000         2.221412689745747E-020
  -25.5800000000000        -7.363310251636877E-021
  -25.3900000000000        -3.635687887611455E-020
  -25.2000000000000        -3.592087584264132E-020
  -25.0100000000000        -5.470742300257102E-021
  -24.8200000000000         2.661575037862829E-020
  -24.6300000000000         3.004757266659772E-020
  -24.4400000000000         1.629034009780185E-021
  -24.2500000000000        -3.150498686532794E-020
  -24.0600000000000        -3.757337089760959E-020
  -23.8700000000000        -1.029267478072382E-020
  -23.6800000000000         2.521624021204184E-020
  -23.4900000000000         3.634180133241646E-020
  -23.3000000000000         1.391719894566515E-020
  -23.1100000000000        -1.926734520331664E-020
  -22.9200000000000        -3.042756720351264E-020
  -22.7300000000000        -8.205851315799507E-021
  -22.5400000000000         2.647176496803296E-020
  -22.3500000000000         4.042431531428134E-020
  -22.1600000000000         1.991109996694008E-020
  -21.9700000000000        -1.631681710446701E-020
  -21.7800000000000        -3.502581388823174E-020
  -21.5900000000000        -2.030880450377486E-020
  -21.4000000000000         1.121252837026116E-020
  -21.2100000000000         2.633979337488939E-020
  -21.0200000000000         7.201659022313124E-021
  -20.8300000000000        -3.137279866108239E-020
  -20.6400000000000        -5.565108468998471E-020
  -20.4500000000000        -4.481542927752498E-020
  -20.2600000000000        -1.043830412317277E-020
  -20.0700000000000         1.490871750693333E-020
  -19.8800000000000         8.927149005310525E-021
  -19.6900000000000        -1.919834837517417E-020
  -19.5000000000000        -3.794793463482632E-020
  -19.3100000000000        -2.422795614486450E-020
  -19.1200000000000         1.374826899208195E-020
  -18.9300000000000         4.353158311923354E-020
  -18.7400000000000         3.890488704777956E-020
  -18.5500000000000         4.729685822853186E-021
  -18.3600000000000        -2.757256681141407E-020
  -18.1700000000000        -2.965971581154813E-020
  -17.9800000000000        -2.851139742607562E-021
  -17.7900000000000         2.359871590361794E-020
  -17.6000000000000         2.083858080557769E-020
  -17.4100000000000        -1.166011786842244E-020
  -17.2200000000000        -4.524715515994012E-020
  -17.0300000000000        -4.914838219125150E-020
  -16.8400000000000        -1.963634608535420E-020
  -16.6500000000000         1.649294144750898E-020
  -16.4600000000000         2.740248058705626E-020
  -16.2700000000000         6.315343125149863E-021
  -16.0800000000000        -2.244035391346862E-020
  -15.8900000000000        -2.714105403176436E-020
  -15.7000000000000         5.347753783470464E-022
  -15.5100000000000         3.706264935293669E-020
  -15.3200000000000         4.912469134708661E-020
  -15.1300000000000         2.517653373119506E-020
  -14.9400000000000        -1.357547644474587E-020
  -14.7500000000000        -3.323171036773807E-020
  -14.5600000000000        -1.911920898989329E-020
  -14.3700000000000         1.083068484976239E-020
  -14.1800000000000         2.385704996669424E-020
  -13.9900000000000         4.170239002547396E-021
  -13.8000000000000        -3.167603719996651E-020
  -13.6100000000000        -5.055135306232901E-020
  -13.4200000000000        -3.455311551876961E-020
  -13.2300000000000         1.648082300253384E-021
  -13.0400000000000         2.460814533827592E-020
  -12.8500000000000         1.391603815440742E-020
  -12.6600000000000        -1.837789028170578E-020
  -12.4700000000000        -3.928296575437309E-020
  -12.2800000000000        -2.639005679401796E-020
  -12.0900000000000         1.062069012380946E-020
  -11.9000000000000         3.899312040042367E-020
  -11.7100000000000         3.388072138146494E-020
  -11.5200000000000         1.789015565139469E-021
  -11.3300000000000        -2.586606266806690E-020
  -11.1400000000000        -2.287718252960820E-020
  -10.9500000000000         6.781300759718097E-021
  -10.7600000000000         3.297776140997005E-020
  -10.5700000000000         2.854572409389286E-020
  -10.3800000000000        -4.370682869930250E-021
  -10.1900000000000        -3.598314329037904E-020
  -10.0000000000000        -3.705385743802390E-020
  -9.81000000000000        -6.772495535104541E-021
  -9.62000000000000         2.631714036608463E-020
  -9.42999999999999         3.128514475921327E-020
  -9.23999999999999         3.982942652446432E-021
  -9.05000000000000        -2.935517959542950E-020
  -8.86000000000000        -3.739365589472426E-020
  -8.67000000000000        -1.365174928261815E-020
  -8.48000000000000         1.743953523422308E-020
  -8.28999999999999         2.410416073181025E-020
  -8.09999999999999        -2.134820781093550E-021
  -7.91000000000000        -3.805833056115161E-020
  -7.72000000000000        -5.069634588944730E-020
  -7.53000000000000        -2.868227942500290E-020
  -7.34000000000000         6.955171508041488E-021
  -7.15000000000001         2.288948264373191E-020
  -6.95999999999999         5.297454025244643E-021
  -6.77000000000000        -2.698718911847905E-020
  -6.58000000000000        -4.053844979984732E-020
  -6.39000000000000        -1.943276458028087E-020
  -6.20000000000000         1.923720720835431E-020
  -6.01000000000001         4.129702772885662E-020
  -5.81999999999999         2.774381571152004E-020
  -5.63000000000000        -7.419398089648194E-021
  -5.44000000000000        -3.073056245915824E-020
  -5.25000000000000        -2.118083075228887E-020
  -5.06000000000000         9.991493444644945E-021
  -4.87000000000000         3.044314242163715E-020
  -4.67999999999999         1.806973406172266E-020
  -4.48999999999999        -1.744277570829098E-020
  -4.30000000000000        -4.350986233377782E-020
  -4.11000000000000        -3.556439442166417E-020
  -3.92000000000000        -4.909744864442177E-022
  -3.73000000000000         2.982676120902563E-020
  -3.53999999999999         2.870860666854743E-020
  -3.34999999999999        -1.634318471677017E-022
  -3.16000000000000        -2.655604929139825E-020
  -2.97000000000000        -2.274848727305084E-020
  -2.78000000000000         9.896259064073326E-021
  -2.59000000000000         4.218466726540052E-020
  -2.40000000000001         4.495110849960992E-020
  -2.20999999999999         1.687424344550402E-020
  -2.02000000000000        -1.438564278975702E-020
  -1.83000000000000        -1.882641452417139E-020
  -1.64000000000000         7.006902734393671E-021
  -1.45000000000000         3.657660691857013E-020
  -1.26000000000001         3.870292688939937E-020
  -1.06999999999999         7.538765388616329E-021
 -0.879999999999995        -3.146322317940422E-020
 -0.689999999999998        -4.538555981470410E-020
 -0.500000000000000        -2.485518583685612E-020
 -0.310000000000002         7.311034006995164E-021
 -0.120000000000005         1.806466918996463E-020
  7.000000000000739E-002   -4.285455392589762E-021
  0.260000000000005        -3.898883742790947E-020
  0.450000000000003        -5.277840772570173E-020
  0.640000000000001        -3.173003639893506E-020
  0.829999999999998         5.338983442320358E-021
   1.02000000000000         2.470653048004125E-020
   1.21000000000001         9.828503014600066E-021
   1.40000000000001        -2.293109330406099E-020
   1.59000000000000        -3.996366335565058E-020
   1.78000000000000        -2.254224253338407E-020
   1.97000000000000         1.525931435038292E-020
   2.16000000000000         3.993545835581540E-020
   2.34999999999999         3.040718204480853E-020
   2.54000000000001        -2.020591966255004E-021
   2.73000000000000        -2.458914486026767E-020
   2.92000000000000        -1.444062119458304E-020
   3.11000000000000         1.952619717834346E-020
   3.30000000000000         4.515239243275108E-020
   3.48999999999999         3.771220056173558E-020
   3.68000000000001         3.418302451216676E-021
   3.87000000000000        -2.671651660968517E-020
   4.06000000000000        -2.668668930074170E-020
   4.25000000000000        -3.678688374721849E-022
   4.44000000000000         2.235969365741648E-020
   4.63000000000000         1.454649591570232E-020
   4.82000000000001        -2.148923524831030E-020
   5.01000000000001        -5.568162344375014E-020
   5.20000000000000        -5.831278289728608E-020
   5.39000000000000        -2.797545863531828E-020
   5.58000000000000         7.263317000071807E-021
   5.77000000000000         1.659784218622092E-020
   5.96000000000001        -4.404301820349524E-021
   6.15000000000001        -3.005078695617736E-020
   6.34000000000000        -2.963572564478297E-020
   6.53000000000000         2.612903444366202E-021