  -105.000000000000         0.000000000000000E+000
  -104.810000000000         5.316339634458043E-021
  -104.620000000000         1.465944734671084E-020
  -104.430000000000         2.588365269183478E-020
  -104.240000000000         3.658843102664754E-020
  -104.050000000000         4.478668764397616E-020
  -103.860000000000         4.944760710103309E-020
  -103.670000000000         5.075808265019968E-020
  -103.480000000000         5.002857685171689E-020
  -103.290000000000         4.927265702505821E-020
  -103.100000000000         5.058420492813990E-020
  -102.910000000000         5.549474048737755E-020
  -102.720000000000         6.449849152806757E-020
  -102.530000000000         7.688354056974027E-020
  -102.340000000000         9.091818028691681E-020
  -102.150000000000         1.043384507160831E-019
  -101.960000000000         1.149954377313291E-019
  -101.770000000000         1.214743896626415E-019
  -101.580000000000         1.235055037743349E-019
  -101.390000000000         1.220462780968553E-019
  -101.200000000000         1.190104617509325E-019
  -101.010000000000         1.167213580341852E-019
  -100.820000000000         1.172475446464142E-019
  -100.630000000000         1.218133553343511E-019
  -100.440000000000         1.304546283092803E-019
  -100.250000000000         1.420187777943827E-019
  -100.060000000000         1.545082343827127E-019
  -99.8700000000000         1.656669162090972E-019
  -99.6800000000000         1.736393571417962E-019
  -99.4900000000000         1.775114541006516E-019
  -99.3000000000000         1.775762673006776E-019
  -99.1100000000000         1.752479470169655E-019
  -98.9200000000000         1.726488260374957E-019
  -98.7300000000000         1.719896465812037E-019
  -98.5400000000000         1.749231870439927E-019
  -98.3500000000000         1.820594586840043E-019
  -98.1600000000000         1.927836653306664E-019
  -97.9700000000000         2.054299382684223E-019
  -97.7800000000000         2.177602879166199E-019
  -97.5900000000000         2.276095245881514E-019
  -97.4000000000000         2.335088712350450E-019
  -97.2100000000000         2.351073953072362E-019
  -97.0200000000000         2.332691505478909E-019
  -96.8300000000000         2.298179474348963E-019
  -96.6400000000000         2.270038480844019E-019
  -96.4500000000000         2.268463303390543E-019
  -96.2600000000000         2.305450890849803E-019
  -96.0700000000000         2.381299708390392E-019
  -95.8800000000000         2.484520339616682E-019
  -95.6900000000000         2.595183745438066E-019
  -95.5000000000000         2.690732050580714E-019
  -95.3100000000000         2.752560336889939E-019
  -95.1200000000000         2.771455191261964E-019
  -94.9300000000000         2.750309473883489E-019
  -94.7400000000000         2.703323745515099E-019
  -94.5500000000000         2.651923135792533E-019
  -94.3600000000000         2.618570519529600E-019
  -94.1700000000000         2.620268460172597E-019
  -93.9800000000000         2.663636173492231E-019
  -93.7900000000000         2.742994553403219E-019
  -93.6000000000000         2.842020991557633E-019
  -93.4100000000000         2.938498202564999E-019
  -93.2200000000000         3.010780373658349E-019
  -93.0300000000000         3.044099991284646E-019
  -92.8400000000000         3.034885778862324E-019
  -92.6500000000000         2.991840760009528E-019
  -92.4600000000000         2.933468763960835E-019
  -92.2700000000000         2.882764097872672E-019
  -92.0800000000000         2.860596712873721E-019
  -91.8900000000000         2.879700363107424E-019
  -91.7000000000000         2.940997636518907E-019
  -91.5100000000000         3.033322843342622E-019
  -91.3200000000000         3.136623232133151E-019
  -91.1300000000000         3.227712287588830E-019
  -90.9400000000000         3.286908086536765E-019
  -90.7500000000000         3.303632289923225E-019
  -90.5600000000000         3.279348289914979E-019
  -90.3700000000000         3.226992562667050E-019
  -90.1800000000000         3.167074513084268E-019
  -89.9900000000000         3.121588486016478E-019
  -89.8000000000000         3.107515536645121E-019
  -89.6100000000000         3.131809577054878E-019
  -89.4200000000000         3.189330619890761E-019
  -89.2300000000000         3.264332479675828E-019
  -89.0400000000000         3.335079970506496E-019
  -88.8500000000000         3.380259415097464E-019
  -88.6600000000000         3.385320906815366E-019
  -88.4700000000000         3.346905607149802E-019
  -88.2800000000000         3.274063994779037E-019
  -88.0900000000000         3.185901189443874E-019
  -87.9000000000000         3.106321365613582E-019
  -87.7100000000000         3.057382080820918E-019
  -87.5200000000000         3.053167890104536E-019
  -87.3300000000000         3.095938132428494E-019
  -87.1400000000000         3.175644057933313E-019
  -86.9500000000000         3.272937546455042E-019
  -86.7600000000000         3.364788014387978E-019
  -86.5700000000000         3.431074943693666E-019
  -86.3800000000000         3.460246733909184E-019
  -86.1900000000000         3.452413175768710E-019
  -86.0000000000000         3.418990116814991E-019
  -85.8100000000000         3.379022930729279E-019
  -85.6200000000000         3.353285108765207E-019
  -85.4300000000000         3.357895025556593E-019
  -85.2400000000000         3.399329219103205E-019
  -85.0500000000000         3.472297474605975E-019
  -84.8600000000000         3.561107004385853E-019
  -84.6700000000000         3.644125393720265E-019
  -84.4800000000000         3.700049511726831E-019
  -84.2900000000000         3.714159731179580E-019
  -84.1000000000000         3.682737038262476E-019
  -83.9100000000000         3.614346711878571E-019
  -83.7200000000000         3.527596956043433E-019
  -83.5300000000000         3.446003977137310E-019
  -83.3400000000000         3.391438736275479E-019
  -83.1500000000000         3.378046936695531E-019
  -82.9600000000000         3.408398963242603E-019
  -82.7700000000000         3.472978941473046E-019
  -82.5800000000000         3.553151603481025E-019
  -82.3900000000000         3.626736418922580E-019
  -82.2000000000000         3.674564121152097E-019
  -82.0100000000000         3.686108732604833E-019
  -81.8200000000000         3.662558590901219E-019
  -81.6300000000000         3.616434277311650E-019
  -81.4400000000000         3.567865243143350E-019
  -81.2500000000000         3.538610163384671E-019
  -81.0600000000000         3.545565682888140E-019
  -80.8700000000000         3.595660709226358E-019
  -80.6800000000000         3.683632296761001E-019
  -80.4900000000000         3.793340669950910E-019
  -80.3000000000000         3.902250644781873E-019
  -80.1100000000000         3.987786141832197E-019
  -79.9200000000000         4.033721069386728E-019
  -79.7300000000000         4.034759351833941E-019
  -79.5400000000000         3.997980392774843E-019
  -79.3500000000000         3.940731806912429E-019
  -79.1600000000000         3.885578025198193E-019
  -78.9700000000000         3.853765967500551E-019
  -78.7800000000000         3.859100809963573E-019
  -78.5900000000000         3.904008592408532E-019
  -78.4000000000000         3.978928524989954E-019
  -78.2100000000000         4.065209020036973E-019
  -78.0200000000000         4.140660551154698E-019
  -77.8300000000000         4.186144401647998E-019
  -77.6400000000000         4.191275014681888E-019
  -77.4500000000000         4.157571433933655E-019
  -77.2600000000000         4.098133522560879E-019
  -77.0700000000000         4.033925874496815E-019
  -76.8800000000000         3.987736274696217E-019
  -76.6900000000000         3.977553869327619E-019
  -76.5000000000000         4.011289137005113E-019
  -76.3100000000000         4.084379229784537E-019
  -76.1200000000000         4.180993312867246E-019
  -75.9300000000000         4.278510267081240E-019
  -75.7400000000000         4.353987968280470E-019
  -75.5500000000000         4.390758957160390E-019
  -75.3600000000000         4.383244916062788E-019
  -75.1700000000000         4.338595668755529E-019
  -74.9800000000000         4.274676783257725E-019
  -74.7900000000000         4.214984468084165E-019
  -74.6000000000000         4.181951317243698E-019
  -74.4100000000000         4.190567402681516E-019
  -74.2200000000000         4.244147262084818E-019
  -74.0300000000000         4.333452645699389E-019
  -73.8400000000000         4.439412323823357E-019
  -73.6500000000000         4.538642608649306E-019
  -73.4600000000000         4.610165041803902E-019
  -73.2700000000000         4.641375260188281E-019
  -73.0800000000000         4.631539522912537E-019
  -72.8900000000000         4.591817816488668E-019
  -72.7000000000000         4.541823463850419E-019
  -72.5100000000000         4.503734069147121E-019
  -72.3200000000000         4.495676462354793E-019
  -72.1300000000000         4.526315781302339E-019
  -71.9400000000000         4.592227668716691E-019
  -71.7500000000000         4.678824868747327E-019
  -71.5600000000000         4.764577795003415E-019
  -71.3700000000000         4.827309965599981E-019
  -71.1800000000000         4.850741431338414E-019
  -70.9900000000000         4.829375119388757E-019
  -70.8000000000000         4.770297751749514E-019
  -70.6100000000000         4.691360847762696E-019
  -70.4200000000000         4.616257045446542E-019
  -70.2300000000000         4.567905730396421E-019
  -70.0400000000000         4.562048621482111E-019
  -69.8500000000000         4.602891738471746E-019
  -69.6600000000000         4.682037229211307E-019
  -69.4700000000000         4.781000314875037E-019
  -69.2800000000000         4.876575886530203E-019
  -69.0900000000000         4.947500957884695E-019
  -68.9000000000000         4.980488236319207E-019
  -68.7100000000000         4.973890895320619E-019
  -68.5200000000000         4.937948141611894E-019
  -68.3300000000000         4.891557069831605E-019
  -68.1400000000000         4.856528697481734E-019
  -67.9500000000000         4.851017920747017E-019
  -67.7600000000000         4.884053303676849E-019
  -67.5700000000000         4.952765380920303E-019
  -67.3800000000000         5.043120602439605E-019
  -67.1900000000000         5.133945874179177E-019
  -67.0000000000000         5.203073331838866E-019
  -66.8100000000000         5.233821431137446E-019
  -66.6200000000000         5.219931423245400E-019
  -66.4300000000000         5.167524255398222E-019
  -66.2400000000000         5.093503487197924E-019
  -66.0500000000000         5.020857713982985E-019
  -65.8600000000000         4.972214333547079E-019
  -65.6700000000000         4.963503728037213E-019
  -65.4800000000000         4.999560265957475E-019
  -65.2900000000000         5.072923111374629E-019
  -65.1000000000000         5.166170359672319E-019
  -64.9100000000000         5.257095738624233E-019
  -64.7200000000000         5.325215740647003E-019
  -64.5300000000000         5.357713830068025E-019
  -64.3400000000000         5.353096076744446E-019
  -64.1500000000000         5.321499813968642E-019
  -63.9600000000000         5.281571177773511E-019
  -63.7700000000000         5.254827169514943E-019
  -63.5800000000000         5.259152417204328E-019
  -63.3900000000000         5.303334687343534E-019
  -63.2000000000000         5.384240986568006E-019
  -63.0100000000000         5.487465855536415E-019
  -62.8200000000000         5.591271227779903E-019
  -62.6300000000000         5.672679817206152E-019
  -62.4400000000000         5.713960342523903E-019
  -62.2500000000000         5.707631809708943E-019
  -62.0600000000000         5.658544249825143E-019
  -61.8700000000000         5.582438455805949E-019
  -61.6800000000000         5.501403974251286E-019
  -61.4900000000000         5.437550970114422E-019
  -61.3000000000000         5.406729054542573E-019
  -61.1100000000000         5.414113378403198E-019
  -60.9200000000000         5.452935950671669E-019
  -60.7300000000000         5.506723527092607E-019
  -60.5400000000000         5.554379736312413E-019
  -60.3500000000000         5.576619293039613E-019
  -60.1600000000000         5.561869976194922E-019
  -59.9700000000000         5.509916794494744E-019
  -59.7800000000000         5.432223144900407E-019
  -59.5900000000000         5.348831086927449E-019
  -59.4000000000000         5.282735629557815E-019
  -59.2100000000000         5.253359903635974E-019
  -59.0200000000000         5.271019598631190E-019
  -58.8300000000000         5.333981094419535E-019
  -58.6400000000000         5.428968763517357E-019
  -58.4500000000000         5.534977673261755E-019
  -58.2600000000000         5.629287898770396E-019
  -58.0700000000000         5.693936381735178E-019
  -57.8800000000000         5.720769798853650E-019
  -57.6900000000000         5.713616460036420E-019
  -57.5000000000000         5.686955354050070E-019
  -57.3100000000000         5.661479985788964E-019
  -57.1200000000000         5.657856243356396E-019
  -56.9300000000000         5.690496287034416E-019
  -56.7400000000000         5.763164467756345E-019
  -56.5500000000000         5.867698696561001E-019
  -56.3600000000000         5.986224677564983E-019
  -56.1700000000000         6.096222848562013E-019
  -55.9800000000000         6.176974891846945E-019
  -55.7900000000000         6.215512265716121E-019
  -55.6000000000000         6.210332797056081E-019
  -55.4100000000000         6.171801613148152E-019
  -55.2200000000000         6.119118738517704E-019
  -55.0300000000000         6.074734067915621E-019
  -54.8400000000000         6.057830280826602E-019
  -54.6500000000000         6.078762897707046E-019
  -54.4600000000000         6.136069069967781E-019
  -54.2700000000000         6.216914240306861E-019
  -54.0800000000000         6.300851938602308E-019
  -53.8900000000000         6.365811837565641E-019
  -53.7000000000000         6.394581505158724E-019
  -53.5100000000000         6.379898032035847E-019
  -53.3200000000000         6.326664274263905E-019
  -53.1300000000000         6.250638332949071E-019
  -52.9400000000000         6.173971495445263E-019
  -52.7500000000000         6.118887966440831E-019
  -52.5600000000000         6.101340225587584E-019
  -52.3700000000000         6.126479743974420E-019
  -52.1800000000000         6.187254191194972E-019
  -51.9900000000000         6.266534686538149E-019
  -51.8000000000000         6.342153895667410E-019
  -51.6100000000000         6.393392630330486E-019
  -51.4200000000000         6.407031340059386E-019
  -51.2300000000000         6.381205973601754E-019
  -51.0400000000000         6.325942396562121E-019
  -50.8500000000000         6.260208428439603E-019
  -50.6600000000000         6.206337742029327E-019
  -50.4700000000000         6.183448534307888E-019
  -50.2800000000000         6.201776016762966E-019
  -50.0900000000000         6.259573678940290E-019
  -49.9000000000000         6.343491449980155E-019
  -49.7100000000000         6.432328711553773E-019
  -49.5200000000000         6.503081229281125E-019
  -49.3300000000000         6.537536283024485E-019
  -49.1400000000000         6.527510439569268E-019
  -48.9500000000000         6.477215477176084E-019
  -48.7600000000000         6.402067656631500E-019
  -48.5700000000000         6.324284506658140E-019
  -48.3800000000000         6.266543692863146E-019
  -48.1900000000000         6.245539922909130E-019
  -48.0000000000000         6.267303950904587E-019
  -47.8100000000000         6.325633913597515E-019
  -47.6200000000000         6.404084085123799E-019
  -47.4300000000000         6.480924180606715E-019
  -47.2400000000000         6.535622601420227E-019
  -47.0500000000000         6.554966501339159E-019
  -46.8600000000000         6.537036138169485E-019
  -46.6700000000000         6.491870602729468E-019
  -46.4800000000000         6.438619331332468E-019
  -46.2900000000000         6.399994281062706E-019
  -46.1000000000000         6.395626650595048E-019
  -45.9100000000000         6.436258190954909E-019
  -45.7200000000000         6.520461039999063E-019
  -45.5300000000000         6.634847468702417E-019
  -45.3400000000000         6.757716191108814E-019
  -45.1500000000000         6.865083227774874E-019
  -44.9600000000000         6.937355035037341E-019
  -44.7700000000000         6.964719670875486E-019
  -44.5800000000000         6.949708079641577E-019
  -44.3900000000000         6.906199639024071E-019
  -44.2000000000000         6.855174746185514E-019
  -44.0100000000000         6.818456850093777E-019
  -43.8200000000000         6.812267621997810E-019
  -43.6300000000000         6.842473410189050E-019
  -43.4400000000000         6.902910243299614E-019
  -43.2500000000000         6.977278172858037E-019
  -43.0600000000000         7.044053266441671E-019
  -42.8700000000000         7.082981596710241E-019
  -42.6800000000000         7.081254068577364E-019
  -42.4900000000000         7.037551153192622E-019
  -42.3000000000000         6.962765283051538E-019
  -42.1100000000000         6.877173401586979E-019
  -41.9200000000000         6.804861726871384E-019
  -41.7300000000000         6.767001686361020E-019
  -41.5400000000000         6.775910864248377E-019
  -41.3500000000000         6.831609357075788E-019
  -41.1600000000000         6.921864401867969E-019
  -40.9700000000000         7.025710816308814E-019
  -40.7800000000000         7.119431375725827E-019
  -40.5900000000000         7.183270737800850E-019
  -40.4000000000000         7.206946580011814E-019
  -40.2100000000000         7.192373754224786E-019
  -40.0200000000000         7.152828013435440E-019
  -39.8300000000000         7.108808886303002E-019
  -39.6400000000000         7.081817553564028E-019
  -39.4500000000000         7.087869198720305E-019
  -39.2600000000000         7.132636022000055E-019
  -39.0700000000000         7.209644304254834E-019
  -38.8800000000000         7.302061747994048E-019
  -38.6900000000000         7.387564402227201E-019
  -38.5000000000000         7.444869048136753E-019
  -38.3100000000000         7.460022738753351E-019
  -38.1200000000000         7.430604611539441E-019
  -37.9300000000000         7.366599760566787E-019
  -37.7400000000000         7.287673722809856E-019
  -37.5500000000000         7.217624751095169E-019
  -37.3600000000000         7.177612856539356E-019
  -37.1700000000000         7.180121068977638E-019
  -36.9800000000000         7.225394637092230E-019
  -36.7900000000000         7.301391432785611E-019
  -36.6000000000000         7.387267225458173E-019
  -36.4100000000000         7.459401039171432E-019
  -36.2200000000000         7.498230235394918E-019
  -36.0300000000000         7.493925806216511E-019
  -35.8400000000000         7.449267958573191E-019
  -35.6500000000000         7.378888191845688E-019
  -35.4600000000000         7.305094798183402E-019
  -35.2700000000000         7.251488418848263E-019
  -35.0800000000000         7.236213219033312E-019
  -34.8900000000000         7.266791053761758E-019
  -34.7000000000000         7.338023579093157E-019
  -34.5100000000000         7.433557863495114E-019
  -34.3200000000000         7.530653051254602E-019
  -34.1300000000000         7.606763660750896E-019
  -33.9400000000000         7.646033713630234E-019
  -33.7500000000000         7.643824163211103E-019
  -33.5600000000000         7.607965538296016E-019
  -33.3700000000000         7.556375305585186E-019
  -33.1800000000000         7.511732850993064E-019
  -32.9900000000000         7.494758801933416E-019
  -32.8000000000000         7.518050466087609E-019
  -32.6100000000000         7.582263677646768E-019
  -32.4200000000000         7.675751559854345E-019
  -32.2300000000000         7.777770687627016E-019
  -32.0400000000000         7.864334198885976E-019
  -31.8500000000000         7.915026876477012E-019
  -31.6600000000000         7.918818879282934E-019
  -31.4700000000000         7.877202355250093E-019
  -31.2800000000000         7.803746732640688E-019
  -31.0900000000000         7.720203354088228E-019
  -30.9000000000000         7.650289299545409E-019
  -30.7100000000000         7.612951945654519E-019
  -30.5200000000000         7.617062849676252E-019
  -30.3300000000000         7.659069267952707E-019
  -30.1400000000000         7.724268197207386E-019
  -29.9500000000000         7.791314894956798E-019
  -29.7600000000000         7.838643022808563E-019
  -29.5700000000000         7.850926779504321E-019
  -29.3800000000000         7.823710416055528E-019
  -29.1900000000000         7.764864469069937E-019
  -29.0000000000000         7.692446095153102E-019
  -28.8100000000000         7.629580072097084E-019
  -28.6200000000000         7.597838786937045E-019
  -28.4300000000000         7.611034649694440E-019
  -28.2400000000000         7.671219627361399E-019
  -28.0500000000000         7.768046520075933E-019
  -27.8600000000000         7.881670192051574E-019
  -27.6700000000000         7.988339901588360E-019
  -27.4800000000000         8.067057603242707E-019
  -27.2900000000000         8.105377080592833E-019
  -27.1000000000000         8.102678469176906E-019
  -26.9100000000000         8.069992944939929E-019
  -26.7200000000000         8.026456599063954E-019
  -26.5300000000000         7.993449491295462E-019
  -26.3400000000000         7.988143477811246E-019
  -26.1500000000000         8.018348888881202E-019
  -25.9600000000000         8.080167670280877E-019
  -25.7700000000000         8.159138802267538E-019
  -25.5800000000000         8.234538894182820E-019
  -25.3900000000000         8.285576392497689E-019
  -25.2000000000000         8.297663177226604E-019
  -25.0100000000000         8.266923809767422E-019
  -24.8200000000000         8.201615492006228E-019
  -24.6300000000000         8.120030256531217E-019
  -24.4400000000000         8.045472959958929E-019
  -24.2500000000000         7.999757601792252E-019
  -24.0600000000000         7.997095616016358E-019
  -23.8700000000000         8.040139237642942E-019
  -23.6800000000000         8.119321379980244E-019
  -23.4900000000000         8.215678461473145E-019
  -23.3000000000000         8.306331484143553E-019
  -23.1100000000000         8.371029680708005E-019
  -22.9200000000000         8.397856600289083E-019
  -22.7300000000000         8.386449535335401E-019
  -22.5400000000000         8.347815134321541E-019
  -22.3500000000000         8.300820580830547E-019
  -22.1600000000000         8.266407724611760E-019
  -21.9700000000000         8.261235810308395E-019
  -21.7800000000000         8.292619375935927E-019
  -21.5900000000000         8.356247599010350E-019
  -21.4000000000000         8.437359678397191E-019
  -21.2100000000000         8.515041403779678E-019
  -21.0200000000000         8.568393212576500E-019
  -20.8300000000000         8.582766507455937E-019
  -20.6400000000000         8.554236454921008E-019
  -20.4500000000000         8.490987904121874E-019
  -20.2600000000000         8.411190061488790E-019
  -20.0700000000000         8.337960949139988E-019
  -19.8800000000000         8.292872326065059E-019
  -19.6900000000000         8.289871623807395E-019
  -19.5000000000000         8.331377586924669E-019
  -19.3100000000000         8.407677404546933E-019
  -19.1200000000000         8.499798423616974E-019
  -18.9300000000000         8.585023395165309E-019
  -18.7400000000000         8.643453847031686E-019
  -18.5500000000000         8.663721677062839E-019
  -18.3600000000000         8.646194083911662E-019
  -18.1700000000000         8.602743621314954E-019
  -17.9800000000000         8.553153846024815E-019
  -17.7900000000000         8.519210252380653E-019
  -17.6000000000000         8.518199869165211E-019
  -17.4100000000000         8.557714920097175E-019
  -17.2200000000000         8.633276582201716E-019
  -17.0300000000000         8.729475145307400E-019
  -16.8400000000000         8.824301939985422E-019
  -16.6500000000000         8.895422160118678E-019
  -16.4600000000000         8.926572763983407E-019
  -16.2700000000000         8.912229246804822E-019
  -16.0800000000000         8.859183494685054E-019
  -15.8900000000000         8.784570310005436E-019
  -15.7000000000000         8.710912767978389E-019
  -15.5100000000000         8.659624742867018E-019
  -15.3200000000000         8.644858586537110E-019
  -15.1300000000000         8.669484848248809E-019
  -14.9400000000000         8.724368649021548E-019
  -14.7500000000000         8.791147404894671E-019
  -14.5600000000000         8.847698265045445E-019
  -14.3700000000000         8.874704627006306E-019
  -14.1800000000000         8.861412069211963E-019
  -13.9900000000000         8.808896546654785E-019
  -13.8000000000000         8.729886487322579E-019
  -13.6100000000000         8.645179817092056E-019
  -13.4200000000000         8.577688698650295E-019
  -13.2300000000000         8.545840780459691E-019
  -13.0400000000000         8.558260566854231E-019
  -12.8500000000000         8.611286797626527E-019
  -12.6600000000000         8.690056686979144E-019
  -12.4700000000000         8.772848124628484E-019
  -12.2800000000000         8.837422013671554E-019
  -12.0900000000000         8.867525095782490E-019
  -11.9000000000000         8.857666470233291E-019
  -11.7100000000000         8.814780542564470E-019
  -11.5200000000000         8.756289204774583E-019
  -11.3300000000000         8.705116259499530E-019
  -11.1400000000000         8.683088645857589E-019
  -10.9500000000000         8.704628142401837E-019
  -10.7600000000000         8.772556104493588E-019
  -10.5700000000000         8.877222948546122E-019
  -10.3800000000000         8.999210196636574E-019
  -10.1900000000000         9.114817214764606E-019
  -10.0000000000000         9.202739173805629E-019
  -9.81000000000000         9.250001519328334E-019
  -9.62000000000000         9.255437989395690E-019
  -9.42999999999999         9.229717578481818E-019
  -9.23999999999999         9.191930082787210E-019
  -9.05000000000000         9.163739028782863E-019
  -8.86000000000000         9.162817476282738E-019
  -8.67000000000000         9.197491953675405E-019
  -8.48000000000000         9.264169462510706E-019
  -8.28999999999999         9.348311512680960E-019
  -8.09999999999999         9.428682560634175E-019
  -7.91000000000000         9.483639993065677E-019
  -7.72000000000000         9.497630017141563E-019
  -7.53000000000000         9.465986378735998E-019
  -7.34000000000000         9.396617130610603E-019
  -7.15000000000001         9.308064964375273E-019
  -6.95999999999999         9.224476277500632E-019
  -6.77000000000000         9.168910406244737E-019
  -6.58000000000000         9.156905742273081E-019
  -6.39000000000000         9.192152889836566E-019
  -6.20000000000000         9.265523616029067E-019
  -6.01000000000001         9.357739604720941E-019
  -5.81999999999999         9.444914154414429E-019
  -5.63000000000000         9.505367428049399E-019
  -5.44000000000000         9.525746371558578E-019
  -5.25000000000000         9.504684810748034E-019
  -5.06000000000000         9.452957896910943E-019
  -4.87000000000000         9.390105864265292E-019
  -4.67999999999999         9.338526216862899E-019
  -4.48999999999999         9.316764093602467E-019
  -4.30000000000000         9.333957742747701E-019
  -4.11000000000000         9.387056768597839E-019
  -3.92000000000000         9.461625621038328E-019
  -3.73000000000000         9.536005927258765E-019
  -3.53999999999999         9.587636063581607E-019
  -3.34999999999999         9.599695820900111E-019
  -3.16000000000000         9.566143331138183E-019
  -2.97000000000000         9.493672908341735E-019
  -2.78000000000000         9.400013154255537E-019
  -2.59000000000000         9.309045649256269E-019
  -2.40000000000001         9.244147033616148E-019
  -2.20999999999999         9.221672334773942E-019
  -2.02000000000000         9.246455427211647E-019
  -1.83000000000000         9.310617832175166E-019
  -1.64000000000000         9.396020974169953E-019
  -1.45000000000000         9.479645065083215E-019
  -1.26000000000001         9.540331918128628E-019
  -1.06999999999999         9.564933901772723E-019
 -0.879999999999995         9.552083346921210E-019
 -0.689999999999998         9.512487901845898E-019
 -0.500000000000000         9.465668099896743E-019
 -0.310000000000002         9.434090458401367E-019
 -0.120000000000005         9.436409775020964E-019
  7.000000000000739E-002    9.481794644065968E-019
  0.260000000000005         9.566995201901179E-019
  0.450000000000003         9.677015885907054E-019
  0.640000000000001         9.789210889015556E-019
  0.829999999999998         9.879627700765395E-019
   1.02000000000000         9.929770754486830E-019
   1.21000000000001         9.931831931737933E-019
   1.40000000000001         9.890874504035818E-019
   1.59000000000000         9.823336258654215E-019
   1.78000000000000         9.752283385349049E-019
   1.97000000000000         9.700789843295083E-019
   2.16000000000000         9.685360204438146E-019
   2.34999999999999         9.711297085910432E-019
   2.54000000000001         9.771343912450318E-019
   2.73000000000000         9.847979344329636E-019
   2.92000000000000         9.918680479435174E-019
   3.11000000000000         9.962615096589766E-019
   3.30000000000000         9.966815225622915E-019
   3.48999999999999         9.930039805188995E-019
   3.68000000000001         9.863205430830568E-019
   3.87000000000000         9.786258277946746E-019
   4.06000000000000         9.722393005406981E-019
   4.25000000000000         9.691297628696355E-019
   4.44000000000000         9.703390520748009E-019
   4.63000000000000         9.756731162399635E-019
   4.82000000000001         9.837511600125552E-019
   5.01000000000001         9.923995462807618E-019
   5.20000000000000         9.992768858050959E-019
   5.39000000000000         1.002549543507569E-018
   5.58000000000000         1.001422130568721E-018
   5.77000000000000         9.963694278716531E-019
   5.96000000000001         9.890023348488306E-019
   6.15000000000001         9.816061132652381E-019
   6.34000000000000         9.764840258308928E-019
   6.53000000000000         9.752959672787454E-019