  -105.000000000000         0.000000000000000E+000
  -104.810000000000         2.585896692315937E-020
  -104.620000000000         7.130435439651733E-020
  -104.430000000000         1.258995042817592E-019
  -104.240000000000         1.779681335232338E-019
  -104.050000000000         2.178449046117008E-019
  -103.860000000000         2.405158744435059E-019
  -103.670000000000         2.468901015165162E-019
  -103.480000000000         2.433417469653196E-019
  -103.290000000000         2.396649121069370E-019
  -103.100000000000         2.460443523304391E-019
  -102.910000000000         2.699294646836309E-019
  -102.720000000000         3.137242010799480E-019
  -102.530000000000         3.739657566630145E-019
  -102.340000000000         4.422310123736543E-019
  -102.150000000000         5.075079427728652E-019
  -101.960000000000         5.593441120242768E-019
  -101.770000000000         5.908580905087934E-019
  -101.580000000000         6.007375410586899E-019
  -101.390000000000         5.936397840467297E-019
  -101.200000000000         5.788734023417839E-019
  -101.010000000000         5.677390789318421E-019
  -100.820000000000         5.702984933762612E-019
  -100.630000000000         5.925068589884466E-019
  -100.440000000000         6.345384668229246E-019
  -100.250000000000         6.907870566969549E-019
  -100.060000000000         7.515363581435856E-019
  -99.8700000000000         8.058127324150936E-019
  -99.6800000000000         8.445911912111540E-019
  -99.4900000000000         8.634255594495128E-019
  -99.3000000000000         8.637412498812167E-019
  -99.1100000000000         8.524165420001462E-019
  -98.9200000000000         8.397742356178372E-019
  -98.7300000000000         8.365672232220303E-019
  -98.5400000000000         8.508347203993023E-019
  -98.3500000000000         8.855443064340803E-019
  -98.1600000000000         9.377064414549866E-019
  -97.9700000000000         9.992192467569887E-019
  -97.7800000000000         1.059197655707919E-018
  -97.5900000000000         1.107109807380031E-018
  -97.4000000000000         1.135810043288299E-018
  -97.2100000000000         1.143588964902318E-018
  -97.0200000000000         1.134646659703608E-018
  -96.8300000000000         1.117852361269624E-018
  -96.6400000000000         1.104150629545974E-018
  -96.4500000000000         1.103367253610520E-018
  -96.2600000000000         1.121343276356668E-018
  -96.0700000000000         1.158231015866571E-018
  -95.8800000000000         1.208448279947504E-018
  -95.6900000000000         1.262304186553643E-018
  -95.5000000000000         1.308823230551154E-018
  -95.3100000000000         1.338945887248011E-018
  -95.1200000000000         1.348175418201960E-018
  -94.9300000000000         1.337902190554516E-018
  -94.7400000000000         1.315020654642182E-018
  -94.5500000000000         1.289948632967853E-018
  -94.3600000000000         1.273621315736587E-018
  -94.1700000000000         1.274330241661267E-018
  -93.9800000000000         1.295324304131213E-018
  -93.7900000000000         1.333870839112494E-018
  -93.6000000000000         1.382052218538684E-018
  -93.4100000000000         1.429069128352996E-018
  -93.2200000000000         1.464382982277530E-018
  -93.0300000000000         1.480785461751851E-018
  -92.8400000000000         1.476504557288771E-018
  -92.6500000000000         1.455736756946670E-018
  -92.4600000000000         1.427451534336060E-018
  -92.2700000000000         1.402813990162181E-018
  -92.0800000000000         1.391970140344706E-018
  -91.8900000000000         1.401122756940746E-018
  -91.7000000000000         1.430741707291569E-018
  -91.5100000000000         1.475425466280196E-018
  -91.3200000000000         1.525453419913153E-018
  -91.1300000000000         1.569578907921362E-018
  -90.9400000000000         1.598252818067016E-018
  -90.7500000000000         1.606342598132933E-018
  -90.5600000000000         1.594559047990569E-018
  -90.3700000000000         1.569180285067793E-018
  -90.1800000000000         1.540158341545967E-018
  -89.9900000000000         1.518163890917118E-018
  -89.8000000000000         1.511432079854104E-018
  -89.6100000000000         1.523329081176905E-018
  -89.4200000000000         1.551349388561498E-018
  -89.2300000000000         1.587838868162432E-018
  -89.0400000000000         1.622237573120881E-018
  -88.8500000000000         1.644193780027349E-018
  -88.6600000000000         1.646645176404951E-018
  -88.4700000000000         1.627969811622969E-018
  -88.2800000000000         1.592577418897714E-018
  -88.0900000000000         1.549763454726108E-018
  -87.9000000000000         1.511151861002796E-018
  -87.7100000000000         1.487461087423325E-018
  -87.5200000000000         1.485522746785068E-018
  -87.3300000000000         1.506407922041807E-018
  -87.1400000000000         1.545195336907080E-018
  -86.9500000000000         1.592441599677280E-018
  -86.7600000000000         1.636923126403460E-018
  -86.5700000000000         1.668853296349076E-018
  -86.3800000000000         1.682642634228103E-018
  -86.1900000000000         1.678404333092627E-018
  -86.0000000000000         1.661774187908924E-018
  -85.8100000000000         1.642106750683181E-018
  -85.6200000000000         1.629584019843042E-018
  -85.4300000000000         1.632089777724455E-018
  -85.2400000000000         1.652769150508114E-018
  -85.0500000000000         1.688990783718960E-018
  -84.8600000000000         1.733018643953629E-018
  -84.6700000000000         1.774202067069466E-018
  -84.4800000000000         1.802050635451256E-018
  -84.2900000000000         1.809301926856663E-018
  -84.1000000000000         1.794089429503023E-018
  -83.9100000000000         1.760575754485957E-018
  -83.7200000000000         1.717859352258462E-018
  -83.5300000000000         1.677463661793674E-018
  -83.3400000000000         1.650130247180452E-018
  -83.1500000000000         1.642840860261130E-018
  -82.9600000000000         1.656927344242407E-018
  -82.7700000000000         1.687811987579296E-018
  -82.5800000000000         1.726447137433569E-018
  -82.3900000000000         1.762030239965021E-018
  -82.2000000000000         1.785202228819460E-018
  -82.0100000000000         1.790799312871901E-018
  -81.8200000000000         1.779359569085265E-018
  -81.6300000000000         1.756947921729563E-018
  -81.4400000000000         1.733351712765901E-018
  -81.2500000000000         1.719173151576623E-018
  -81.0600000000000         1.722666868140585E-018
  -80.8700000000000         1.747246267937652E-018
  -80.6800000000000         1.790388562404399E-018
  -80.4900000000000         1.844261432392283E-018
  -80.3000000000000         1.897893385824766E-018
  -80.1100000000000         1.940261499250393E-018
  -79.9200000000000         1.963404562469523E-018
  -79.7300000000000         1.964662653005405E-018
  -79.5400000000000         1.947396764825314E-018
  -79.3500000000000         1.919981026181551E-018
  -79.1600000000000         1.893359030189040E-018
  -78.9700000000000         1.877871309003812E-018
  -78.7800000000000         1.880272759347127E-018
  -78.5900000000000         1.901804557497592E-018
  -78.4000000000000         1.937879232471872E-018
  -78.2100000000000         1.979468350639838E-018
  -78.0200000000000         2.015786679751477E-018
  -77.8300000000000         2.037489866001548E-018
  -77.6400000000000         2.039454385258033E-018
  -77.4500000000000         2.022330987140437E-018
  -77.2600000000000         1.992419111350847E-018
  -77.0700000000000         1.959895782320324E-018
  -76.8800000000000         1.935908054004209E-018
  -76.6900000000000         1.929366993682860E-018
  -76.5000000000000         1.944369356575892E-018
  -76.3100000000000         1.978994555246693E-018
  -76.1200000000000         2.025829276958764E-018
  -75.9300000000000         2.074073167979418E-018
  -75.7400000000000         2.112620843136196E-018
  -75.5500000000000         2.133231893670882E-018
  -75.3600000000000         2.132874782711409E-018
  -75.1700000000000         2.114570128729452E-018
  -74.9800000000000         2.086493612995634E-018
  -74.7900000000000         2.059601706443985E-018
  -74.6000000000000         2.044468848363126E-018
  -74.4100000000000         2.048250368160395E-018
  -74.2200000000000         2.072647004692698E-018
  -74.0300000000000         2.113455649050432E-018
  -73.8400000000000         2.161830671722420E-018
  -73.6500000000000         2.206883731861134E-018
  -73.4600000000000         2.238861422802669E-018
  -73.2700000000000         2.251973021718426E-018
  -73.0800000000000         2.246044245032108E-018
  -72.8900000000000         2.226517060946005E-018
  -72.7000000000000         2.202799197500274E-018
  -72.5100000000000         2.185448332214418E-018
  -72.3200000000000         2.183015078051045E-018
  -72.1300000000000         2.199468223843083E-018
  -71.9400000000000         2.232957323830985E-018
  -71.7500000000000         2.276280449377544E-018
  -71.5600000000000         2.318930063239457E-018
  -71.3700000000000         2.350130093306455E-018
  -71.1800000000000         2.361985824493660E-018
  -70.9900000000000         2.351831140771636E-018
  -70.8000000000000         2.323087487764549E-018
  -70.6100000000000         2.284379711365683E-018
  -70.4200000000000         2.247159723511873E-018
  -70.2300000000000         2.222521385643153E-018
  -70.0400000000000         2.218122855609253E-018
  -69.8500000000000         2.236099084943278E-018
  -69.6600000000000         2.272558493843853E-018
  -69.4700000000000         2.318798979309593E-018
  -69.2800000000000         2.363882236648615E-018
  -69.0900000000000         2.397814516828891E-018
  -68.9000000000000         2.414408679551552E-018
  -68.7100000000000         2.412997182404735E-018
  -68.5200000000000         2.398502082339425E-018
  -68.3300000000000         2.379849227315905E-018
  -68.1400000000000         2.367199204317338E-018
  -67.9500000000000         2.368814666750624E-018
  -67.7600000000000         2.388490169413478E-018
  -67.5700000000000         2.424305469342911E-018
  -67.3800000000000         2.469075455389194E-018
  -67.1900000000000         2.512373438762058E-018
  -67.0000000000000         2.543544182857519E-018
  -66.8100000000000         2.554832080619608E-018
  -66.6200000000000         2.543712437195441E-018
  -66.4300000000000         2.513741225913966E-018
  -66.2400000000000         2.473666003228680E-018
  -66.0500000000000         2.435044628860579E-018
  -65.8600000000000         2.409052568759095E-018
  -65.6700000000000         2.403396731497920E-018
  -65.4800000000000         2.420223926156406E-018
  -65.2900000000000         2.455623510384369E-018
  -65.1000000000000         2.500861309346020E-018
  -64.9100000000000         2.544980864604910E-018
  -64.7200000000000         2.578014082055859E-018
  -64.5300000000000         2.593869604805011E-018
  -64.3400000000000         2.592062774969542E-018
  -64.1500000000000         2.577787695095843E-018
  -63.9600000000000         2.560312774493714E-018
  -63.7700000000000         2.550168002705602E-018
  -63.5800000000000         2.555944313449588E-018
  -63.3900000000000         2.581639881963135E-018
  -63.2000000000000         2.625330585028082E-018
  -63.0100000000000         2.679557485768736E-018
  -62.8200000000000         2.733325451912069E-018
  -62.6300000000000         2.775139707725289E-018
  -62.4400000000000         2.796207050574560E-018
  -62.2500000000000         2.792881735238992E-018
  -62.0600000000000         2.767654833160826E-018
  -61.8700000000000         2.728406065134801E-018
  -61.6800000000000         2.686137450381039E-018
  -61.4900000000000         2.651845002303055E-018
  -61.3000000000000         2.633432506111990E-018
  -61.1100000000000         2.633558033402286E-018
  -60.9200000000000         2.649032061490378E-018
  -60.7300000000000         2.671933996796444E-018
  -60.5400000000000         2.692113150857056E-018
  -60.3500000000000         2.700337321741814E-018
  -60.1600000000000         2.691164930824170E-018
  -59.9700000000000         2.664699142613961E-018
  -59.7800000000000         2.626709139019782E-018
  -59.5900000000000         2.587078589455460E-018
  -59.4000000000000         2.557026688747202E-018
  -59.2100000000000         2.545903546970723E-018
  -59.0200000000000         2.558487094084317E-018
  -58.8300000000000         2.593566557315053E-018
  -58.6400000000000         2.644227912548380E-018
  -58.4500000000000         2.699765380657961E-018
  -58.2600000000000         2.748672211665979E-018
  -58.0700000000000         2.781851064717971E-018
  -57.8800000000000         2.795121106117264E-018
  -57.6900000000000         2.790303976880028E-018
  -57.5000000000000         2.774583446341888E-018
  -57.3100000000000         2.758332828761022E-018
  -57.1200000000000         2.752044987944828E-018
  -56.9300000000000         2.763255209771650E-018
  -56.7400000000000         2.794344912189329E-018
  -56.5500000000000         2.841855864678812E-018
  -56.3600000000000         2.897505255010449E-018
  -56.1700000000000         2.950598308749092E-018
  -55.9800000000000         2.991129995987979E-018
  -55.7900000000000         3.012668628361855E-018
  -55.6000000000000         3.014180249360928E-018
  -55.4100000000000         3.000264361531608E-018
  -55.2200000000000         2.979737015873576E-018
  -55.0300000000000         2.962980014913948E-018
  -54.8400000000000         2.958834229444622E-018
  -54.6500000000000         2.971947102971524E-018
  -54.4600000000000         3.001352072132889E-018
  -54.2700000000000         3.040699807487782E-018
  -54.0800000000000         3.080081144978365E-018
  -53.8900000000000         3.108917566825225E-018
  -53.7000000000000         3.119081487292779E-018
  -53.5100000000000         3.107337547518658E-018
  -53.3200000000000         3.076389976832436E-018
  -53.1300000000000         3.034224522694197E-018
  -52.9400000000000         2.991928892319037E-018
  -52.7500000000000         2.960617835410067E-018
  -52.5600000000000         2.948348408592366E-018
  -52.3700000000000         2.957912470115424E-018
  -52.1800000000000         2.986138065208360E-018
  -51.9900000000000         3.024894566418696E-018
  -51.8000000000000         3.063504892829243E-018
  -51.6100000000000         3.091862994854718E-018
  -51.4200000000000         3.103352166085473E-018
  -51.2300000000000         3.096718276546853E-018
  -51.0400000000000         3.076355843215835E-018
  -50.8500000000000         3.050927059404001E-018
  -50.6600000000000         3.030720571045483E-018
  -50.4700000000000         3.024525555403539E-018
  -50.2800000000000         3.036939002925868E-018
  -50.0900000000000         3.066898164896981E-018
  -49.9000000000000         3.107873183810349E-018
  -49.7100000000000         3.149671616620533E-018
  -49.5200000000000         3.181337488161676E-018
  -49.3300000000000         3.194308306605583E-018
  -49.1400000000000         3.184916131397483E-018
  -48.9500000000000         3.155505717390444E-018
  -48.7600000000000         3.113840563371697E-018
  -48.5700000000000         3.070962163968949E-018
  -48.3800000000000         3.038116018870179E-018
  -48.1900000000000         3.023629322187457E-018
  -48.0000000000000         3.030639821921198E-018
  -47.8100000000000         3.056328328052844E-018
  -47.6200000000000         3.092870936136711E-018
  -47.4300000000000         3.129828694383384E-018
  -47.2400000000000         3.157276927518699E-018
  -47.0500000000000         3.168763414018125E-018
  -46.8600000000000         3.163234662352550E-018
  -46.6700000000000         3.145367820717511E-018
  -46.4800000000000         3.124207017915202E-018
  -46.2900000000000         3.110495276991886E-018
  -46.1000000000000         3.113474523153213E-018
  -45.9100000000000         3.138084856171322E-018
  -45.7200000000000         3.183382120171262E-018
  -45.5300000000000         3.242641134915459E-018
  -45.3400000000000         3.305123043364220E-018
  -45.1500000000000         3.359002244302663E-018
  -44.9600000000000         3.394612576474476E-018
  -44.7700000000000         3.407081111502180E-018
  -44.5800000000000         3.397596273031624E-018
  -44.3900000000000         3.372952006684036E-018
  -44.2000000000000         3.343506773262284E-018
  -44.0100000000000         3.320152274401322E-018
  -43.8200000000000         3.311171114401949E-018
  -43.6300000000000         3.319893055099203E-018
  -43.4400000000000         3.343826624753088E-018
  -43.2500000000000         3.375513057189220E-018
  -43.0600000000000         3.404847185765510E-018
  -42.8700000000000         3.422181696441187E-018
  -42.6800000000000         3.421302772973196E-018
  -42.4900000000000         3.401403445290791E-018
  -42.3000000000000         3.367473900384381E-018
  -42.1100000000000         3.328989325780364E-018
  -41.9200000000000         3.297271125171706E-018
  -41.7300000000000         3.282283274462531E-018
  -41.5400000000000         3.289790851672939E-018
  -41.3500000000000         3.319704521875020E-018
  -41.1600000000000         3.366092287473960E-018
  -40.9700000000000         3.418856746822363E-018
  -40.7800000000000         3.466592734788390E-018
  -40.5900000000000         3.499797905261669E-018
  -40.4000000000000         3.513507887737494E-018
  -40.2100000000000         3.508597227809398E-018
  -40.0200000000000         3.491376962864037E-018
  -39.8300000000000         3.471615037056100E-018
  -39.6400000000000         3.459562672137755E-018
  -39.4500000000000         3.462856420548059E-018
  -39.2600000000000         3.484200059210171E-018
  -39.0700000000000         3.520503450150368E-018
  -38.8800000000000         3.563732237967199E-018
  -38.6900000000000         3.603224257665190E-018
  -38.5000000000000         3.628799809461579E-018
  -38.3100000000000         3.633759041342270E-018
  -38.1200000000000         3.616890324291659E-018
  -37.9300000000000         3.582900894139466E-018
  -37.7400000000000         3.541141096600328E-018
  -37.5500000000000         3.502990782394988E-018
  -37.3600000000000         3.478664692968576E-018
  -37.1700000000000         3.474360378087040E-018
  -36.9800000000000         3.490570647417944E-018
  -36.7900000000000         3.522043994161240E-018
  -36.6000000000000         3.559399330446177E-018
  -36.4100000000000         3.591923064851104E-018
  -36.2200000000000         3.610734621677300E-018
  -36.0300000000000         3.611399885322702E-018
  -35.8400000000000         3.595232399974468E-018
  -35.6500000000000         3.568903924237624E-018
  -35.4600000000000         3.542478606077869E-018
  -35.2700000000000         3.526444760126682E-018
  -35.0800000000000         3.528610348875184E-018
  -34.8900000000000         3.551767605701266E-018
  -34.7000000000000         3.592808062047844E-018
  -34.5100000000000         3.643547606249908E-018
  -34.3200000000000         3.693024914504395E-018
  -34.1300000000000         3.730609329419547E-018
  -33.9400000000000         3.749019235199293E-018
  -33.7500000000000         3.746376973058517E-018
  -33.5600000000000         3.726704611064720E-018
  -33.3700000000000         3.698716664442595E-018
  -33.1800000000000         3.673260331905211E-018
  -32.9900000000000         3.660146640044711E-018
  -32.8000000000000         3.665292118483524E-018
  -32.6100000000000         3.688999208789044E-018
  -32.4200000000000         3.725872171665521E-018
  -32.2300000000000         3.766391061791655E-018
  -32.0400000000000         3.799687032740267E-018
  -31.8500000000000         3.816715661561840E-018
  -31.6600000000000         3.812910058545829E-018
  -31.4700000000000         3.789545011428707E-018
  -31.2800000000000         3.753415045995708E-018
  -31.0900000000000         3.714917002150747E-018
  -30.9000000000000         3.685090793760640E-018
  -30.7100000000000         3.672475371684528E-018
  -30.5200000000000         3.680691162840363E-018
  -30.3300000000000         3.707448823426940E-018
  -30.1400000000000         3.745268749757351E-018
  -29.9500000000000         3.783698418544749E-018
  -29.7600000000000         3.812380915758671E-018
  -29.5700000000000         3.824083601212928E-018
  -29.3800000000000         3.816809939348446E-018
  -29.1900000000000         3.794384340732589E-018
  -29.0000000000000         3.765341779130413E-018
  -28.8100000000000         3.740443957481622E-018
  -28.6200000000000         3.729541195542616E-018
  -28.4300000000000         3.738689310310232E-018
  -28.2400000000000         3.768357762874228E-018
  -28.0500000000000         3.813249279202068E-018
  -27.8600000000000         3.863783385825738E-018
  -27.6700000000000         3.908813451281515E-018
  -27.4800000000000         3.938789978343088E-018
  -27.2900000000000         3.948455416030847E-018
  -27.1000000000000         3.938293485990119E-018
  -26.9100000000000         3.914317996756085E-018
  -26.7200000000000         3.886267224952000E-018
  -26.5300000000000         3.864731284905811E-018
  -26.3400000000000         3.858048572152844E-018
  -26.1500000000000         3.869874172193533E-018
  -25.9600000000000         3.898128063716452E-018
  -25.7700000000000         3.935629635720574E-018
  -25.5800000000000         3.972233777985711E-018
  -25.3900000000000         3.997846051086251E-018
  -25.2000000000000         4.005438214426912E-018
  -25.0100000000000         3.993185183381023E-018
  -24.8200000000000         3.965099565619425E-018
  -24.6300000000000         3.929975153462322E-018
  -24.4400000000000         3.898939398453019E-018
  -24.2500000000000         3.882316202829413E-018
  -24.0600000000000         3.886699798047991E-018
  -23.8700000000000         3.913081165397441E-018
  -23.6800000000000         3.956566621285248E-018
  -23.4900000000000         4.007769489301732E-018
  -23.3000000000000         4.055472216650410E-018
  -23.1100000000000         4.089788581444168E-018
  -22.9200000000000         4.104911706934031E-018
  -22.7300000000000         4.100656123231661E-018
  -22.5400000000000         4.082355238032938E-018
  -22.3500000000000         4.059155383636284E-018
  -22.1600000000000         4.041213567280449E-018
  -21.9700000000000         4.036623023629791E-018
  -21.7800000000000         4.048967812403426E-018
  -21.5900000000000         4.076223511145369E-018
  -21.4000000000000         4.111328888838005E-018
  -21.2100000000000         4.144266406423443E-018
  -21.0200000000000         4.165048143713616E-018
  -20.8300000000000         4.166736389492175E-018
  -20.6400000000000         4.147613391129766E-018
  -20.4500000000000         4.111858526096463E-018
  -20.2600000000000         4.068523319396630E-018
  -20.0700000000000         4.029089058187100E-018
  -19.8800000000000         4.004303708354734E-018
  -19.6900000000000         4.001204749053096E-018
  -19.5000000000000         4.021182217308585E-018
  -19.3100000000000         4.059637489151655E-018
  -19.1200000000000         4.107334574194127E-018
  -18.9300000000000         4.153053884525934E-018
  -18.7400000000000         4.186783396293699E-018
  -18.5500000000000         4.202527339608630E-018
  -18.3600000000000         4.199924082165704E-018
  -18.1700000000000         4.184211643734817E-018
  -17.9800000000000         4.164560599493762E-018
  -17.7900000000000         4.151269043799710E-018
  -17.6000000000000         4.152643781745030E-018
  -17.4100000000000         4.172480159528484E-018
  -17.2200000000000         4.208875211691349E-018
  -17.0300000000000         4.254718257854547E-018
  -16.8400000000000         4.299714302785117E-018
  -16.6500000000000         4.333350261875586E-018
  -16.4600000000000         4.347940147217381E-018
  -16.2700000000000         4.340861631411937E-018
  -16.0800000000000         4.315330278196287E-018
  -15.8900000000000         4.279482392114707E-018
  -15.7000000000000         4.244030106690996E-018
  -15.5100000000000         4.219169373714685E-018
  -15.3200000000000         4.211640414814199E-018
  -15.1300000000000         4.222796141712088E-018
  -14.9400000000000         4.248240052724562E-018
  -14.7500000000000         4.279138190003770E-018
  -14.5600000000000         4.304823902334980E-018
  -14.3700000000000         4.315940107919073E-018
  -14.1800000000000         4.307208718456244E-018
  -13.9900000000000         4.279025009831512E-018
  -13.8000000000000         4.237414760785170E-018
  -13.6100000000000         4.192365955752956E-018
  -13.4200000000000         4.155017917336821E-018
  -13.2300000000000         4.134522244557873E-018
  -13.0400000000000         4.135484828398732E-018
  -12.8500000000000         4.156728110264579E-018
  -12.6600000000000         4.191727392248817E-018
  -12.4700000000000         4.230587679168912E-018
  -12.2800000000000         4.262980787505582E-018
  -12.0900000000000         4.281185887488870E-018
  -11.9000000000000         4.282349443408923E-018
  -11.7100000000000         4.269309124796955E-018
  -11.5200000000000         4.249743466975652E-018
  -11.3300000000000         4.233894400322815E-018
  -11.1400000000000         4.231523978190041E-018
  -10.9500000000000         4.248990232442375E-018
  -10.7600000000000         4.287294219198949E-018
  -10.5700000000000         4.341669171441568E-018
  -10.3800000000000         4.402834632312031E-018
  -10.1900000000000         4.459554430215329E-018
  -10.0000000000000         4.501758872884129E-018
  -9.81000000000000         4.523328807359926E-018
  -9.62000000000000         4.523738809370248E-018
  -9.42999999999999         4.508088551497865E-018
  -9.23999999999999         4.485518453429311E-018
  -9.05000000000000         4.466473329464302E-018
  -8.86000000000000         4.459611524510707E-018
  -8.67000000000000         4.469260404642684E-018
  -8.48000000000000         4.494161207833048E-018
  -8.28999999999999         4.527871890823815E-018
  -8.09999999999999         4.560713639690368E-018
  -7.91000000000000         4.582695310859752E-018
  -7.72000000000000         4.586562265922773E-018
  -7.53000000000000         4.570076732105825E-018
  -7.34000000000000         4.536857680730581E-018
  -7.15000000000001         4.495524372334420E-018
  -6.95999999999999         4.457378021664530E-018
  -6.77000000000000         4.433279143801130E-018
  -6.58000000000000         4.430612656792888E-018
  -6.39000000000000         4.451211220912663E-018
  -6.20000000000000         4.490835035223873E-018
  -6.01000000000001         4.540360478474049E-018
  -5.81999999999999         4.588338060537135E-018
  -5.63000000000000         4.624184591806877E-018
  -5.44000000000000         4.641091546338439E-018
  -5.25000000000000         4.637815792877761E-018
  -5.06000000000000         4.618845522753049E-018
  -4.87000000000000         4.592907199495975E-018
  -4.67999999999999         4.570260503952269E-018
  -4.48999999999999         4.559577921084850E-018
  -4.30000000000000         4.565323086762418E-018
  -4.11000000000000         4.586394369409711E-018
  -3.92000000000000         4.616430948341758E-018
  -3.73000000000000         4.645694370897775E-018
  -3.53999999999999         4.663978482479932E-018
  -3.34999999999999         4.663698034591945E-018
  -3.16000000000000         4.642250265303099E-018
  -2.97000000000000         4.602952101367477E-018
  -2.78000000000000         4.554268586664140E-018
  -2.59000000000000         4.507545460525941E-018
  -2.40000000000001         4.473894879032186E-018
  -2.20999999999999         4.461130278972419E-018
  -2.02000000000000         4.471632706717113E-018
  -1.83000000000000         4.501761816799300E-018
  -1.64000000000000         4.542978972743436E-018
  -1.45000000000000         4.584355946979595E-018
  -1.26000000000001         4.615742728410971E-018
  -1.06999999999999         4.630677762262349E-018
 -0.879999999999995         4.628199371789171E-018
 -0.689999999999998         4.613036916198372E-018
 -0.500000000000000         4.594131888593072E-018
 -0.310000000000002         4.581925268257171E-018
 -0.120000000000005         4.585205691655018E-018
  7.000000000000739E-002    4.608438665350577E-018
  0.260000000000005         4.650354491231499E-018
  0.450000000000003         4.704204906962990E-018
  0.640000000000001         4.759613360505768E-018
  0.829999999999998         4.805481951130296E-018
   1.02000000000000         4.833112675892084E-018
   1.21000000000001         4.838639474449295E-018
   1.40000000000001         4.824067987075427E-018
   1.59000000000000         4.796624372423239E-018
   1.78000000000000         4.766606486773968E-018
   1.97000000000000         4.744366933134305E-018
   2.16000000000000         4.737309481420727E-018
   2.34999999999999         4.747773832068427E-018
   2.54000000000001         4.772421378358362E-018
   2.73000000000000         4.803294644039894E-018
   2.92000000000000         4.830234822776999E-018
   3.11000000000000         4.843947606465406E-018
   3.30000000000000         4.838820818761137E-018
   3.48999999999999         4.814670754539604E-018
   3.68000000000001         4.776905409735109E-018
   3.87000000000000         4.735052407550479E-018
   4.06000000000000         4.700075101861023E-018
   4.25000000000000         4.681253969331231E-018
   4.44000000000000         4.683538465673252E-018
   4.63000000000000         4.706139129510811E-018
   4.82000000000001         4.742769895792507E-018
   5.01000000000001         4.783471085969938E-018
   5.20000000000000         4.817484620519646E-018
   5.39000000000000         4.836348736477369E-018
   5.58000000000000         4.836317530445319E-018
   5.77000000000000         4.819407258364453E-018
   5.96000000000001         4.792768705132284E-018
   6.15000000000001         4.766568693875883E-018
   6.34000000000000         4.750994953727236E-018
   6.53000000000000         4.753252740909383E-018