  -105.000000000000         0.000000000000000E+000
  -104.810000000000         1.973801277576137E-022
  -104.620000000000         4.405324288517940E-022
  -104.430000000000         5.696298748575213E-022
  -104.240000000000         5.622872496233317E-022
  -104.050000000000         5.463459602627783E-022
  -103.860000000000         6.690665229863653E-022
  -103.670000000000         9.488361432938929E-022
  -103.480000000000         1.251731319985041E-021
  -103.290000000000         1.415696648602921E-021
  -103.100000000000         1.403770336436771E-021
  -102.910000000000         1.339651745542979E-021
  -102.720000000000         1.391087123005743E-021
  -102.530000000000         1.611903937175615E-021
  -102.340000000000         1.892981502455651E-021
  -102.150000000000         2.068394236441526E-021
  -101.960000000000         2.075022917971076E-021
  -101.770000000000         2.013213098936417E-021
  -101.580000000000         2.050669256542455E-021
  -101.390000000000         2.261472755593862E-021
  -101.200000000000         2.554192797376643E-021
  -101.010000000000         2.758064516423441E-021
  -100.820000000000         2.785086968730522E-021
  -100.630000000000         2.713187128841478E-021
  -100.440000000000         2.710973894689433E-021
  -100.250000000000         2.875932792411176E-021
  -100.060000000000         3.140575871351653E-021
  -99.8700000000000         3.336300831624727E-021
  -99.6800000000000         3.354310538125225E-021
  -99.4900000000000         3.250163464033972E-021
  -99.3000000000000         3.191974447639244E-021
  -99.1100000000000         3.301333587354718E-021
  -98.9200000000000         3.538442474387276E-021
  -98.7300000000000         3.740763318564640E-021
  -98.5400000000000         3.778002374647481E-021
  -98.3500000000000         3.675558137850333E-021
  -98.1600000000000         3.589102517834011E-021
  -97.9700000000000         3.655182342027424E-021
  -97.7800000000000         3.860911400929501E-021
  -97.5900000000000         4.057373797453135E-021
  -97.4000000000000         4.103821423666955E-021
  -97.2100000000000         4.004408795119131E-021
  -97.0200000000000         3.906068553035912E-021
  -96.8300000000000         3.958815787290932E-021
  -96.6400000000000         4.171343090102792E-021
  -96.4500000000000         4.399510283591649E-021
  -96.2600000000000         4.478955740137599E-021
  -96.0700000000000         4.376164474717308E-021
  -95.8800000000000         4.215172508510222E-021
  -95.6900000000000         4.155885266669285E-021
  -95.5000000000000         4.241503584193341E-021
  -95.3100000000000         4.361613489181501E-021
  -95.1200000000000         4.366157961764998E-021
  -94.9300000000000         4.220325226508886E-021
  -94.7400000000000         4.050469036428418E-021
  -94.5500000000000         4.034768655082464E-021
  -94.3600000000000         4.240511943509435E-021
  -94.1700000000000         4.561385578619119E-021
  -93.9800000000000         4.813834341136087E-021
  -93.7900000000000         4.900948357017642E-021
  -93.6000000000000         4.888802040790887E-021
  -93.4100000000000         4.924428308047405E-021
  -93.2200000000000         5.076266706094961E-021
  -93.0300000000000         5.251933203693194E-021
  -92.8400000000000         5.273876427527003E-021
  -92.6500000000000         5.042227790730654E-021
  -92.4600000000000         4.630452043014344E-021
  -92.2700000000000         4.222926963660700E-021
  -92.0800000000000         3.953694153416476E-021
  -91.8900000000000         3.799285590875584E-021
  -91.7000000000000         3.626316465861645E-021
  -91.5100000000000         3.346174510608689E-021
  -91.3200000000000         3.026533026782192E-021
  -91.1300000000000         2.850813585424326E-021
  -90.9400000000000         2.962376859064177E-021
  -90.7500000000000         3.340751518344941E-021
  -90.5600000000000         3.827196757131522E-021
  -90.3700000000000         4.275072633967455E-021
  -90.1800000000000         4.681939211640839E-021
  -89.9900000000000         5.178003183658649E-021
  -89.8000000000000         5.882825185656975E-021
  -89.6100000000000         6.768140378679040E-021
  -89.4200000000000         7.658778464487257E-021
  -89.2300000000000         8.371611951203666E-021
  -89.0400000000000         8.860620300794685E-021
  -88.8500000000000         9.230455307431241E-021
  -88.6600000000000         9.606567077058004E-021
  -88.4700000000000         9.987113901705933E-021
  -88.2800000000000         1.021979023318420E-020
  -88.0900000000000         1.012799259175877E-020
  -87.9000000000000         9.668287304571019E-021
  -87.7100000000000         8.970947725714009E-021
  -87.5200000000000         8.226380922219976E-021
  -87.3300000000000         7.526372995379379E-021
  -87.1400000000000         6.810670647643888E-021
  -86.9500000000000         5.967204063352885E-021
  -86.7600000000000         4.986263068470223E-021
  -86.5700000000000         4.016515620854678E-021
  -86.3800000000000         3.264093675440298E-021
  -86.1900000000000         2.826342262923650E-021
  -86.0000000000000         2.615700448145193E-021
  -85.8100000000000         2.445141077875581E-021
  -85.6200000000000         2.194598241669114E-021
  -85.4300000000000         1.902871226721101E-021
  -85.2400000000000         1.702650980032443E-021
  -85.0500000000000         1.667009543594074E-021
  -84.8600000000000         1.719879872777021E-021
  -84.6700000000000         1.700628606300013E-021
  -84.4800000000000         1.523525653071599E-021
  -84.2900000000000         1.279500372237559E-021
  -84.1000000000000         1.179944969660091E-021
  -83.9100000000000         1.391207377714705E-021
  -83.7200000000000         1.911837861842747E-021
  -83.5300000000000         2.603843073611688E-021
  -83.3400000000000         3.343209185309437E-021
  -83.1500000000000         4.142925939947681E-021
  -82.9600000000000         5.129962436571813E-021
  -82.7700000000000         6.398790112395094E-021
  -82.5800000000000         7.883478841454327E-021
  -82.3900000000000         9.374026951775285E-021
  -82.2000000000000         1.066568586537682E-020
  -82.0100000000000         1.170324630238378E-020
  -81.8200000000000         1.258684724480336E-020
  -81.6300000000000         1.343739760184314E-020
  -81.4400000000000         1.425239647193140E-020
  -81.2500000000000         1.489040595694012E-020
  -81.0600000000000         1.519808381410168E-020
  -80.8700000000000         1.515644319042535E-020
  -80.6800000000000         1.490398331142713E-020
  -80.4900000000000         1.461198925568112E-020
  -80.3000000000000         1.432933891660835E-020
  -80.1100000000000         1.394442872663216E-020
  -79.9200000000000         1.330095736624968E-020
  -79.7300000000000         1.235813213697619E-020
  -79.5400000000000         1.124385363443692E-020
  -79.3500000000000         1.015131991824330E-020
  -79.1600000000000         9.177978172298182E-021
  -78.9700000000000         8.259571403106811E-021
  -78.7800000000000         7.260162055560300E-021
  -78.5900000000000         6.129283345780132E-021
  -78.4000000000000         4.973067064673399E-021
  -78.2100000000000         3.969097690236103E-021
  -78.0200000000000         3.205507208063081E-021
  -77.8300000000000         2.598972880034321E-021
  -77.6400000000000         1.972729003099167E-021
  -77.4500000000000         1.224416302712621E-021
  -77.2600000000000         4.284252156989621E-022
  -77.0700000000000        -2.207232767007804E-022
  -76.8800000000000        -5.672780520556807E-022
  -76.6900000000000        -6.033372844155250E-022
  -76.5000000000000        -4.263720393127530E-022
  -76.3100000000000        -9.130176943849067E-023
  -76.1200000000000         4.933355826858189E-022
  -75.9300000000000         1.515955619847164E-021
  -75.7400000000000         3.096028112551999E-021
  -75.5500000000000         5.151064666399809E-021
  -75.3600000000000         7.417950495902627E-021
  -75.1700000000000         9.608016557804610E-021
  -74.9800000000000         1.155369099218720E-020
  -74.7900000000000         1.321862999424016E-020
  -74.6000000000000         1.457855314204849E-020
  -74.4100000000000         1.550615711175463E-020
  -74.2200000000000         1.578903531689529E-020
  -74.0300000000000         1.527875665746893E-020
  -73.8400000000000         1.403771498383468E-020
  -73.6500000000000         1.234446242772441E-020
  -73.4600000000000         1.054481534311680E-020
  -73.2700000000000         8.875936129689947E-021
  -73.0800000000000         7.411665825452354E-021
  -72.8900000000000         6.159985369935094E-021
  -72.7000000000000         5.199683165758977E-021
  -72.5100000000000         4.710112283244696E-021
  -72.3200000000000         4.856118408223434E-021
  -72.1300000000000         5.635187000430851E-021
  -71.9400000000000         6.836272789081889E-021
  -71.7500000000000         8.158675647192650E-021
  -71.5600000000000         9.390598942824640E-021
  -71.3700000000000         1.049199035644061E-020
  -71.1800000000000         1.151738967993507E-020
  -70.9900000000000         1.246513656972793E-020
  -70.8000000000000         1.320585785718691E-020
  -70.6100000000000         1.356257377973111E-020
  -70.4200000000000         1.346507019147437E-020
  -70.2300000000000         1.302643082785166E-020
  -70.0400000000000         1.246168197492311E-020
  -69.8500000000000         1.191872942385742E-020
  -69.6600000000000         1.137680331959930E-020
  -69.4700000000000         1.070579661849194E-020
  -69.2800000000000         9.829126181493966E-021
  -69.0900000000000         8.836087290716191E-021
  -68.9000000000000         7.938970359970238E-021
  -68.7100000000000         7.317984598907959E-021
  -68.5200000000000         7.001920843867324E-021
  -68.3300000000000         6.894903674825918E-021
  -68.1400000000000         6.916663221731969E-021
  -67.9500000000000         7.113042970780174E-021
  -67.7600000000000         7.621417904807040E-021
  -67.5700000000000         8.516298110928386E-021
  -67.3800000000000         9.679477129587096E-021
  -67.1900000000000         1.082195244721068E-020
  -67.0000000000000         1.164636795894997E-020
  -66.8100000000000         1.200992415142416E-020
  -66.6200000000000         1.195051117003615E-020
  -66.4300000000000         1.156955350240280E-020
  -66.2400000000000         1.089855926114339E-020
  -66.0500000000000         9.885785937080363E-021
  -65.8600000000000         8.516680625288227E-021
  -65.6700000000000         6.944980769973136E-021
  -65.4800000000000         5.492673265626992E-021
  -65.2900000000000         4.496201162615165E-021
  -65.1000000000000         4.121005467517646E-021
  -64.9100000000000         4.299068043167092E-021
  -64.7200000000000         4.833391806293558E-021
  -64.5300000000000         5.564125273432274E-021
  -64.3400000000000         6.443698602124081E-021
  -64.1500000000000         7.465526896054323E-021
  -63.9600000000000         8.537792137968592E-021
  -63.7700000000000         9.448948888134536E-021
  -63.5800000000000         9.981511417646222E-021
  -63.3900000000000         1.008171502934106E-020
  -63.2000000000000         9.928765536375520E-021
  -63.0100000000000         9.831899545101286E-021
  -62.8200000000000         1.003777264817595E-020
  -62.6300000000000         1.060935492649928E-020
  -62.4400000000000         1.146693802565046E-020
  -62.2500000000000         1.252969288199253E-020
  -62.0600000000000         1.380668436261760E-020
  -61.8700000000000         1.534334981937931E-020
  -61.6800000000000         1.707721582607154E-020
  -61.4900000000000         1.875238130868162E-020
  -61.3000000000000         1.999321501805299E-020
  -61.1100000000000         2.049003520320465E-020
  -60.9200000000000         2.014402773999678E-020
  -60.7300000000000         1.905557791026887E-020
  -60.5400000000000         1.738402040496777E-020
  -60.3500000000000         1.522093122365380E-020
  -60.1600000000000         1.259596967011286E-020
  -59.9700000000000         9.597613991761552E-021
  -59.7800000000000         6.473293194519573E-021
  -59.5900000000000         3.588884969367164E-021
  -59.4000000000000         1.262558487505804E-021
  -59.2100000000000        -3.869461377699723E-022
  -59.0200000000000        -1.443200582850828E-021
  -58.8300000000000        -2.044637664405277E-021
  -58.6400000000000        -2.220755227615282E-021
  -58.4500000000000        -1.856787746283014E-021
  -58.2600000000000        -8.084367477271013E-022
  -58.0700000000000         9.516991588621553E-022
  -57.8800000000000         3.298378511050118E-021
  -57.6900000000000         6.057791640599936E-021
  -57.5000000000000         9.140621286901410E-021
  -57.3100000000000         1.256260152979955E-020
  -57.1200000000000         1.632020223058056E-020
  -56.9300000000000         2.023362638795792E-020
  -56.7400000000000         2.391021954153205E-020
  -56.5500000000000         2.687751699416858E-020
  -56.3600000000000         2.878286418949459E-020
  -56.1700000000000         2.949890506359689E-020
  -55.9800000000000         2.906519680014856E-020
  -55.7900000000000         2.754871850739718E-020
  -55.6000000000000         2.497485134476183E-020
  -55.4100000000000         2.140109761218768E-020
  -55.2200000000000         1.705608232302320E-020
  -55.0300000000000         1.239106549494879E-020
  -54.8400000000000         7.963862771066971E-021
  -54.6500000000000         4.228260892283715E-021
  -54.4600000000000         1.391164529403329E-021
  -54.2700000000000        -5.598490283626766E-022
  -54.0800000000000        -1.708186487676016E-021
  -53.8900000000000        -2.090002818892327E-021
  -53.7000000000000        -1.712886849612363E-021
  -53.5100000000000        -6.738800984509294E-022
  -53.3200000000000         7.650667881908782E-022
  -53.1300000000000         2.249426965926693E-021
  -52.9400000000000         3.514489378960836E-021
  -52.7500000000000         4.527666617923723E-021
  -52.5600000000000         5.467458844650721E-021
  -52.3700000000000         6.558783021136445E-021
  -52.1800000000000         7.909432117279752E-021
  -51.9900000000000         9.482155823391524E-021
  -51.8000000000000         1.120272786353445E-020
  -51.6100000000000         1.307548155612577E-020
  -51.4200000000000         1.517683391024183E-020
  -51.2300000000000         1.752360240043455E-020
  -51.0400000000000         1.994401348218046E-020
  -50.8500000000000         2.208815484016591E-020
  -50.6600000000000         2.359065113819967E-020
  -50.4700000000000         2.425804510354163E-020
  -50.2800000000000         2.412976272215750E-020
  -50.0900000000000         2.337698268896898E-020
  -49.9000000000000         2.214836417652961E-020
  -49.7100000000000         2.050887854556698E-020
  -49.5200000000000         1.851530708742978E-020
  -49.3300000000000         1.633064536964394E-020
  -49.1400000000000         1.423712447831853E-020
  -48.9500000000000         1.250585704414703E-020
  -48.7600000000000         1.122638439336280E-020
  -48.5700000000000         1.025088986892028E-020
  -48.3800000000000         9.312803519378284E-021
  -48.1900000000000         8.225150200834853E-021
  -48.0000000000000         6.995107013595624E-021
  -47.8100000000000         5.772059570580760E-021
  -47.6200000000000         4.699641170045735E-021
  -47.4300000000000         3.823136951763606E-021
  -47.2400000000000         3.137684927497203E-021
  -47.0500000000000         2.715605030261758E-021
  -46.8600000000000         2.765977741041805E-021
  -46.6700000000000         3.540017466883203E-021
  -46.4800000000000         5.145389448964144E-021
  -46.2900000000000         7.427957200384288E-021
  -46.1000000000000         1.002761561663029E-020
  -45.9100000000000         1.256295351421024E-020
  -45.7200000000000         1.478972377559475E-020
  -45.5300000000000         1.661250023234315E-020
  -45.3400000000000         1.797294522121867E-020
  -45.1500000000000         1.875396431309858E-020
  -44.9600000000000         1.881642077448426E-020
  -44.7700000000000         1.814641776007903E-020
  -44.5800000000000         1.697058534293319E-020
  -44.3900000000000         1.571197228340528E-020
  -44.2000000000000         1.479811194384360E-020
  -44.0100000000000         1.446537505884717E-020
  -43.8200000000000         1.470560736867306E-020
  -43.6300000000000         1.537164917034485E-020
  -43.4400000000000         1.632023596080842E-020
  -43.2500000000000         1.745315814686571E-020
  -43.0600000000000         1.863381106800263E-020
  -42.8700000000000         1.959161745151934E-020
  -42.6800000000000         1.994845844593746E-020
  -42.4900000000000         1.938643587295106E-020
  -42.3000000000000         1.783460259432990E-020
  -42.1100000000000         1.552044415042995E-020
  -41.9200000000000         1.284269134314757E-020
  -41.7300000000000         1.017318789082047E-020
  -41.5400000000000         7.746685978598265E-021
  -41.3500000000000         5.702891677978935E-021
  -41.1600000000000         4.196832919285514E-021
  -40.9700000000000         3.433707968548399E-021
  -40.7800000000000         3.568966323670114E-021
  -40.5900000000000         4.559885653387671E-021
  -40.4000000000000         6.118723028566733E-021
  -40.2100000000000         7.835474978900944E-021
  -40.0200000000000         9.386221546680176E-021
  -39.8300000000000         1.066433442941081E-020
  -39.6400000000000         1.174114669502341E-020
  -39.4500000000000         1.271504336429423E-020
  -39.2600000000000         1.360012875730044E-020
  -39.0700000000000         1.435235572749719E-020
  -38.8800000000000         1.498639369668912E-020
  -38.6900000000000         1.564194591011437E-020
  -38.5000000000000         1.650597045867015E-020
  -38.3100000000000         1.764169631389764E-020
  -38.1200000000000         1.887695340749150E-020
  -37.9300000000000         1.986330588498800E-020
  -37.7400000000000         2.026913750740473E-020
  -37.5500000000000         1.995213089131474E-020
  -37.3600000000000         1.897977492717589E-020
  -37.1700000000000         1.750809514029690E-020
  -36.9800000000000         1.565428638195772E-020
  -36.7900000000000         1.349031882828370E-020
  -36.6000000000000         1.115302566200220E-020
  -36.4100000000000         8.940470368769694E-021
  -36.2200000000000         7.267173013000155E-021
  -36.0300000000000         6.481446685089961E-021
  -35.8400000000000         6.683228517983534E-021
  -35.6500000000000         7.691052960620641E-021
  -35.4600000000000         9.180171479407741E-021
  -35.2700000000000         1.086798756545670E-020
  -35.0800000000000         1.259387537177845E-020
  -34.8900000000000         1.425268280786736E-020
  -34.7000000000000         1.568526970978178E-020
  -34.5100000000000         1.666721255711656E-020
  -34.3200000000000         1.703335028241830E-020
  -34.1300000000000         1.683173456830062E-020
  -33.9400000000000         1.635567916815010E-020
  -33.7500000000000         1.600285590861046E-020
  -33.5600000000000         1.606320745177420E-020
  -33.3700000000000         1.659928428753712E-020
  -33.1800000000000         1.749581055250222E-020
  -32.9900000000000         1.860304081020535E-020
  -32.8000000000000         1.982466426538189E-020
  -32.6100000000000         2.107267032504566E-020
  -32.4200000000000         2.215614033285459E-020
  -32.2300000000000         2.274677818332680E-020
  -32.0400000000000         2.249609465848462E-020
  -31.8500000000000         2.123113590218435E-020
  -31.6600000000000         1.906975904637788E-020
  -31.4700000000000         1.635744707349599E-020
  -31.2800000000000         1.348048940573608E-020
  -31.0900000000000         1.071209050309022E-020
  -30.9000000000000         8.204309522369408E-021
  -30.7100000000000         6.093592055973886E-021
  -30.5200000000000         4.580439913531775E-021
  -30.3300000000000         3.876388822172322E-021
  -30.1400000000000         4.051518275435177E-021
  -29.9500000000000         4.927200418631850E-021
  -29.7600000000000         6.131897098077198E-021
  -29.5700000000000         7.294841688173764E-021
  -29.3800000000000         8.227612803853332E-021
  -29.1900000000000         8.954950133784251E-021
  -29.0000000000000         9.592810452958614E-021
  -28.8100000000000         1.020475035352588E-020
  -28.6200000000000         1.077324851135313E-020
  -28.4300000000000         1.129854093717920E-020
  -28.2400000000000         1.190502531167978E-020
  -28.0500000000000         1.282291349390747E-020
  -27.8600000000000         1.423358275317580E-020
  -27.6700000000000         1.610523259869859E-020
  -27.4800000000000         1.816716539474382E-020
  -27.2900000000000         2.005302479204567E-020
  -27.1000000000000         2.149545109028278E-020
  -26.9100000000000         2.241497821864110E-020
  -26.7200000000000         2.285017553330653E-020
  -26.5300000000000         2.282405604923117E-020
  -26.3400000000000         2.229328341896959E-020
  -26.1500000000000         2.123435212797368E-020
  -25.9600000000000         1.977556964079038E-020
  -25.7700000000000         1.822742080191075E-020
  -25.5800000000000         1.695314089966350E-020
  -25.3900000000000         1.617208887885804E-020
  -25.2000000000000         1.585692658796465E-020
  -25.0100000000000         1.580550274759931E-020
  -24.8200000000000         1.581416194753008E-020
  -24.6300000000000         1.579537653575159E-020
  -24.4400000000000         1.574673911921927E-020
  -24.2500000000000         1.562748990589319E-020
  -24.0600000000000         1.528918086479102E-020
  -23.8700000000000         1.455192005528875E-020
  -23.6800000000000         1.337036147212249E-020
  -23.4900000000000         1.193650471023971E-020
  -23.3000000000000         1.061392717794725E-020
  -23.1100000000000         9.746891413007821E-021
  -22.9200000000000         9.498221467103650E-021
  -22.7300000000000         9.838555402706537E-021
  -22.5400000000000         1.066729467578435E-020
  -22.3500000000000         1.192793171365944E-020
  -22.1600000000000         1.359867539642930E-020
  -21.9700000000000         1.557367766719877E-020
  -21.7800000000000         1.756912956969871E-020
  -21.5900000000000         1.917548865237537E-020
  -21.4000000000000         2.004257894097354E-020
  -21.2100000000000         2.005564891019844E-020
  -21.0200000000000         1.936064766919593E-020
  -20.8300000000000         1.822762656888592E-020
  -20.6400000000000         1.688042908251935E-020
  -20.4500000000000         1.543846296651446E-020
  -20.2600000000000         1.399782087470045E-020
  -20.0700000000000         1.273959676891830E-020
  -19.8800000000000         1.192738124479196E-020
  -19.6900000000000         1.176815562860759E-020
  -19.5000000000000         1.225264799329065E-020
  -19.3100000000000         1.312524383221133E-020
  -19.1200000000000         1.402453068063173E-020
  -18.9300000000000         1.468439298773389E-020
  -18.7400000000000         1.503417444769547E-020
  -18.5500000000000         1.513299711861741E-020
  -18.3600000000000         1.502600774458828E-020
  -18.1700000000000         1.467465444022160E-020
  -17.9800000000000         1.403008736544841E-020
  -17.7900000000000         1.317051203838287E-020
  -17.6000000000000         1.235331094482963E-020
  -17.4100000000000         1.190869122626741E-020
  -17.2200000000000         1.205148294185622E-020
  -17.0300000000000         1.276857060327661E-020
  -16.8400000000000         1.387347549444144E-020
  -16.6500000000000         1.516865662667753E-020
  -16.4600000000000         1.656306860565080E-020
  -16.2700000000000         1.804466614007497E-020
  -16.0800000000000         1.955308131430838E-020
  -15.8900000000000         2.089614774043030E-020
  -15.7000000000000         2.181101818917610E-020
  -15.5100000000000         2.212786265250206E-020
  -15.3200000000000         2.188885749871215E-020
  -15.1300000000000         2.130956372605923E-020
  -14.9400000000000         2.061295964180537E-020
  -14.7500000000000         1.988280952064905E-020
  -14.5600000000000         1.906175057959235E-020
  -14.3700000000000         1.808086781790260E-020
  -14.1800000000000         1.698414887636552E-020
  -13.9900000000000         1.592065754178111E-020
  -13.8000000000000         1.500981363593485E-020
  -13.6100000000000         1.421338126611448E-020
  -13.4200000000000         1.334790372001445E-020
  -13.2300000000000         1.224131704025040E-020
  -13.0400000000000         1.089986924717835E-020
  -12.8500000000000         9.537430737786189E-021
  -12.6600000000000         8.443143417150210E-021
  -12.4700000000000         7.808397903278470E-021
  -12.2800000000000         7.664040671181588E-021
  -12.0900000000000         7.967380324132003E-021
  -11.9000000000000         8.733788800634570E-021
  -11.7100000000000         1.006774431828913E-020
  -11.5200000000000         1.205047915373417E-020
  -11.3300000000000         1.458733381298775E-020
  -11.1400000000000         1.736663639733901E-020
  -10.9500000000000         1.998498783175742E-020
  -10.7600000000000         2.214215684852904E-020
  -10.5700000000000         2.374594688983687E-020
  -10.3800000000000         2.485233825272762E-020
  -10.1900000000000         2.551757207725991E-020
  -10.0000000000000         2.571331487180366E-020
  -9.81000000000000         2.538463026509703E-020
  -9.62000000000000         2.458342122883436E-020
  -9.42999999999999         2.352961003930616E-020
  -9.23999999999999         2.251712686621180E-020
  -9.05000000000000         2.173074629083195E-020
  -8.86000000000000         2.113015808081348E-020
  -8.67000000000000         2.050189008844892E-020
  -8.48000000000000         1.962975399421010E-020
  -8.28999999999999         1.843185868766150E-020
  -8.09999999999999         1.695290660508558E-020
  -7.91000000000000         1.524399481712669E-020
  -7.72000000000000         1.327046960048110E-020
  -7.53000000000000         1.095744891835905E-020
  -7.34000000000000         8.342038891704640E-021
  -7.15000000000001         5.686738420385107E-021
  -6.95999999999999         3.431872748461509E-021
  -6.77000000000000         2.006284326262558E-021
  -6.58000000000000         1.642213346650321E-021
  -6.39000000000000         2.333523475136564E-021
  -6.20000000000000         3.943889817467943E-021
  -6.01000000000001         6.339286239166755E-021
  -5.81999999999999         9.411464998063379E-021
  -5.63000000000000         1.298080875061081E-020
  -5.44000000000000         1.669857385938399E-020
  -5.25000000000000         2.008105124677222E-020
  -5.06000000000000         2.268718574719078E-020
  -4.87000000000000         2.431143979521184E-020
  -4.67999999999999         2.503907710312945E-020
  -4.48999999999999         2.512670016900435E-020
  -4.30000000000000         2.481937903109864E-020
  -4.11000000000000         2.425896114066989E-020
  -3.92000000000000         2.353791503009207E-020
  -3.73000000000000         2.280709484761067E-020
  -3.53999999999999         2.229484956001222E-020
  -3.34999999999999         2.218782930256776E-020
  -3.16000000000000         2.247033391568853E-020
  -2.97000000000000         2.287623274671321E-020
  -2.78000000000000         2.301733600501691E-020
  -2.59000000000000         2.259722441163522E-020
  -2.40000000000001         2.154476199654210E-020
  -2.20999999999999         1.997673261410566E-020
  -2.02000000000000         1.805310198623344E-020
  -1.83000000000000         1.587633615833649E-020
  -1.64000000000000         1.352690785801661E-020
  -1.45000000000000         1.118070053381699E-020
  -1.26000000000001         9.163743104392356E-021
  -1.06999999999999         7.853959428367401E-021
 -0.879999999999995         7.487190473919902E-021
 -0.689999999999998         8.024391353344539E-021
 -0.500000000000000         9.192246462869351E-021
 -0.310000000000002         1.066055867831785E-020
 -0.120000000000005         1.220538285411396E-020
  7.000000000000739E-002    1.373302208488383E-020
  0.260000000000005         1.517923483224669E-020
  0.450000000000003         1.641578863551599E-020
  0.640000000000001         1.728048657795061E-020
  0.829999999999998         1.771445543029167E-020
   1.02000000000000         1.787146417681278E-020
   1.21000000000001         1.807528102818197E-020
   1.40000000000001         1.863494191163650E-020
   1.59000000000000         1.965898497460062E-020
   1.78000000000000         2.101383875102187E-020
   1.97000000000000         2.244370661454493E-020
   2.16000000000000         2.372957685128113E-020
   2.34999999999999         2.474438438507667E-020
   2.54000000000001         2.537642979435843E-020
   2.73000000000000         2.543068812440546E-020
   2.92000000000000         2.464376720183877E-020
   3.11000000000000         2.283676846765896E-020
   3.30000000000000         2.008754550964237E-020
   3.48999999999999         1.676777225625373E-020
   3.68000000000001         1.339887007052399E-020
   3.87000000000000         1.043491101289528E-020
   4.06000000000000         8.136801024458972E-021
   4.25000000000000         6.609371581798344E-021
   4.44000000000000         5.921270125447555E-021
   4.63000000000000         6.160833637939141E-021
   4.82000000000001         7.360217705637340E-021
   5.01000000000001         9.365633070007790E-021
   5.20000000000000         1.180107346747126E-020
   5.39000000000000         1.419685212842944E-020
   5.58000000000000         1.620277347879556E-020
   5.77000000000000         1.772258962438132E-020
   5.96000000000001         1.887171016629277E-020
   6.15000000000001         1.981343084257536E-020
   6.34000000000000         2.062672331747661E-020
   6.53000000000000         2.131148517916930E-020