  -105.000000000000         0.000000000000000E+000
  -104.810000000000         1.865562548763900E-010
  -104.620000000000         4.091458018738612E-010
  -104.430000000000         6.424222450617321E-010
  -104.240000000000         9.980126384781919E-010
  -104.050000000000         1.490441454459325E-009
  -103.860000000000         1.933897063914603E-009
  -103.670000000000         2.234818329419015E-009
  -103.480000000000         2.408920522115297E-009
  -103.290000000000         2.869457977285401E-009
  -103.100000000000         3.473067525542150E-009
  -102.910000000000         4.280254388526283E-009
  -102.720000000000         5.077081871931860E-009
  -102.530000000000         5.764189016996645E-009
  -102.340000000000         6.347784056747990E-009
  -102.150000000000         6.850772824946003E-009
  -101.960000000000         7.230905632562230E-009
  -101.770000000000         7.224209979191793E-009
  -101.580000000000         7.367696323440290E-009
  -101.390000000000         7.613945282762319E-009
  -101.200000000000         7.730506212899105E-009
  -101.010000000000         7.793601131401558E-009
  -100.820000000000         7.662373145245463E-009
  -100.630000000000         7.382506842029635E-009
  -100.440000000000         7.170253507414840E-009
  -100.250000000000         6.982883220059244E-009
  -100.060000000000         6.761060668832963E-009
  -99.8700000000000         6.598316872118835E-009
  -99.6800000000000         6.409887310393960E-009
  -99.4900000000000         5.976370931614314E-009
  -99.3000000000000         5.212076062931382E-009
  -99.1100000000000         4.502245741697024E-009
  -98.9200000000000         3.779929127581876E-009
  -98.7300000000000         3.147179159063625E-009
  -98.5400000000000         3.062400386605555E-009
  -98.3500000000000         2.367224066958528E-009
  -98.1600000000000         2.145727025704361E-009
  -97.9700000000000         2.010877186913835E-009
  -97.7800000000000         1.897666791991331E-009
  -97.5900000000000         1.802003337710493E-009
  -97.4000000000000         1.693713043469650E-009
  -97.2100000000000         1.609346353620091E-009
  -97.0200000000000         1.588737858459913E-009
  -96.8300000000000         1.739810577710733E-009
  -96.6400000000000         1.994389984391719E-009
  -96.4500000000000         2.309996810173397E-009
  -96.2600000000000         2.866019212016115E-009
  -96.0700000000000         3.294139932697689E-009
  -95.8800000000000         3.565043636409369E-009
  -95.6900000000000         3.808132126778759E-009
  -95.5000000000000         4.116094628487480E-009
  -95.3100000000000         4.409237781658186E-009
  -95.1200000000000         4.617153998454354E-009
  -94.9300000000000         4.878420944237551E-009
  -94.7400000000000         5.098987803303621E-009
  -94.5500000000000         5.363182160414933E-009
  -94.3600000000000         5.746723649812050E-009
  -94.1700000000000         6.219474107048405E-009
  -93.9800000000000         6.303449728598433E-009
  -93.7900000000000         6.546213422401619E-009
  -93.6000000000000         7.028471331240823E-009
  -93.4100000000000         7.295550607976873E-009
  -93.2200000000000         7.487123558321063E-009
  -93.0300000000000         7.575825063524238E-009
  -92.8400000000000         7.514322676676288E-009
  -92.6500000000000         7.204443207706662E-009
  -92.4600000000000         6.597163543302200E-009
  -92.2700000000000         5.773158364782969E-009
  -92.0800000000000         4.902578597404659E-009
  -91.8900000000000         4.100750829049171E-009
  -91.7000000000000         3.752106424125295E-009
  -91.5100000000000         3.381116810480034E-009
  -91.3200000000000         3.204029345180118E-009
  -91.1300000000000         2.843290694880762E-009
  -90.9400000000000         2.596143476375221E-009
  -90.7500000000000         2.595346961168545E-009
  -90.5600000000000         2.821031581105123E-009
  -90.3700000000000         3.267273643148122E-009
  -90.1800000000000         3.912556055048028E-009
  -89.9900000000000         4.681049502630285E-009
  -89.8000000000000         5.432582526551846E-009
  -89.6100000000000         5.686921758041415E-009
  -89.4200000000000         6.109896963404243E-009
  -89.2300000000000         6.593437095034744E-009
  -89.0400000000000         7.620143229002361E-009
  -88.8500000000000         7.646915910859011E-009
  -88.6600000000000         8.106966931488372E-009
  -88.4700000000000         8.589677697317802E-009
  -88.2800000000000         8.960604855690669E-009
  -88.0900000000000         9.267974413014511E-009
  -87.9000000000000         9.462032342809561E-009
  -87.7100000000000         9.526003470191516E-009
  -87.5200000000000         9.552588803903413E-009
  -87.3300000000000         9.544353479684806E-009
  -87.1400000000000         9.500692650062181E-009
  -86.9500000000000         9.376747052931020E-009
  -86.7600000000000         9.180084471107593E-009
  -86.5700000000000         8.937598001005808E-009
  -86.3800000000000         8.739557970363188E-009
  -86.1900000000000         8.636755588260780E-009
  -86.0000000000000         8.640109391690289E-009
  -85.8100000000000         8.818516032745001E-009
  -85.6200000000000         9.299652420265332E-009
  -85.4300000000000         1.010995463030618E-008
  -85.2400000000000         1.106539778348245E-008
  -85.0500000000000         1.241453616317449E-008
  -84.8600000000000         1.377584536969508E-008
  -84.6700000000000         1.502823612039521E-008
  -84.4800000000000         1.629596559794863E-008
  -84.2900000000000         1.767552780451114E-008
  -84.1000000000000         1.910608436760221E-008
  -83.9100000000000         2.053905660266210E-008
  -83.7200000000000         2.052017985884940E-008
  -83.5300000000000         2.319918027878717E-008
  -83.3400000000000         2.303376355965157E-008
  -83.1500000000000         2.328873931848222E-008
  -82.9600000000000         2.357197861520449E-008
  -82.7700000000000         2.364598222284035E-008
  -82.5800000000000         2.354787993920084E-008
  -82.3900000000000         2.342181858940750E-008
  -82.2000000000000         2.323819710820246E-008
  -82.0100000000000         2.294489663456577E-008
  -81.8200000000000         2.238695018619417E-008
  -81.6300000000000         2.157255815629419E-008
  -81.4400000000000         2.069350480587377E-008
  -81.2500000000000         1.997630040203019E-008
  -81.0600000000000         1.931916623983555E-008
  -80.8700000000000         1.849100860557722E-008
  -80.6800000000000         1.787507823453599E-008
  -80.4900000000000         1.746362813126163E-008
  -80.3000000000000         1.717220739878618E-008
  -80.1100000000000         1.695002512832151E-008
  -79.9200000000000         1.680270468714737E-008
  -79.7300000000000         1.677804969023961E-008
  -79.5400000000000         1.697044742858749E-008
  -79.3500000000000         1.760084116429866E-008
  -79.1600000000000         1.844721160268522E-008
  -78.9700000000000         1.921103077361800E-008
  -78.7800000000000         1.992790951502428E-008
  -78.5900000000000         2.067777853576287E-008
  -78.4000000000000         2.110003611242462E-008
  -78.2100000000000         2.139862832519497E-008
  -78.0200000000000         2.160628380345146E-008
  -77.8300000000000         2.164896364231173E-008
  -77.6400000000000         2.161322209020375E-008
  -77.4500000000000         2.154638640189665E-008
  -77.2600000000000         2.151584978684026E-008
  -77.0700000000000         2.154751667591585E-008
  -76.8800000000000         2.160280212171291E-008
  -76.6900000000000         2.174135939747498E-008
  -76.5000000000000         2.209664020697537E-008
  -76.3100000000000         2.289280436640457E-008
  -76.1200000000000         2.335246701085853E-008
  -75.9300000000000         2.396132188495391E-008
  -75.7400000000000         2.439728433724890E-008
  -75.5500000000000         2.481683603337174E-008
  -75.3600000000000         2.513330209429527E-008
  -75.1700000000000         2.540318636932184E-008
  -74.9800000000000         2.584643925303600E-008
  -74.7900000000000         2.646964818401544E-008
  -74.6000000000000         2.706268991948293E-008
  -74.4100000000000         2.761361891808203E-008
  -74.2200000000000         2.818657125288270E-008
  -74.0300000000000         2.881853650028190E-008
  -73.8400000000000         2.955049504328887E-008
  -73.6500000000000         3.034426593664827E-008
  -73.4600000000000         3.109087864658120E-008
  -73.2700000000000         3.188370416140392E-008
  -73.0800000000000         3.263879947882570E-008
  -72.8900000000000         3.363818158987297E-008
  -72.7000000000000         3.457038482171946E-008
  -72.5100000000000         3.558528777137414E-008
  -72.3200000000000         3.659267400582850E-008
  -72.1300000000000         3.741826240426189E-008
  -71.9400000000000         3.784907031408847E-008
  -71.7500000000000         4.003978367953994E-008
  -71.5600000000000         4.018399312243973E-008
  -71.3700000000000         4.060387997327182E-008
  -71.1800000000000         4.144335229539055E-008
  -70.9900000000000         4.178318974395053E-008
  -70.8000000000000         4.505611068506397E-008
  -70.6100000000000         4.516141086576245E-008
  -70.4200000000000         4.555268412693497E-008
  -70.2300000000000         4.964049241834753E-008
  -70.0400000000000         4.978280307199162E-008
  -69.8500000000000         5.034571439448393E-008
  -69.6600000000000         5.298402573062465E-008
  -69.4700000000000         5.320953098957402E-008
  -69.2800000000000         5.411189349932888E-008
  -69.0900000000000         5.466198994890843E-008
  -68.9000000000000         5.518197275766246E-008
  -68.7100000000000         5.556674202749696E-008
  -68.5200000000000         5.583396165145449E-008
  -68.3300000000000         5.603009201547932E-008
  -68.1400000000000         5.618661440751507E-008
  -67.9500000000000         5.633487596225417E-008
  -67.7600000000000         5.650165265915770E-008
  -67.5700000000000         5.685687290031726E-008
  -67.3800000000000         5.765432791193164E-008
  -67.1900000000000         5.896497557305272E-008
  -67.0000000000000         5.987088572913028E-008
  -66.8100000000000         6.200406538356880E-008
  -66.6200000000000         6.255538348402520E-008
  -66.4300000000000         6.360614675700050E-008
  -66.2400000000000         6.680041040594686E-008
  -66.0500000000000         6.723389488761495E-008
  -65.8600000000000         6.778021851808044E-008
  -65.6700000000000         6.885130690162908E-008
  -65.4800000000000         6.989173242532675E-008
  -65.2900000000000         7.102968813520181E-008
  -65.1000000000000         7.229009796167558E-008
  -64.9100000000000         7.359623715734273E-008
  -64.7200000000000         7.482592309543795E-008
  -64.5300000000000         7.614766480955812E-008
  -64.3400000000000         7.734435511838163E-008
  -64.1500000000000         7.849997998484889E-008
  -63.9600000000000         7.951929408055419E-008
  -63.7700000000000         8.043551223095666E-008
  -63.5800000000000         8.140714865196349E-008
  -63.3900000000000         8.235730679841463E-008
  -63.2000000000000         8.325711042724264E-008
  -63.0100000000000         8.398637763594129E-008
  -62.8200000000000         8.465089889047382E-008
  -62.6300000000000         8.528767012894200E-008
  -62.4400000000000         8.585147097099021E-008
  -62.2500000000000         8.629303622141795E-008
  -62.0600000000000         8.665036223312382E-008
  -61.8700000000000         8.694736765035053E-008
  -61.6800000000000         8.719423769189361E-008
  -61.4900000000000         8.742592261878352E-008
  -61.3000000000000         8.775149286275543E-008
  -61.1100000000000         8.828254342587825E-008
  -60.9200000000000         8.905447859159059E-008
  -60.7300000000000         9.018158337986978E-008
  -60.5400000000000         9.135091374849824E-008
  -60.3500000000000         9.244366423886045E-008
  -60.1600000000000         9.360435913750892E-008
  -59.9700000000000         9.470957996982276E-008
  -59.7800000000000         9.585762242470707E-008
  -59.5900000000000         9.723461944445851E-008
  -59.4000000000000         9.860153886825810E-008
  -59.2100000000000         1.000800675630952E-007
  -59.0200000000000         1.017061925576188E-007
  -58.8300000000000         1.032847381789622E-007
  -58.6400000000000         1.047221623856611E-007
  -58.4500000000000         1.065275578950722E-007
  -58.2600000000000         1.087059329153678E-007
  -58.0700000000000         1.106685917608017E-007
  -57.8800000000000         1.130138672278773E-007
  -57.6900000000000         1.149887353844993E-007
  -57.5000000000000         1.167025541644439E-007
  -57.3100000000000         1.175790416512163E-007
  -57.1200000000000         1.207320167438165E-007
  -56.9300000000000         1.215708490952414E-007
  -56.7400000000000         1.232293748000417E-007
  -56.5500000000000         1.253149828179974E-007
  -56.3600000000000         1.261541839612315E-007
  -56.1700000000000         1.278937237542430E-007
  -55.9800000000000         1.284609233769235E-007
  -55.7900000000000         1.297457490410728E-007
  -55.6000000000000         1.306318907034479E-007
  -55.4100000000000         1.316570435164728E-007
  -55.2200000000000         1.325891766101119E-007
  -55.0300000000000         1.333467657010795E-007
  -54.8400000000000         1.341148762091846E-007
  -54.6500000000000         1.348969269182014E-007
  -54.4600000000000         1.357859093670958E-007
  -54.2700000000000         1.367533893361252E-007
  -54.0800000000000         1.378606304612178E-007
  -53.8900000000000         1.390707641079888E-007
  -53.7000000000000         1.405461576732501E-007
  -53.5100000000000         1.423184187794307E-007
  -53.3200000000000         1.443594393544658E-007
  -53.1300000000000         1.469160965260253E-007
  -52.9400000000000         1.496147752105269E-007
  -52.7500000000000         1.523298262857360E-007
  -52.5600000000000         1.548380331928441E-007
  -52.3700000000000         1.579148180759600E-007
  -52.1800000000000         1.588787318717878E-007
  -51.9900000000000         1.662021450763899E-007
  -51.8000000000000         1.672626754739480E-007
  -51.6100000000000         1.688360950131412E-007
  -51.4200000000000         1.719640171049781E-007
  -51.2300000000000         1.751608730473738E-007
  -51.0400000000000         1.759901603074838E-007
  -50.8500000000000         1.786146976751225E-007
  -50.6600000000000         1.796323496981664E-007
  -50.4700000000000         1.844390473348038E-007
  -50.2800000000000         1.856469252048825E-007
  -50.0900000000000         1.872887496481650E-007
  -49.9000000000000         1.905212966706511E-007
  -49.7100000000000         1.915161140992293E-007
  -49.5200000000000         1.946396523125679E-007
  -49.3300000000000         1.956726063224144E-007
  -49.1400000000000         1.992413899663054E-007
  -48.9500000000000         2.003870114078336E-007
  -48.7600000000000         2.035711371738170E-007
  -48.5700000000000         2.062487987317526E-007
  -48.3800000000000         2.088928531383980E-007
  -48.1900000000000         2.116907486995411E-007
  -48.0000000000000         2.145006959622797E-007
  -47.8100000000000         2.176015402563993E-007
  -47.6200000000000         2.205367774627416E-007
  -47.4300000000000         2.235682186026506E-007
  -47.2400000000000         2.270395718422313E-007
  -47.0500000000000         2.298544054254553E-007
  -46.8600000000000         2.331438716478331E-007
  -46.6700000000000         2.363168992037640E-007
  -46.4800000000000         2.392061961796299E-007
  -46.2900000000000         2.419719185580623E-007
  -46.1000000000000         2.442299600102993E-007
  -45.9100000000000         2.469638840921681E-007
  -45.7200000000000         2.494705399976430E-007
  -45.5300000000000         2.519132514599933E-007
  -45.3400000000000         2.544695213122441E-007
  -45.1500000000000         2.567632311504346E-007
  -44.9600000000000         2.590294815858840E-007
  -44.7700000000000         2.609295520473268E-007
  -44.5800000000000         2.632122524234954E-007
  -44.3900000000000         2.651221209769071E-007
  -44.2000000000000         2.675835969407473E-007
  -44.0100000000000         2.696954973277179E-007
  -43.8200000000000         2.723293354322624E-007
  -43.6300000000000         2.744154143293977E-007
  -43.4400000000000         2.773309782968875E-007
  -43.2500000000000         2.792186727734704E-007
  -43.0600000000000         2.821647910025441E-007
  -42.8700000000000         2.845539448951313E-007
  -42.6800000000000         2.875042953947563E-007
  -42.4900000000000         2.894955284300970E-007
  -42.3000000000000         2.925728150474633E-007
  -42.1100000000000         2.943438481747303E-007
  -41.9200000000000         2.973508090967726E-007
  -41.7300000000000         2.993826702136523E-007
  -41.5400000000000         3.021761491711120E-007
  -41.3500000000000         3.036866821432082E-007
  -41.1600000000000         3.066271076883145E-007
  -40.9700000000000         3.077869102404761E-007
  -40.7800000000000         3.114694239711654E-007
  -40.5900000000000         3.128242944285590E-007
  -40.4000000000000         3.179320982539601E-007
  -40.2100000000000         3.194280221737947E-007
  -40.0200000000000         3.249061888788979E-007
  -39.8300000000000         3.263695223171181E-007
  -39.6400000000000         3.329117069392743E-007
  -39.4500000000000         3.344816796820310E-007
  -39.2600000000000         3.406173219582169E-007
  -39.0700000000000         3.428400244138378E-007
  -38.8800000000000         3.497975681457384E-007
  -38.6900000000000         3.520133482045296E-007
  -38.5000000000000         3.588097282489582E-007
  -38.3100000000000         3.609317177415603E-007
  -38.1200000000000         3.671840742638966E-007
  -37.9300000000000         3.691889823195341E-007
  -37.7400000000000         3.751083123717270E-007
  -37.5500000000000         3.769754706481183E-007
  -37.3600000000000         3.824563206984669E-007
  -37.1700000000000         3.842174232080187E-007
  -36.9800000000000         3.893266580854176E-007
  -36.7900000000000         3.910516403020681E-007
  -36.6000000000000         3.961920819828657E-007
  -36.4100000000000         3.976742007474791E-007
  -36.2200000000000         4.026467072999636E-007
  -36.0300000000000         4.039879418916634E-007
  -35.8400000000000         4.092300023008688E-007
  -35.6500000000000         4.106109336591860E-007
  -35.4600000000000         4.162391001847498E-007
  -35.2700000000000         4.177272946978827E-007
  -35.0800000000000         4.238115813376242E-007
  -34.8900000000000         4.253142561445997E-007
  -34.7000000000000         4.320683227807067E-007
  -34.5100000000000         4.336474727581144E-007
  -34.3200000000000         4.405234748707063E-007
  -34.1300000000000         4.425012568266346E-007
  -33.9400000000000         4.506585420862354E-007
  -33.7500000000000         4.528841024682237E-007
  -33.5600000000000         4.604406105313305E-007
  -33.3700000000000         4.624166271186531E-007
  -33.1800000000000         4.707863239154041E-007
  -32.9900000000000         4.724205395180684E-007
  -32.8000000000000         4.797152645259221E-007
  -32.6100000000000         4.813460004577320E-007
  -32.4200000000000         4.891252997634916E-007
  -32.2300000000000         4.908722828094270E-007
  -32.0400000000000         4.984055030596325E-007
  -31.8500000000000         5.001773360684355E-007
  -31.6600000000000         5.078288964483871E-007
  -31.4700000000000         5.095828381807061E-007
  -31.2800000000000         5.171447189636658E-007
  -31.0900000000000         5.190650606949894E-007
  -30.9000000000000         5.267062047649849E-007
  -30.7100000000000         5.287545995332160E-007
  -30.5200000000000         5.362354900805064E-007
  -30.3300000000000         5.381833998081343E-007
  -30.1400000000000         5.458824261611929E-007
  -29.9500000000000         5.476855606236371E-007
  -29.7600000000000         5.555397708397347E-007
  -29.5700000000000         5.573393451050064E-007
  -29.3800000000000         5.646324821437339E-007
  -29.1900000000000         5.667024928427116E-007
  -29.0000000000000         5.743776164049108E-007
  -28.8100000000000         5.768471540325224E-007
  -28.6200000000000         5.835437413008445E-007
  -28.4300000000000         5.864477886093530E-007
  -28.2400000000000         5.926383290769162E-007
  -28.0500000000000         5.952872729729828E-007
  -27.8600000000000         6.003550603422479E-007
  -27.6700000000000         6.047069118232581E-007
  -27.4800000000000         6.086008137267173E-007
  -27.2900000000000         6.127353208378790E-007
  -27.1000000000000         6.168981522662542E-007
  -26.9100000000000         6.207981982353622E-007
  -26.7200000000000         6.244077459695512E-007
  -26.5300000000000         6.284458724330802E-007
  -26.3400000000000         6.323490268374283E-007
  -26.1500000000000         6.366265901332104E-007
  -25.9600000000000         6.409825519252833E-007
  -25.7700000000000         6.455623831076276E-007
  -25.5800000000000         6.502301260620209E-007
  -25.3900000000000         6.546494377647495E-007
  -25.2000000000000         6.589905020053240E-007
  -25.0100000000000         6.639209749017301E-007
  -24.8200000000000         6.686530216963281E-007
  -24.6300000000000         6.738194684869696E-007
  -24.4400000000000         6.794152501759184E-007
  -24.2500000000000         6.846064427912883E-007
  -24.0600000000000         6.901849734870079E-007
  -23.8700000000000         6.953228218529372E-007
  -23.6800000000000         7.001613300270748E-007
  -23.4900000000000         7.054192154739812E-007
  -23.3000000000000         7.109154189702766E-007
  -23.1100000000000         7.162301016107303E-007
  -22.9200000000000         7.216009901997431E-007
  -22.7300000000000         7.272069931078176E-007
  -22.5400000000000         7.325840970411283E-007
  -22.3500000000000         7.379614065722247E-007
  -22.1600000000000         7.436531044196937E-007
  -21.9700000000000         7.492616673810059E-007
  -21.7800000000000         7.545924976552605E-007
  -21.5900000000000         7.604091211292671E-007
  -21.4000000000000         7.659429826842213E-007
  -21.2100000000000         7.710074290640225E-007
  -21.0200000000000         7.774038945029844E-007
  -20.8300000000000         7.802842493977558E-007
  -20.6400000000000         7.884180580892582E-007
  -20.4500000000000         7.903179837323220E-007
  -20.2600000000000         8.009892608415151E-007
  -20.0700000000000         8.025297490765816E-007
  -19.8800000000000         8.075562052298677E-007
  -19.6900000000000         8.154015522394768E-007
  -19.5000000000000         8.175628022247605E-007
  -19.3100000000000         8.289262798498729E-007
  -19.1200000000000         8.306777321937002E-007
  -18.9300000000000         8.379378381972210E-007
  -18.7400000000000         8.400872608579718E-007
  -18.5500000000000         8.512516204138212E-007
  -18.3600000000000         8.528461979436615E-007
  -18.1700000000000         8.593791633412548E-007
  -17.9800000000000         8.666784732042070E-007
  -17.7900000000000         8.690468365837803E-007
  -17.6000000000000         8.775876017795313E-007
  -17.4100000000000         8.792983418601259E-007
  -17.2200000000000         8.881682318937482E-007
  -17.0300000000000         8.898331978066794E-007
  -16.8400000000000         8.987136819875083E-007
  -16.6500000000000         9.005892467623400E-007
  -16.4600000000000         9.106207622433481E-007
  -16.2700000000000         9.124523418376574E-007
  -16.0800000000000         9.228709973990548E-007
  -15.8900000000000         9.246865218892212E-007
  -15.7000000000000         9.347859391788063E-007
  -15.5100000000000         9.368673113955625E-007
  -15.3200000000000         9.484911006053560E-007
  -15.1300000000000         9.504461684162395E-007
  -14.9400000000000         9.598899826012651E-007
  -14.7500000000000         9.619427142808033E-007
  -14.5600000000000         9.737382568101639E-007
  -14.3700000000000         9.755827591146034E-007
  -14.1800000000000         9.841504841894334E-007
  -13.9900000000000         9.863185619835332E-007
  -13.8000000000000         9.970682272024288E-007
  -13.6100000000000         9.988439420182540E-007
  -13.4200000000000         1.007325228005346E-006
  -13.2300000000000         1.009111998239690E-006
  -13.0400000000000         1.019675167358325E-006
  -12.8500000000000         1.021371397041080E-006
  -12.6600000000000         1.030031883942070E-006
  -12.4700000000000         1.031935173904954E-006
  -12.2800000000000         1.042838529835308E-006
  -12.0900000000000         1.044681885113972E-006
  -11.9000000000000         1.054829318418766E-006
  -11.7100000000000         1.056795241364742E-006
  -11.5200000000000         1.068589471760687E-006
  -11.3300000000000         1.070584997469501E-006
  -11.1400000000000         1.080639202939480E-006
  -10.9500000000000         1.082737418186189E-006
  -10.7600000000000         1.095025846044305E-006
  -10.5700000000000         1.097032669053831E-006
  -10.3800000000000         1.106060778300920E-006
  -10.1900000000000         1.108305470891889E-006
  -10.0000000000000         1.120872510275992E-006
  -9.81000000000000         1.122883325888545E-006
  -9.62000000000000         1.131299680896917E-006
  -9.42999999999999         1.133711713627500E-006
  -9.23999999999999         1.145602397866113E-006
  -9.05000000000000         1.147587276234295E-006
  -8.86000000000000         1.157300597889785E-006
  -8.67000000000000         1.159387969684218E-006
  -8.48000000000000         1.170950590044125E-006
  -8.28999999999999         1.172973168327211E-006
  -8.09999999999999         1.182698578395161E-006
  -7.91000000000000         1.184950253651781E-006
  -7.72000000000000         1.196963983413907E-006
  -7.53000000000000         1.199084460791992E-006
  -7.34000000000000         1.209263239828134E-006
  -7.15000000000001         1.211493013912684E-006
  -6.95999999999999         1.222873606478953E-006
  -6.77000000000000         1.225113677392387E-006
  -6.58000000000000         1.234799479992192E-006
  -6.39000000000000         1.237195213129228E-006
  -6.20000000000000         1.249428948971086E-006
  -6.01000000000001         1.251548713460983E-006
  -5.81999999999999         1.256843654859309E-006
  -5.63000000000000         1.267459104320001E-006
  -5.44000000000000         1.269942528252321E-006
  -5.25000000000000         1.278833831438282E-006
  -5.06000000000000         1.281238129583294E-006
  -4.87000000000000         1.293527653072664E-006
  -4.67999999999999         1.295595949216992E-006
  -4.48999999999999         1.298780675696744E-006
  -4.30000000000000         1.309138902184627E-006
  -4.11000000000000         1.311464240210033E-006
  -3.92000000000000         1.315746326276072E-006
  -3.73000000000000         1.328686847409067E-006
  -3.53999999999999         1.330965471595127E-006
  -3.34999999999999         1.334186544865325E-006
  -3.16000000000000         1.343043883214023E-006
  -2.97000000000000         1.345656872401264E-006
  -2.78000000000000         1.358631536044192E-006
  -2.59000000000000         1.360914745294174E-006
  -2.40000000000001         1.365043992622530E-006
  -2.20999999999999         1.377742616746991E-006
  -2.02000000000000         1.380177464408702E-006
  -1.83000000000000         1.384004717644503E-006
  -1.64000000000000         1.394717926021471E-006
  -1.45000000000000         1.397218672534601E-006
  -1.26000000000001         1.402563889925308E-006
  -1.06999999999999         1.415272129355825E-006
 -0.879999999999995         1.417773282255877E-006
 -0.689999999999998         1.421102693257491E-006
 -0.500000000000000         1.425986996683916E-006
 -0.310000000000002         1.436544299208037E-006
 -0.120000000000005         1.439140204267995E-006
  7.000000000000739E-002    1.443139758144949E-006
  0.260000000000005         1.450064998360267E-006
  0.450000000000003         1.452991383348754E-006
  0.640000000000001         1.467990934607039E-006
  0.829999999999998         1.470101238838315E-006
   1.02000000000000         1.473518107153828E-006
   1.21000000000001         1.478337872588667E-006
   1.40000000000001         1.483013321920606E-006
   1.59000000000000         1.487552113961354E-006
   1.78000000000000         1.491971948236257E-006
   1.97000000000000         1.496449649721756E-006
   2.16000000000000         1.500668220360220E-006
   2.34999999999999         1.518743505752179E-006
   2.54000000000001         1.521183958676047E-006
   2.73000000000000         1.524958919030334E-006
   2.92000000000000         1.529572275580963E-006
   3.11000000000000         1.534511705985641E-006
   3.30000000000000         1.539546204228120E-006
   3.48999999999999         1.544844791138341E-006
   3.68000000000001         1.550216894411903E-006
   3.87000000000000         1.556365949314868E-006
   4.06000000000000         1.561351083758992E-006
   4.25000000000000         1.567443719772242E-006
   4.44000000000000         1.572314114994691E-006
   4.63000000000000         1.578542081743388E-006
   4.82000000000001         1.583564174052616E-006
   5.01000000000001         1.590455307734265E-006
   5.20000000000000         1.595362168006066E-006
   5.39000000000000         1.601589794930090E-006
   5.58000000000000         1.606750775775883E-006
   5.77000000000000         1.612117033456641E-006
   5.96000000000001         1.617656510187712E-006
   6.15000000000001         1.622951255241475E-006
   6.34000000000000         1.628419369819788E-006
   6.53000000000000         1.633667704135637E-006