  -105.000000000000         2.389869707052254E-019
  -104.810000000000         1.810164836662465E-019
  -104.620000000000         8.456153258523979E-020
  -104.430000000000        -2.334995494419053E-020
  -104.240000000000        -1.126764070960256E-019
  -104.050000000000        -1.590149587409670E-019
  -103.860000000000        -1.506134950026331E-019
  -103.670000000000        -9.170388991165440E-020
  -103.480000000000        -1.187408553046593E-021
  -103.290000000000         9.293947367940577E-020
  -103.100000000000         1.617863426496289E-019
  -102.910000000000         1.840035184305725E-019
  -102.720000000000         1.520004896544578E-019
  -102.530000000000         7.415454490123029E-020
  -102.340000000000        -2.761790548235256E-020
  -102.150000000000        -1.242186543005083E-019
  -101.960000000000        -1.878163927443570E-019
  -101.770000000000        -1.999449694830465E-019
  -101.580000000000        -1.569024081130832E-019
  -101.390000000000        -7.087318025882040E-020
  -101.200000000000         3.356704125591977E-020
  -101.010000000000         1.265567387711387E-019
  -100.820000000000         1.815949827635467E-019
  -100.630000000000         1.832062681006210E-019
  -100.440000000000         1.313935200644381E-019
  -100.250000000000         4.159532045645491E-020
  -100.060000000000        -5.982440120510960E-020
  -99.8700000000000        -1.432350757200369E-019
  -99.6800000000000        -1.843274173989679E-019
  -99.4900000000000        -1.711519404957584E-019
  -99.3000000000000        -1.075773637039658E-019
  -99.1100000000000        -1.216540791946657E-020
  -98.9200000000000         8.722149414954862E-020
  -98.7300000000000         1.615232125753292E-019
  -98.5400000000000         1.889414991917635E-019
  -98.3500000000000         1.612892796922221E-019
  -98.1600000000000         8.637648313546023E-020
  -97.9700000000000        -1.426061562539034E-020
  -97.7800000000000        -1.116185401781658E-019
  -97.5900000000000        -1.776474611213673E-019
  -97.4000000000000        -1.933874591222090E-019
  -97.2100000000000        -1.544654638196146E-019
  -97.0200000000000        -7.236460609383229E-020
  -96.8300000000000         2.890387473461925E-020
  -96.6400000000000         1.197696727715933E-019
  -96.4500000000000         1.736986095868703E-019
  -96.2600000000000         1.749173396960042E-019
  -96.0700000000000         1.230144934044078E-019
  -95.8800000000000         3.307135570437743E-020
  -95.6900000000000        -6.871871649159718E-020
  -95.5000000000000        -1.526635397983600E-019
  -95.3100000000000        -1.941991588089727E-019
  -95.1200000000000        -1.810256705724570E-019
  -94.9300000000000        -1.166889673606927E-019
  -94.7400000000000        -1.957708001057586E-020
  -94.5500000000000         8.237964653942482E-020
  -94.3600000000000         1.597795583815610E-019
  -94.1700000000000         1.902644509243679E-019
  -93.9800000000000         1.650123552398029E-019
  -93.7900000000000         9.131602582707891E-020
  -93.6000000000000        -9.515137880501588E-021
  -93.4100000000000        -1.083277763542070E-019
  -93.2200000000000        -1.765744028173226E-019
  -93.0300000000000        -1.945766730258257E-019
  -92.8400000000000        -1.572007385818168E-019
  -92.6500000000000        -7.530845129094588E-020
  -92.4600000000000         2.741904261458589E-020
  -92.2700000000000         1.213522581229366E-019
  -92.0800000000000         1.794882823831809E-019
  -91.8900000000000         1.852556060189592E-019
  -91.7000000000000         1.372968232696476E-019
  -91.5100000000000         4.984239010996805E-020
  -91.3200000000000        -5.144178835752663E-020
  -91.1300000000000        -1.369348379327510E-019
  -90.9400000000000        -1.816946667637514E-019
  -90.7500000000000        -1.727269539991696E-019
  -90.5600000000000        -1.127691981258107E-019
  -90.3700000000000        -1.949130208668602E-020
  -90.1800000000000         7.964578213425535E-020
  -89.9900000000000         1.553708961176333E-019
  -89.8000000000000         1.851055656220445E-019
  -89.6100000000000         1.595302542459513E-019
  -89.4200000000000         8.531844091292419E-020
  -89.2300000000000        -1.675380749760192E-020
  -89.0400000000000        -1.177827300830122E-019
  -88.8500000000000        -1.890724647597967E-019
  -88.6600000000000        -2.104160725991798E-019
  -88.4700000000000        -1.759155400276395E-019
  -88.2800000000000        -9.564833706340785E-020
  -88.0900000000000         7.298792237627558E-021
  -87.9000000000000         1.035552313257766E-019
  -87.7100000000000         1.659870498853223E-019
  -87.5200000000000         1.775386958456189E-019
  -87.3300000000000         1.361307470334677E-019
  -87.1400000000000         5.520509550451129E-020
  -86.9500000000000        -4.023640926472034E-020
  -86.7600000000000        -1.209558260689110E-019
  -86.5700000000000        -1.620468419540399E-019
  -86.3800000000000        -1.502570729904889E-019
  -86.1900000000000        -8.792426366776715E-020
  -86.0000000000000         7.635652420620918E-021
  -85.8100000000000         1.091207000970218E-019
  -85.6200000000000         1.871600299119289E-019
  -85.4300000000000         2.188440732502637E-019
  -85.2400000000000         1.943836959044435E-019
  -85.0500000000000         1.199697203782287E-019
  -84.8600000000000         1.601346499066487E-020
  -84.6700000000000        -8.871579249916980E-020
  -84.4800000000000        -1.653624167592857E-019
  -84.2900000000000        -1.932808963033729E-019
  -84.1000000000000        -1.659624784876712E-019
  -83.9100000000000        -9.287208225129202E-020
  -83.7200000000000         3.347724765556149E-021
  -83.5300000000000         9.350252824922222E-020
  -83.3400000000000         1.503759913130146E-019
  -83.1500000000000         1.566764018693658E-019
  -82.9600000000000         1.100824927496512E-019
  -82.7700000000000         2.392306238905205E-020
  -82.5800000000000        -7.669746877072469E-020
  -82.3900000000000        -1.621925146936118E-019
  -82.2000000000000        -2.070878850624512E-019
  -82.0100000000000        -1.974325655669789E-019
  -81.8200000000000        -1.348852023455226E-019
  -81.6300000000000        -3.629083459466806E-020
  -81.4400000000000         7.113927063805902E-020
  -81.2500000000000         1.576578198043430E-019
  -81.0600000000000         1.995546308110161E-019
  -80.8700000000000         1.859820405158856E-019
  -80.6800000000000         1.220479083724809E-019
  -80.4900000000000         2.728158349762042E-020
  -80.3000000000000        -7.007153067456369E-020
  -80.1100000000000        -1.412619416552396E-019
  -79.9200000000000        -1.653730622617800E-019
  -79.7300000000000        -1.353759440619649E-019
  -79.5400000000000        -6.015713809399666E-020
  -79.3500000000000         3.806623660029322E-020
  -79.1600000000000         1.302028966743363E-019
  -78.9700000000000         1.887536208734565E-019
  -78.7800000000000         1.958343088739557E-019
  -78.5900000000000         1.484188255737060E-019
  -78.4000000000000         5.926593244377393E-020
  -78.2100000000000        -4.674555333929135E-020
  -78.0200000000000        -1.398037478118219E-019
  -77.8300000000000        -1.937755759693728E-019
  -77.6400000000000        -1.937400530510743E-019
  -77.4500000000000        -1.402656843876208E-019
  -77.2600000000000        -4.920693155450080E-020
  -77.0700000000000         5.290972160288333E-020
  -76.8800000000000         1.365725229281357E-019
  -76.6900000000000         1.778240972761453E-019
  -76.5000000000000         1.651838453814120E-019
  -76.3100000000000         1.029411690644679E-019
  -76.1200000000000         9.854169376584659E-021
  -75.9300000000000        -8.637182707518702E-020
  -75.7400000000000        -1.572121020201706E-019
  -75.5500000000000        -1.816758751859145E-019
  -75.3600000000000        -1.524411163954036E-019
  -75.1700000000000        -7.798453970776842E-020
  -74.9800000000000         1.990215167031120E-020
  -74.7900000000000         1.124745208533618E-019
  -74.6000000000000         1.724219572289793E-019
  -74.4100000000000         1.818460397561683E-019
  -74.2200000000000         1.375177734831814E-019
  -74.0300000000000         5.188277485981424E-020
  -73.8400000000000        -5.049044756832338E-020
  -73.6500000000000        -1.400014671533204E-019
  -73.4600000000000        -1.905948297022561E-019
  -73.2700000000000        -1.873280377270175E-019
  -73.0800000000000        -1.307251772122699E-019
  -72.8900000000000        -3.664946484552424E-020
  -72.7000000000000         6.826346735983678E-020
  -72.5100000000000         1.542811483108157E-019
  -72.3200000000000         1.971352137685023E-019
  -72.1300000000000         1.849968840193852E-019
  -71.9400000000000         1.218567147114923E-019
  -71.7500000000000         2.633247646615488E-020
  -71.5600000000000        -7.375543598351681E-020
  -71.3700000000000        -1.494768519506878E-019
  -71.1800000000000        -1.792067466994003E-019
  -70.9900000000000        -1.549106229375316E-019
  -70.8000000000000        -8.446231849307540E-020
  -70.6100000000000         1.068411018348594E-020
  -70.4200000000000         1.017851628531074E-019
  -70.2300000000000         1.612220686451030E-019
  -70.0400000000000         1.705885659632672E-019
  -69.8500000000000         1.261075844167302E-019
  -69.6600000000000         3.981133954510604E-020
  -69.4700000000000        -6.385880036288320E-020
  -69.2800000000000        -1.550611420639217E-019
  -69.0900000000000        -2.071601710680546E-019
  -68.9000000000000        -2.044488320414503E-019
  -68.7100000000000        -1.467437670407463E-019
  -68.5200000000000        -4.950451974001881E-020
  -68.3300000000000         6.057358520552776E-020
  -68.1400000000000         1.532198093977270E-019
  -67.9500000000000         2.032756950289180E-019
  -67.7600000000000         1.978870054383809E-019
  -67.5700000000000         1.401210997064335E-019
  -67.3800000000000         4.797835545914091E-020
  -67.1900000000000        -5.089763678629223E-020
  -67.0000000000000        -1.272705537376549E-019
  -66.8100000000000        -1.587949053289888E-019
  -66.6200000000000        -1.364841556812674E-019
  -66.4300000000000        -6.729400122410593E-020
  -66.2400000000000         2.792924714579317E-020
  -66.0500000000000         1.205421566570052E-019
  -65.8600000000000         1.824680915436825E-019
  -65.6700000000000         1.943945509904339E-019
  -65.4800000000000         1.514158945090856E-019
  -65.2900000000000         6.448477278667068E-020
  -65.1000000000000        -4.273709094716075E-020
  -64.9100000000000        -1.407019079189621E-019
  -64.7200000000000        -2.024898146296250E-019
  -64.5300000000000        -2.115522594883292E-019
  -64.3400000000000        -1.664504232469890E-019
  -64.1500000000000        -8.122013903992835E-020
  -63.9600000000000         1.874500356726044E-020
  -63.7700000000000         1.041026902066931E-019
  -63.5800000000000         1.501110043824484E-019
  -63.3900000000000         1.438249153336722E-019
  -63.2000000000000         8.783866989362974E-020
  -63.0100000000000        -5.139095056887185E-022
  -62.8200000000000        -9.425655171013885E-020
  -62.6300000000000        -1.646678577198326E-019
  -62.4400000000000        -1.896766310495527E-019
  -62.2500000000000        -1.603221515150610E-019
  -62.0600000000000        -8.341594393865959E-020
  -61.8700000000000         2.036055631322100E-020
  -61.6800000000000         1.223767756278219E-019
  -61.4900000000000         1.942899245774895E-019
  -61.3000000000000         2.162199210355842E-019
  -61.1100000000000         1.824889131837976E-019
  -60.9200000000000         1.032490758239034E-019
  -60.7300000000000         1.518202341083715E-021
  -60.5400000000000        -9.351303015662130E-020
  -60.3500000000000        -1.549463398364127E-019
  -60.1600000000000        -1.659443904342884E-019
  -59.9700000000000        -1.245474364005410E-019
  -59.7800000000000        -4.415272353537914E-020
  -59.5900000000000         5.046685122950535E-020
  -59.4000000000000         1.304418903514658E-019
  -59.2100000000000         1.712726295835678E-019
  -59.0200000000000         1.600269501494366E-019
  -58.8300000000000         9.917490166031235E-020
  -58.6400000000000         5.932512081623383E-021
  -58.4500000000000        -9.270871380209210E-020
  -58.2600000000000        -1.678284540101051E-019
  -58.0700000000000        -1.970154748680111E-019
  -57.8800000000000        -1.709355107421637E-019
  -57.6900000000000        -9.611598390448693E-020
  -57.5000000000000         6.859918136830693E-021
  -57.3100000000000         1.092252207659408E-019
  -57.1200000000000         1.822715601822979E-019
  -56.9300000000000         2.055873327305457E-019
  -56.7400000000000         1.729181464103669E-019
  -56.5500000000000         9.395608743883117E-020
  -56.3600000000000        -8.467467882083529E-021
  -56.1700000000000        -1.049834410325464E-019
  -55.9800000000000        -1.681731317987646E-019
  -55.7900000000000        -1.804777852768980E-019
  -55.6000000000000        -1.392297794270230E-019
  -55.4100000000000        -5.734917828197426E-020
  -55.2200000000000         4.048164201502388E-020
  -55.0300000000000         1.250379935199886E-019
  -54.8400000000000         1.710648022031473E-019
  -54.6500000000000         1.646175808844260E-019
  -54.4600000000000         1.071175249182846E-019
  -54.2700000000000         1.495378224741437E-020
  -54.0800000000000        -8.525645960057346E-020
  -53.8900000000000        -1.643890417614879E-019
  -53.7000000000000        -1.992841502142505E-019
  -53.5100000000000        -1.795049987897650E-019
  -53.3200000000000        -1.104078285776002E-019
  -53.1300000000000        -1.161978643255269E-020
  -52.9400000000000         8.863480608568269E-020
  -52.7500000000000         1.617042169929240E-019
  -52.5600000000000         1.867950108353009E-019
  -52.3700000000000         1.569703396814472E-019
  -52.1800000000000         8.113229685990061E-020
  -51.9900000000000        -1.857439960267259E-020
  -51.8000000000000        -1.131822056312932E-019
  -51.6100000000000        -1.752904654078032E-019
  -51.4200000000000        -1.870013174197775E-019
  -51.2300000000000        -1.451015779583605E-019
  -51.0400000000000        -6.197993671560946E-020
  -50.8500000000000         3.799579831079750E-020
  -50.6600000000000         1.255912190979119E-019
  -50.4700000000000         1.752333328812487E-019
  -50.2800000000000         1.724653482861858E-019
  -50.0900000000000         1.181585780385641E-019
  -49.9000000000000         2.826350853405311E-020
  -49.7100000000000        -7.082024667705896E-020
  -49.5200000000000        -1.499095681712542E-019
  -49.3300000000000        -1.855193438120988E-019
  -49.1400000000000        -1.667038152668665E-019
  -48.9500000000000        -9.827026711630538E-020
  -48.7600000000000         5.789336979359938E-022
  -48.5700000000000         1.017949019344187E-019
  -48.3800000000000         1.766145031279416E-019
  -48.1900000000000         2.039062912236227E-019
  -48.0000000000000         1.762934736436585E-019
  -47.8100000000000         1.022701650948482E-019
  -47.6200000000000         3.701998957256177E-021
  -47.4300000000000        -9.055269048005390E-020
  -47.2400000000000        -1.530436524849453E-019
  -47.0500000000000        -1.657169664945766E-019
  -46.8600000000000        -1.251806178853470E-019
  -46.6700000000000        -4.372023647528919E-020
  -46.4800000000000         5.424266879727740E-020
  -46.2900000000000         1.392416483770162E-019
  -46.1000000000000         1.853584790223010E-019
  -45.9100000000000         1.778183980161241E-019
  -45.7200000000000         1.173647895112493E-019
  -45.5300000000000         2.012652491895835E-020
  -45.3400000000000        -8.698929920883665E-020
  -45.1500000000000        -1.740368274339490E-019
  -44.9600000000000        -2.166513162412248E-019
  -44.7700000000000        -2.030528845571320E-019
  -44.5800000000000        -1.374173693910179E-019
  -44.3900000000000        -3.865072387690286E-020
  -44.2000000000000         6.507519962079452E-020
  -44.0100000000000         1.444503664237455E-019
  -43.8200000000000         1.774730923419881E-019
  -43.6300000000000         1.557717486384047E-019
  -43.4400000000000         8.696565992349316E-020
  -43.2500000000000        -7.623835541415536E-021
  -43.0600000000000        -9.924462217820264E-020
  -42.8700000000000        -1.601344017416357E-019
  -42.6800000000000        -1.716329379359230E-019
  -42.4900000000000        -1.296279991042630E-019
  -42.3000000000000        -4.576300386266315E-020
  -42.1100000000000         5.593220191437350E-020
  -41.9200000000000         1.460046063013014E-019
  -41.7300000000000         1.981195891062845E-019
  -41.5400000000000         1.967116247620052E-019
  -41.3500000000000         1.415287332793048E-019
  -41.1600000000000         4.774738433753414E-020
  -40.9700000000000        -5.838373557301197E-020
  -40.7800000000000        -1.471089729489361E-019
  -40.5900000000000        -1.937380470084523E-019
  -40.4000000000000        -1.857313927528335E-019
  -40.2100000000000        -1.262465874919954E-019
  -40.0200000000000        -3.313365907401059E-020
  -39.8300000000000         6.630761262623944E-020
  -39.6400000000000         1.432731729921838E-019
  -39.4500000000000         1.757984363544635E-019
  -39.2600000000000         1.550909571907144E-019
  -39.0700000000000         8.802453276433941E-020
  -38.8800000000000        -4.928531891824101E-021
  -38.6900000000000        -9.573109386621171E-020
  -38.5000000000000        -1.570267580403256E-019
  -38.3100000000000        -1.701885866440082E-019
  -38.1200000000000        -1.308125496359854E-019
  -37.9300000000000        -5.004507152646283E-020
  -37.7400000000000         4.864103027436411E-020
  -37.5500000000000         1.362726893826298E-019
  -37.3600000000000         1.868085592919835E-019
  -37.1700000000000         1.847261026626875E-019
  -36.9800000000000         1.295703189877195E-019
  -36.7900000000000         3.615281353571988E-020
  -36.6000000000000        -6.965851505654378E-020
  -36.4100000000000        -1.583507401185922E-019
  -36.2200000000000        -2.052435990204420E-019
  -36.0300000000000        -1.975823218971974E-019
  -35.8400000000000        -1.381855332451418E-019
  -35.6500000000000        -4.458375086041099E-020
  -35.4600000000000         5.610124095415937E-020
  -35.2700000000000         1.350411302020232E-019
  -35.0800000000000         1.700524419668223E-019
  -34.8900000000000         1.519911917584174E-019
  -34.7000000000000         8.734559122449948E-020
  -34.5100000000000        -3.713225102481723E-021
  -34.3200000000000        -9.325169525381279E-020
  -34.1300000000000        -1.537520472155557E-019
  -33.9400000000000        -1.661826881894816E-019
  -33.7500000000000        -1.256189772917702E-019
  -33.5600000000000        -4.277122656273862E-020
  -33.3700000000000         5.904095383475266E-020
  -33.1800000000000         1.506014097159438E-019
  -32.9900000000000         2.052506364769322E-019
  -32.8000000000000         2.066234643861117E-019
  -32.6100000000000         1.534266553614620E-019
  -32.4200000000000         5.987606272464063E-020
  -32.2300000000000        -4.832908540752902E-020
  -32.0400000000000        -1.413339772040492E-019
  -31.8500000000000        -1.936546864791686E-019
  -31.6600000000000        -1.914583765054477E-019
  -31.4700000000000        -1.365034473535022E-019
  -31.2800000000000        -4.559523615555123E-020
  -31.0900000000000         5.429945900358026E-020
  -30.9000000000000         1.338751347155163E-019
  -30.7100000000000         1.699807460612320E-019
  -30.5200000000000         1.523130775953942E-019
  -30.3300000000000         8.636411691254227E-020
  -30.1400000000000        -8.225531863507354E-021
  -29.9500000000000        -1.034123582332593E-019
  -29.7600000000000        -1.709134916739490E-019
  -29.5700000000000        -1.904200545453071E-019
  -29.3800000000000        -1.554916008676367E-019
  -29.1900000000000        -7.543718342453333E-020
  -29.0000000000000         2.735715932031334E-020
  -28.8100000000000         1.238856747959408E-019
  -28.6200000000000         1.869024789882965E-019
  -28.4300000000000         1.987973650227197E-019
  -28.2400000000000         1.566781095284880E-019
  -28.0500000000000         7.317703924139163E-020
  -27.8600000000000        -2.725213289550933E-020
  -27.6700000000000        -1.154622520012859E-019
  -27.4800000000000        -1.660843152136507E-019
  -27.2900000000000        -1.648790548221106E-019
  -27.1000000000000        -1.128396059408004E-019
  -26.9100000000000        -2.586330549673512E-020
  -26.7200000000000         6.990701324448161E-020
  -26.5300000000000         1.457214003637589E-019
  -26.3400000000000         1.786261622469127E-019
  -26.1500000000000         1.581878361765344E-019
  -25.9600000000000         8.957170216651394E-020
  -25.7700000000000        -7.932646371080940E-021
  -25.5800000000000        -1.065124887508980E-019
  -25.3900000000000        -1.779216798814902E-019
  -25.2000000000000        -2.016931221325763E-019
  -25.0100000000000        -1.710794480070242E-019
  -24.8200000000000        -9.499940355897282E-020
  -24.6300000000000         4.565021674467180E-021
  -24.4400000000000         9.895780251545195E-020
  -24.2500000000000         1.611715097772842E-019
  -24.0600000000000         1.736930393030332E-019
  -23.8700000000000         1.335930983569672E-019
  -23.6800000000000         5.336872745725357E-020
  -23.4900000000000        -4.272180478437619E-020
  -23.3000000000000        -1.257727626811521E-019
  -23.1100000000000        -1.707148330481394E-019
  -22.9200000000000        -1.636799970044105E-019
  -22.7300000000000        -1.060855570241087E-019
  -22.5400000000000        -1.424403681693454E-020
  -22.3500000000000         8.537895987028873E-020
  -22.1600000000000         1.638692820401159E-019
  -21.9700000000000         1.982893914478371E-019
  -21.7800000000000         1.783814356945000E-019
  -21.5900000000000         1.096042696770362E-019
  -21.4000000000000         1.161478300085295E-020
  -21.2100000000000        -8.738343045299847E-020
  -21.0200000000000        -1.588015898023235E-019
  -20.8300000000000        -1.819746120559833E-019
  -20.6400000000000        -1.501964035171977E-019
  -20.4500000000000        -7.271375281603523E-020
  -20.2600000000000         2.791041410816400E-020
  -20.0700000000000         1.223003433837586E-019
  -19.8800000000000         1.827487005930993E-019
  -19.6900000000000         1.912195237156681E-019
  -19.5000000000000         1.445633946670298E-019
  -19.3100000000000         5.544493055267242E-020
  -19.1200000000000        -5.128288516497056E-020
  -18.9300000000000        -1.457158869678833E-019
  -18.7400000000000        -2.014942489895175E-019
  -18.5500000000000        -2.033755578295112E-019
  -18.3600000000000        -1.515915773940019E-019
  -18.1700000000000        -6.172377310283894E-020
  -17.9800000000000         3.986298159581403E-020
  -17.7900000000000         1.236944018598330E-019
  -17.6000000000000         1.657331898369422E-019
  -17.4100000000000         1.543185433115755E-019
  -17.2200000000000         9.349780458789029E-020
  -17.0300000000000         1.801263897723208E-021
  -16.8400000000000        -9.317388778489254E-020
  -16.6500000000000        -1.628022193533616E-019
  -16.4600000000000        -1.857699659241352E-019
  -16.2700000000000        -1.543030419243478E-019
  -16.0800000000000        -7.647210380349608E-020
  -15.8900000000000         2.610419707614140E-020
  -15.7000000000000         1.244972797741892E-019
  -15.5100000000000         1.908337556353144E-019
  -15.3200000000000         2.063503992414119E-019
  -15.1300000000000         1.667982952924868E-019
  -14.9400000000000         8.363985577737219E-020
  -14.7500000000000        -1.928693968261822E-020
  -14.5600000000000        -1.126537164709492E-019
  -14.3700000000000        -1.700817563482077E-019
  -14.1800000000000        -1.757081276000261E-019
  -13.9900000000000        -1.287061089856715E-019
  -13.8000000000000        -4.346168159850932E-020
  -13.6100000000000         5.464556203165601E-020
  -13.4200000000000         1.366392122979090E-019
  -13.2300000000000         1.783751936523823E-019
  -13.0400000000000         1.675499358821236E-019
  -12.8500000000000         1.072464518034018E-019
  -12.6600000000000         1.499213034651621E-020
  -12.4700000000000        -8.238375504541896E-020
  -12.2800000000000        -1.565827866186407E-019
  -12.0900000000000        -1.860770885000859E-019
  -11.9000000000000        -1.623659165537708E-019
  -11.7100000000000        -9.244051657451893E-020
  -11.5200000000000         3.254800936781230E-021
  -11.3300000000000         9.677846538506398E-020
  -11.1400000000000         1.608425457472861E-019
  -10.9500000000000         1.767911736968933E-019
  -10.7600000000000         1.400766888254874E-019
  -10.5700000000000         6.162498513320174E-020
  -10.3800000000000        -3.531910209150280E-020
  -10.1900000000000        -1.219518352684442E-019
  -10.0000000000000        -1.723069129811399E-019
  -9.81000000000000        -1.708445398321836E-019
  -9.62000000000000        -1.170293600875714E-019
  -9.42999999999999        -2.556850831625431E-020
  -9.23999999999999         7.776699962153898E-020
  -9.05000000000000         1.635423785533586E-019
  -8.86000000000000         2.071514247810651E-019
  -8.67000000000000         1.959429069200460E-019
  -8.48000000000000         1.329027012193976E-019
  -8.28999999999999         3.580448709098677E-020
  -8.09999999999999        -6.793715827834603E-020
  -7.91000000000000        -1.492150229465309E-019
  -7.72000000000000        -1.856582258630804E-019
  -7.53000000000000        -1.680840099930166E-019
  -7.34000000000000        -1.031015792484096E-019
  -7.15000000000001        -1.112523764528343E-020
  -6.95999999999999         7.961453570698480E-020
  -6.77000000000000         1.413230482492104E-019
  -6.58000000000000         1.547705872746423E-019
  -6.39000000000000         1.149478574896285E-019
  -6.20000000000000         3.260280638564966E-020
  -6.01000000000001        -6.880386847278371E-020
  -5.81999999999999        -1.598605019225000E-019
  -5.63000000000000        -2.137303219623102E-019
  -5.44000000000000        -2.139617993836315E-019
  -5.25000000000000        -1.593052840777807E-019
  -5.06000000000000        -6.413160708782484E-020
  -4.87000000000000         4.566680127376664E-020
  -4.67999999999999         1.400989415657061E-019
  -4.48999999999999         1.936722557487951E-019
  -4.30000000000000         1.926835030778065E-019
  -4.11000000000000         1.391057666556644E-019
  -3.92000000000000         4.995352425336499E-020
  -3.73000000000000        -4.769285233470721E-020
  -3.53999999999999        -1.245686056801245E-019
  -3.34999999999999        -1.577302761436259E-019
  -3.16000000000000        -1.372148720566952E-019
  -2.97000000000000        -6.891559728953249E-020
  -2.78000000000000         2.715858909898956E-020
  -2.59000000000000         1.227240045630855E-019
  -2.40000000000001         1.894560383694716E-019
  -2.20999999999999         2.072214053015412E-019
  -2.02000000000000         1.699274168610924E-019
  -1.83000000000000         8.730464157620313E-020
  -1.64000000000000        -1.788578280703650E-020
  -1.45000000000000        -1.164123220661667E-019
  -1.26000000000001        -1.810057951249973E-019
  -1.06999999999999        -1.942226075568733E-019
 -0.879999999999995        -1.534530509850746E-019
 -0.689999999999998        -7.161466053958673E-020
 -0.500000000000000         2.666913538681593E-020
 -0.310000000000002         1.122807514324812E-019
 -0.120000000000005         1.600952702154633E-019
  7.000000000000739E-002    1.562653465030039E-019
  0.260000000000005         1.021950390038809E-019
  0.450000000000003         1.406963822588615E-020
  0.640000000000001        -8.190129585958471E-020
  0.829999999999998        -1.571390224720752E-019
   1.02000000000000        -1.890326079374925E-019
   1.21000000000001        -1.675466297918703E-019
   1.40000000000001        -9.818168205199894E-020
   1.59000000000000        -4.180154786694782E-022
   1.78000000000000         9.791708339853158E-020
   1.97000000000000         1.687239718882521E-019
   2.16000000000000         1.917923835869717E-019
   2.34999999999999         1.606677352161795E-019
   2.54000000000001         8.451539844734791E-020
   2.73000000000000        -1.454942004996682E-020
   2.92000000000000        -1.078780133050537E-019
   3.11000000000000        -1.685827514163739E-019
   3.30000000000000        -1.793092975179159E-019
   3.48999999999999        -1.372436444551417E-019
   3.68000000000001        -5.490842475685837E-020
   3.87000000000000         4.348585343378994E-020
   4.06000000000000         1.290846144919961E-019
   4.25000000000000         1.767882421920990E-019
   4.44000000000000         1.725636782044982E-019
   4.63000000000000         1.175364993199396E-019
   4.82000000000001         2.766967781679906E-020
   5.01000000000001        -7.087546382936448E-020
   5.20000000000000        -1.493430622126242E-019
   5.39000000000000        -1.847415291598083E-019
   5.58000000000000        -1.665356410970888E-019
   5.77000000000000        -9.973565568875622E-020
   5.96000000000001        -3.485650762777449E-021
   6.15000000000001         9.445083262179732E-020
   6.34000000000000         1.657224958092534E-019
   6.53000000000000         1.896155415923951E-019