  -105.000000000000         6.877940878096478E-019
  -104.810000000000         5.209575528865807E-019
  -104.620000000000         2.433644072868093E-019
  -104.430000000000        -6.720015194177562E-020
  -104.240000000000        -3.242777900781322E-019
  -104.050000000000        -4.576381236965459E-019
  -103.860000000000        -4.334590772945667E-019
  -103.670000000000        -2.639197997971969E-019
  -103.480000000000        -3.417309505486982E-021
  -103.290000000000         2.674757563803394E-019
  -103.100000000000         4.656140457404128E-019
  -102.910000000000         5.295541113756070E-019
  -102.720000000000         4.374507898022716E-019
  -102.530000000000         2.134135477649373E-019
  -102.340000000000        -7.948313759341850E-020
  -102.150000000000        -3.574958813964878E-019
  -101.960000000000        -5.405273873700504E-019
  -101.770000000000        -5.754328988107387E-019
  -101.580000000000        -4.515583080880979E-019
  -101.390000000000        -2.039699637883122E-019
  -101.200000000000         9.660448585505663E-020
  -101.010000000000         3.642249059160952E-019
  -100.820000000000         5.226226514447499E-019
  -100.630000000000         5.272596959374806E-019
  -100.440000000000         3.781444086213931E-019
  -100.250000000000         1.197086480980761E-019
  -100.060000000000        -1.721727931853022E-019
  -99.8700000000000        -4.122240417051458E-019
  -99.6800000000000        -5.304842960128888E-019
  -99.4900000000000        -4.925644817708676E-019
  -99.3000000000000        -3.095999423969500E-019
  -99.1100000000000        -3.501136033400897E-020
  -98.9200000000000         2.510147898409516E-019
  -98.7300000000000         4.648467655900751E-019
  -98.5400000000000         5.437535191990290E-019
  -98.3500000000000         4.641763034917236E-019
  -98.1600000000000         2.485928072969621E-019
  -97.9700000000000        -4.101957785840215E-020
  -97.7800000000000        -3.211974642282465E-019
  -97.5900000000000        -5.112239963334158E-019
  -97.4000000000000        -5.565403691005575E-019
  -97.2100000000000        -4.445610947036478E-019
  -97.0200000000000        -2.083242875624126E-019
  -96.8300000000000         8.308538252311013E-020
  -96.6400000000000         3.445874681140008E-019
  -96.4500000000000         4.998331059479208E-019
  -96.2600000000000         5.034272138654216E-019
  -96.0700000000000         3.541655091019168E-019
  -95.8800000000000         9.541310952283501E-020
  -95.6900000000000        -1.974922023033346E-019
  -95.5000000000000        -4.391348193003171E-019
  -95.3100000000000        -5.588334164289482E-019
  -95.1200000000000        -5.211668187370602E-019
  -94.9300000000000        -3.362816703214833E-019
  -94.7400000000000        -5.701562337640299E-020
  -94.5500000000000         2.363337620161101E-019
  -94.3600000000000         4.592111590864251E-019
  -94.1700000000000         5.472856581053863E-019
  -93.9800000000000         4.751237353289098E-019
  -93.7900000000000         2.636120875440705E-019
  -93.6000000000000        -2.606180325936312E-020
  -93.4100000000000        -3.101420249714809E-019
  -93.2200000000000        -5.065841091913630E-019
  -93.0300000000000        -5.588021612828103E-019
  -92.8400000000000        -4.519820908418177E-019
  -92.6500000000000        -2.172586323474321E-019
  -92.4600000000000         7.740341731227073E-020
  -92.2700000000000         3.469428550512109E-019
  -92.0800000000000         5.138315685680495E-019
  -91.8900000000000         5.304925553826382E-019
  -91.7000000000000         3.930372730854982E-019
  -91.5100000000000         1.423383580266553E-019
  -91.3200000000000        -1.478999777932852E-019
  -91.1300000000000        -3.926331621629358E-019
  -90.9400000000000        -5.202813655823631E-019
  -90.7500000000000        -4.936128465083107E-019
  -90.5600000000000        -3.206117420047669E-019
  -90.3700000000000        -5.217182101246371E-020
  -90.1800000000000         2.326910695578159E-019
  -89.9900000000000         4.497902773367750E-019
  -89.8000000000000         5.342214793621477E-019
  -89.6100000000000         4.592475682229025E-019
  -89.4200000000000         2.441623732085439E-019
  -89.2300000000000        -5.114825087336602E-020
  -89.0400000000000        -3.433971901983226E-019
  -88.8500000000000        -5.498817830407346E-019
  -88.6600000000000        -6.123168591950558E-019
  -88.4700000000000        -5.135915793387737E-019
  -88.2800000000000        -2.825796406092934E-019
  -88.0900000000000         1.437844947974547E-020
  -87.9000000000000         2.928101469480899E-019
  -87.7100000000000         4.746136560641436E-019
  -87.5200000000000         5.106115130749825E-019
  -87.3300000000000         3.946390318274627E-019
  -87.1400000000000         1.651167414346308E-019
  -86.9500000000000        -1.063334429749290E-019
  -86.7600000000000        -3.359343378482370E-019
  -86.5700000000000        -4.523658480958716E-019
  -86.3800000000000        -4.177850215893989E-019
  -86.1900000000000        -2.391025273602905E-019
  -86.0000000000000         3.381737150121680E-020
  -85.8100000000000         3.225401688628565E-019
  -85.6200000000000         5.428342936794224E-019
  -85.4300000000000         6.291808392709637E-019
  -85.2400000000000         5.538784987429673E-019
  -85.0500000000000         3.352062001367538E-019
  -84.8600000000000         3.230026700042645E-020
  -84.6700000000000        -2.717572449465402E-019
  -84.4800000000000        -4.937586626666480E-019
  -84.2900000000000        -5.742403502412850E-019
  -84.1000000000000        -4.945181791385622E-019
  -83.9100000000000        -2.819487943758873E-019
  -83.7200000000000        -1.861122665842742E-021
  -83.5300000000000         2.615261392082393E-019
  -83.3400000000000         4.296587063922665E-019
  -83.1500000000000         4.525170553050625E-019
  -82.9600000000000         3.231395779000045E-019
  -82.7700000000000         7.958630718830222E-020
  -82.5800000000000        -2.061954544111333E-019
  -82.3900000000000        -4.493386061845044E-019
  -82.2000000000000        -5.767649570490439E-019
  -82.0100000000000        -5.484872501055303E-019
  -81.8200000000000        -3.693476461331150E-019
  -81.6300000000000        -8.778488989137556E-020
  -81.4400000000000         2.180412095870421E-019
  -81.2500000000000         4.627746061906131E-019
  -81.0600000000000         5.785134881364547E-019
  -80.8700000000000         5.344214812346159E-019
  -80.6800000000000         3.455912055650801E-019
  -80.4900000000000         6.858891541568651E-020
  -80.3000000000000        -2.150034674323743E-019
  -80.1100000000000        -4.222505369754182E-019
  -79.9200000000000        -4.928697737684244E-019
  -79.7300000000000        -4.066521220189906E-019
  -79.5400000000000        -1.892789748059453E-019
  -79.3500000000000         9.514459628286601E-020
  -79.1600000000000         3.627001663556328E-019
  -78.9700000000000         5.340460579256006E-019
  -78.7800000000000         5.575233044638816E-019
  -78.5900000000000         4.242503959327989E-019
  -78.4000000000000         1.707901006837884E-019
  -78.2100000000000        -1.313995380720315E-019
  -78.0200000000000        -3.966462463769019E-019
  -77.8300000000000        -5.498398578391363E-019
  -77.6400000000000        -5.481035605233453E-019
  -77.4500000000000        -3.931006289479237E-019
  -77.2600000000000        -1.304552165031047E-019
  -77.0700000000000         1.635107520281442E-019
  -76.8800000000000         4.038811484883470E-019
  -76.6900000000000         5.217101189398869E-019
  -76.5000000000000         4.839477179346032E-019
  -76.3100000000000         3.029408030521390E-019
  -76.1200000000000         3.272613575308318E-020
  -75.9300000000000        -2.468216828123058E-019
  -75.7400000000000        -4.533630305229346E-019
  -75.5500000000000        -5.261513060692883E-019
  -75.3600000000000        -4.437465357463264E-019
  -75.1700000000000        -2.302318899871677E-019
  -74.9800000000000         5.184317399295764E-020
  -74.7900000000000         3.197048060857809E-019
  -74.6000000000000         4.944687724383886E-019
  -74.4100000000000         5.241386133970802E-019
  -74.2200000000000         3.988288282723215E-019
  -74.0300000000000         1.537879079622937E-019
  -73.8400000000000        -1.406881030453933E-019
  -73.6500000000000        -3.995585871539437E-019
  -73.4600000000000        -5.476776214663249E-019
  -73.2700000000000        -5.416036588888219E-019
  -73.0800000000000        -3.822275363463384E-019
  -72.8900000000000        -1.145501907560651E-019
  -72.7000000000000         1.853058120934881E-019
  -72.5100000000000         4.320631385793583E-019
  -72.3200000000000         5.558704508838772E-019
  -72.1300000000000         5.224027409773533E-019
  -71.9400000000000         3.426875688945746E-019
  -71.7500000000000         6.981697223011233E-020
  -71.5600000000000        -2.165212087696766E-019
  -71.3700000000000        -4.332320684402945E-019
  -71.1800000000000        -5.179977945080869E-019
  -70.9900000000000        -4.474087303161305E-019
  -70.8000000000000        -2.437371744597284E-019
  -70.6100000000000         3.162971062909835E-020
  -70.4200000000000         2.961705583445102E-019
  -70.2300000000000         4.703657216167227E-019
  -70.0400000000000         5.009586285585943E-019
  -69.8500000000000         3.765960433443189E-019
  -69.6600000000000         1.313263300392683E-019
  -69.4700000000000        -1.650595336092077E-019
  -69.2800000000000        -4.270787912302216E-019
  -69.0900000000000        -5.782408857726988E-019
  -68.9000000000000        -5.732421019707435E-019
  -68.7100000000000        -4.112213142225586E-019
  -68.5200000000000        -1.361822870741083E-019
  -68.3300000000000         1.755871055990736E-019
  -68.1400000000000         4.374628034421446E-019
  -67.9500000000000         5.774151788315954E-019
  -67.7600000000000         5.586717888404981E-019
  -67.5700000000000         3.901296801725163E-019
  -67.3800000000000         1.235410946666046E-019
  -67.1900000000000        -1.616633501248971E-019
  -67.0000000000000        -3.814946201853183E-019
  -66.8100000000000        -4.717809085039325E-019
  -66.6200000000000        -4.067575783052976E-019
  -66.4300000000000        -2.064916241089290E-019
  -66.2400000000000         6.901986485169980E-020
  -66.0500000000000         3.373729284008880E-019
  -65.8600000000000         5.178071673299208E-019
  -65.6700000000000         5.547755797841328E-019
  -65.4800000000000         4.341672431875627E-019
  -65.2900000000000         1.874752258210153E-019
  -65.1000000000000        -1.172710247519723E-019
  -64.9100000000000        -3.951470500664408E-019
  -64.7200000000000        -5.688459903525300E-019
  -64.5300000000000        -5.909766975463627E-019
  -64.3400000000000        -4.577101088017406E-019
  -64.1500000000000        -2.098252020274875E-019
  -63.9600000000000         7.916740404201348E-020
  -63.7700000000000         3.244064753243574E-019
  -63.5800000000000         4.543691191055684E-019
  -63.3900000000000         4.316774558626290E-019
  -63.2000000000000         2.639474253132673E-019
  -63.0100000000000         1.518035958073629E-021
  -62.8200000000000        -2.772555807535196E-019
  -62.6300000000000        -4.888371353250312E-019
  -62.4400000000000        -5.688244015779388E-019
  -62.2500000000000        -4.907027357829413E-019
  -62.0600000000000        -2.736282114492557E-019
  -61.8700000000000         2.300053526016480E-020
  -61.6800000000000         3.166269292774394E-019
  -61.4900000000000         5.253634463562983E-019
  -61.3000000000000         5.916729619194136E-019
  -61.1100000000000         4.990154420879572E-019
  -60.9200000000000         2.765845946741495E-019
  -60.7300000000000        -9.270908713543412E-021
  -60.5400000000000        -2.744394428632184E-019
  -60.3500000000000        -4.415735668624572E-019
  -60.1600000000000        -4.625810563132173E-019
  -59.9700000000000        -3.325331752115028E-019
  -59.7800000000000        -9.097620572093217E-020
  -59.5900000000000         1.896959601997130E-019
  -59.4000000000000         4.254115370650781E-019
  -59.2100000000000         5.449899061152265E-019
  -59.0200000000000         5.109834886202831E-019
  -58.8300000000000         3.307299686292423E-019
  -58.6400000000000         5.437602920115645E-020
  -58.4500000000000        -2.395830474177901E-019
  -58.2600000000000        -4.670566458071817E-019
  -58.0700000000000        -5.627793535363219E-019
  -57.8800000000000        -4.992827323066284E-019
  -57.6900000000000        -2.949046100371867E-019
  -57.5000000000000        -8.529383060350556E-021
  -57.3100000000000         2.773952225733257E-019
  -57.1200000000000         4.806439827694099E-019
  -56.9300000000000         5.429369901723065E-019
  -56.7400000000000         4.467570939259496E-019
  -56.5500000000000         2.203983882331630E-019
  -56.3600000000000        -7.023813518480112E-020
  -56.1700000000000        -3.407556984757237E-019
  -55.9800000000000        -5.127506310900882E-019
  -55.7900000000000        -5.365572454947425E-019
  -55.6000000000000        -4.056222035511528E-019
  -55.4100000000000        -1.583345343093907E-019
  -55.2200000000000         1.331887563807117E-019
  -55.0300000000000         3.840672744353045E-019
  -54.8400000000000         5.212743269712566E-019
  -54.6500000000000         5.047884666239620E-019
  -54.4600000000000         3.391864817672115E-019
  -54.2700000000000         7.233900844524771E-020
  -54.0800000000000        -2.184305756790520E-019
  -53.8900000000000        -4.487525309108631E-019
  -53.7000000000000        -5.517110154918200E-019
  -53.5100000000000        -4.973180269706700E-019
  -53.3200000000000        -3.012700917220918E-019
  -53.1300000000000        -2.041332481699137E-020
  -52.9400000000000         2.637666269637489E-019
  -52.7500000000000         4.688067228682980E-019
  -52.5600000000000         5.351802330491534E-019
  -52.3700000000000         4.435187598499595E-019
  -52.1800000000000         2.201767764020048E-019
  -51.9900000000000        -7.043644426103976E-020
  -51.8000000000000        -3.445180892752251E-019
  -51.6100000000000        -5.231287698299848E-019
  -51.4200000000000        -5.550341879348750E-019
  -51.2300000000000        -4.315163500264401E-019
  -51.0400000000000        -1.888489490240236E-019
  -50.8500000000000         1.022926028546456E-019
  -50.6600000000000         3.574060610416157E-019
  -50.4700000000000         5.027223699824653E-019
  -50.2800000000000         4.965975760850791E-019
  -50.0900000000000         3.415358246071760E-019
  -49.9000000000000         8.339591880459592E-020
  -49.7100000000000        -2.019443347573981E-019
  -49.5200000000000        -4.305843695585302E-019
  -49.3300000000000        -5.349015686960383E-019
  -49.1400000000000        -4.831459046129201E-019
  -48.9500000000000        -2.886648958857025E-019
  -48.7600000000000        -6.071505868250553E-021
  -48.5700000000000         2.845594213143079E-019
  -48.3800000000000         5.008912540039930E-019
  -48.1900000000000         5.821728701784413E-019
  -48.0000000000000         5.067878455740757E-019
  -47.8100000000000         2.984093590169380E-019
  -47.6200000000000         1.900055599214108E-020
  -47.4300000000000        -2.492732665075160E-019
  -47.2400000000000        -4.279556349441223E-019
  -47.0500000000000        -4.651092637327421E-019
  -46.8600000000000        -3.504364043259959E-019
  -46.6700000000000        -1.183330503912011E-019
  -46.4800000000000         1.620355940647615E-019
  -46.2900000000000         4.068057054538138E-019
  -46.1000000000000         5.418354591355914E-019
  -45.9100000000000         5.243731973908079E-019
  -45.7200000000000         3.556376315071323E-019
  -45.5300000000000         8.061683497658670E-020
  -45.3400000000000        -2.248631542763951E-019
  -45.1500000000000        -4.760206108903764E-019
  -44.9600000000000        -6.035710136445505E-019
  -44.7700000000000        -5.736550275605777E-019
  -44.5800000000000        -3.974928848976053E-019
  -44.3900000000000        -1.280002407216444E-019
  -44.2000000000000         1.556451446906066E-019
  -44.0100000000000         3.710292078292867E-019
  -43.8200000000000         4.564603531373322E-019
  -43.6300000000000         3.889040049083022E-019
  -43.4400000000000         1.906558630723145E-019
  -43.2500000000000        -7.721688417782647E-020
  -43.0600000000000        -3.327669976009976E-019
  -42.8700000000000        -4.971656623472570E-019
  -42.6800000000000        -5.177992491523381E-019
  -42.4900000000000        -3.837410351010521E-019
  -42.3000000000000        -1.291191852616032E-019
  -42.1100000000000         1.765765528915628E-019
  -41.9200000000000         4.484363534216301E-019
  -41.7300000000000         6.105606003136824E-019
  -41.5400000000000         6.179276757750641E-019
  -41.3500000000000         4.693753435828863E-019
  -41.1600000000000         2.079205713358768E-019
  -40.9700000000000        -9.169958321596063E-020
  -40.7800000000000        -3.446635837275563E-019
  -40.5900000000000        -4.805886093682259E-019
  -40.4000000000000        -4.638076262139166E-019
  -40.2100000000000        -3.035175639045972E-019
  -40.0200000000000        -5.088079482985839E-020
  -39.8300000000000         2.160443620303858E-019
  -39.6400000000000         4.151558397322287E-019
  -39.4500000000000         4.843265875022700E-019
  -39.2600000000000         3.996469342919463E-019
  -39.0700000000000         1.825986768114832E-019
  -38.8800000000000        -1.059632364928276E-019
  -38.6900000000000        -3.833386266550852E-019
  -38.5000000000000        -5.689719490652347E-019
  -38.3100000000000        -6.079291381147968E-019
  -38.1200000000000        -4.869974882037027E-019
  -37.9300000000000        -2.386882446946299E-019
  -37.7400000000000         6.803192644615880E-020
  -37.5500000000000         3.475684932228024E-019
  -37.3600000000000         5.223090588200496E-019
  -37.1700000000000         5.448865753392216E-019
  -36.9800000000000         4.116837095252283E-019
  -36.7900000000000         1.637100435252440E-019
  -36.6000000000000        -1.253840261886361E-019
  -36.4100000000000        -3.706955948449548E-019
  -36.2200000000000        -5.006814894519703E-019
  -36.0300000000000        -4.778649958113100E-019
  -35.8400000000000        -3.096185465665593E-019
  -35.6500000000000        -4.587979817789502E-020
  -35.4600000000000         2.355268826679195E-019
  -35.2700000000000         4.516652833614217E-019
  -35.0800000000000         5.387048074755921E-019
  -34.8900000000000         4.705326834751980E-019
  -34.7000000000000         2.663716902160134E-019
  -34.5100000000000        -1.478281720783126E-020
  -34.3200000000000        -2.912805168378998E-019
  -34.1300000000000        -4.825308832422659E-019
  -33.9400000000000        -5.324513406990240E-019
  -33.7500000000000        -4.258465427118653E-019
  -33.5600000000000        -1.929415200967439E-019
  -33.3700000000000         9.927967178674594E-020
  -33.1800000000000         3.664288407900375E-019
  -32.9900000000000         5.311298106497889E-019
  -32.8000000000000         5.453905394472339E-019
  -32.6100000000000         4.044452321250607E-019
  -32.4200000000000         1.480881302631547E-019
  -32.2300000000000        -1.508425981906486E-019
  -32.0400000000000        -4.074739963040636E-019
  -31.8500000000000        -5.493371994681224E-019
  -31.6600000000000        -5.372047052989849E-019
  -31.4700000000000        -3.763219067038300E-019
  -31.2800000000000        -1.147712049788251E-019
  -31.0900000000000         1.705874024053382E-019
  -30.9000000000000         3.965372558779916E-019
  -30.7100000000000         4.977608689577505E-019
  -30.5200000000000         4.458449443908444E-019
  -30.3300000000000         2.574821576677119E-019
  -30.1400000000000        -1.050716180681774E-020
  -29.9500000000000        -2.778451976949635E-019
  -29.7600000000000        -4.642696036699046E-019
  -29.5700000000000        -5.129734281954930E-019
  -29.3800000000000        -4.072183406656903E-019
  -29.1900000000000        -1.753158067455813E-019
  -29.0000000000000         1.174721741264573E-019
  -28.8100000000000         3.877852991659104E-019
  -28.6200000000000         5.583210931850115E-019
  -28.4300000000000         5.802819703974020E-019
  -28.2400000000000         4.475670998732795E-019
  -28.0500000000000         1.985521118286230E-019
  -27.8600000000000        -9.507277045483609E-020
  -27.6700000000000        -3.491447300269348E-019
  -27.4800000000000        -4.914682316011000E-019
  -27.2900000000000        -4.827465464655553E-019
  -27.1000000000000        -3.279449809574131E-019
  -26.9100000000000        -7.481048675297543E-020
  -26.7200000000000         2.000192014966006E-019
  -26.5300000000000         4.133093484384693E-019
  -26.3400000000000         4.994871382918048E-019
  -26.1500000000000         4.298350869775859E-019
  -25.9600000000000         2.210232986103661E-019
  -25.7700000000000        -6.953482760623884E-020
  -25.5800000000000        -3.601749515145586E-019
  -25.3900000000000        -5.685255155403457E-019
  -25.2000000000000        -6.352525628459252E-019
  -25.0100000000000        -5.411195173711560E-019
  -24.8200000000000        -3.124464682772757E-019
  -24.6300000000000        -1.342999051632560E-020
  -24.4400000000000         2.724255765619876E-019
  -24.2500000000000         4.663950589050674E-019
  -24.0600000000000         5.171893254894714E-019
  -23.8700000000000         4.156351401248419E-019
  -23.6800000000000         1.971117744894809E-019
  -23.4900000000000        -6.898696058010049E-020
  -23.3000000000000        -2.997150772179301E-019
  -23.1100000000000        -4.229948251109504E-019
  -22.9200000000000        -3.988549173342916E-019
  -22.7300000000000        -2.312767029391325E-019
  -22.5400000000000         3.280138299534971E-020
  -22.3500000000000         3.170117068786780E-019
  -22.1600000000000         5.376717642646209E-019
  -21.9700000000000         6.280787897995700E-019
  -21.7800000000000         5.579733398867662E-019
  -21.5900000000000         3.425540486147924E-019
  -21.4000000000000         3.841635712441827E-020
  -21.2100000000000        -2.724602961716120E-019
  -21.0200000000000        -5.060967241231977E-019
  -20.8300000000000        -6.005260384210137E-019
  -20.6400000000000        -5.334700720682022E-019
  -20.4500000000000        -3.285399753874166E-019
  -20.2600000000000        -4.817019570062420E-020
  -20.0700000000000         2.246270517950094E-019
  -19.8800000000000         4.103544515226237E-019
  -19.6900000000000         4.559730228241928E-019
  -19.5000000000000         3.500741863863657E-019
  -19.3100000000000         1.259321600544136E-019
  -19.1200000000000        -1.484072059984900E-019
  -18.9300000000000        -3.901115008938866E-019
  -18.7400000000000        -5.258250006335216E-019
  -18.5500000000000        -5.131646580800854E-019
  -18.3600000000000        -3.531867069386425E-019
  -18.1700000000000        -9.017867329597337E-020
  -17.9800000000000         2.011681984364282E-019
  -17.7900000000000         4.374610260979112E-019
  -17.6000000000000         5.508523964525966E-019
  -17.4100000000000         5.087795184368326E-019
  -17.2200000000000         3.234741579193387E-019
  -17.0300000000000         4.849978633680784E-020
  -16.8400000000000        -2.366799494277564E-019
  -16.6500000000000        -4.496538329628326E-019
  -16.4600000000000        -5.289176794747059E-019
  -16.2700000000000        -4.517253100953995E-019
  -16.0800000000000        -2.407309890871890E-019
  -15.8900000000000         4.254993731888339E-020
  -15.7000000000000         3.155927635832824E-019
  -15.5100000000000         4.988356587864462E-019
  -15.3200000000000         5.387772159205748E-019
  -15.1300000000000         4.234684914017919E-019
  -14.9400000000000         1.859174973905060E-019
  -14.7500000000000        -1.055330187650654E-019
  -14.5600000000000        -3.670201064666792E-019
  -14.3700000000000        -5.234191228188886E-019
  -14.1800000000000        -5.300483722247673E-019
  -13.9900000000000        -3.855651086314563E-019
  -13.8000000000000        -1.323212543667212E-019
  -13.6100000000000         1.559497882724696E-019
  -13.4200000000000         3.955749499268868E-019
  -13.2300000000000         5.172950437365606E-019
  -13.0400000000000         4.864303855806533E-019
  -12.8500000000000         3.129617743894313E-019
  -12.6600000000000         4.858131886172164E-020
  -12.4700000000000        -2.284138553978381E-019
  -12.2800000000000        -4.359670154854947E-019
  -12.0900000000000        -5.121938426725565E-019
  -11.9000000000000        -4.334549049767632E-019
  -11.7100000000000        -2.213321517342343E-019
  -11.5200000000000         6.351892229451772E-020
  -11.3300000000000         3.388828529051939E-019
  -11.1400000000000         5.248139153119741E-019
  -10.9500000000000         5.668790114012710E-019
  -10.7600000000000         4.520486135905006E-019
  -10.5700000000000         2.125896397216449E-019
  -10.3800000000000        -8.318986964183564E-020
  -10.1900000000000        -3.506546489680952E-019
  -10.0000000000000        -5.132819543466950E-019
  -9.81000000000000        -5.247399261736925E-019
  -9.62000000000000        -3.822297564784157E-019
  -9.42999999999999        -1.272621538349263E-019
  -9.23999999999999         1.663380898702238E-019
  -9.05000000000000         4.137404342759139E-019
  -8.86000000000000         5.435906768144595E-019
  -8.67000000000000         5.185909137765447E-019
  -8.48000000000000         3.461999731813676E-019
  -8.28999999999999         7.632873371817766E-020
  -8.09999999999999        -2.133013386004228E-019
  -7.91000000000000        -4.398500210967183E-019
  -7.72000000000000        -5.394562437918564E-019
  -7.53000000000000        -4.857086955184597E-019
  -7.34000000000000        -2.971396321470971E-019
  -7.15000000000001        -3.162146794514833E-020
  -6.95999999999999         2.306512539496953E-019
  -6.77000000000000         4.106335922254024E-019
  -6.58000000000000         4.535558270888981E-019
  -6.39000000000000         3.450075987121992E-019
  -6.20000000000000         1.153041855530547E-019
  -6.01000000000001        -1.691681298237103E-019
  -5.81999999999999        -4.251545290694527E-019
  -5.63000000000000        -5.767190480572458E-019
  -5.44000000000000        -5.773702756754553E-019
  -5.25000000000000        -4.236657127793424E-019
  -5.06000000000000        -1.563316806932439E-019
  -4.87000000000000         1.514088815758816E-019
  -4.67999999999999         4.148877813703035E-019
  -4.48999999999999         5.623106038178176E-019
  -4.30000000000000         5.553180777111725E-019
  -4.11000000000000         3.998720151428424E-019
  -3.92000000000000         1.443413116309054E-019
  -3.73000000000000        -1.346553941473904E-019
  -3.53999999999999        -3.545619893906821E-019
  -3.34999999999999        -4.508878885836671E-019
  -3.16000000000000        -3.959230410920719E-019
  -2.97000000000000        -2.067134680333115E-019
  -2.78000000000000         6.001763663052386E-020
  -2.59000000000000         3.245014280643296E-019
  -2.40000000000001         5.072423659793120E-019
  -2.20999999999999         5.522350734627405E-019
  -2.02000000000000         4.433484030012091E-019
  -1.83000000000000         2.091430887431204E-019
  -1.64000000000000        -8.527083678170921E-020
  -1.45000000000000        -3.570011168822942E-019
  -1.26000000000001        -5.293571495457002E-019
  -1.06999999999999        -5.541047339623737E-019
 -0.879999999999995        -4.255083848784947E-019
 -0.689999999999998        -1.820409068411028E-019
 -0.500000000000000         1.047674711541926E-019
 -0.310000000000002         3.511017296668749E-019
 -0.120000000000005         4.852003984941528E-019
  7.000000000000739E-002    4.681755421372600E-019
  0.260000000000005         3.052831512743653E-019
  0.450000000000003         4.440624502779734E-020
  0.640000000000001        -2.377911402172324E-019
  0.829999999999998        -4.580452832094361E-019
   1.02000000000000        -5.506287234611363E-019
   1.21000000000001        -4.864859353730922E-019
   1.40000000000001        -2.818222100395952E-019
   1.59000000000000         6.388155156077186E-021
   1.78000000000000         2.967303766658001E-019
   1.97000000000000         5.068121419255666E-019
   2.16000000000000         5.770492010661139E-019
   2.34999999999999         4.878524117138386E-019
   2.54000000000001         2.652293063045225E-019
   2.73000000000000        -2.679641000552206E-020
   2.92000000000000        -3.047146313015124E-019
   3.11000000000000        -4.896254063420296E-019
   3.30000000000000        -5.299426366018670E-019
   3.48999999999999        -4.161680375478662E-019
   3.68000000000001        -1.834836333713504E-019
   3.87000000000000         9.858911876444938E-020
   4.06000000000000         3.464829446098138E-019
   4.25000000000000         4.869511348683450E-019
   4.44000000000000         4.784194675226283E-019
   4.63000000000000         3.231017438176373E-019
   4.82000000000001         6.635312767664292E-020
   5.01000000000001        -2.165364913806828E-019
   5.20000000000000        -4.422514387713675E-019
   5.39000000000000        -5.436913258144080E-019
   5.58000000000000        -4.895221022487003E-019
   5.77000000000000        -2.933869977664649E-019
   5.96000000000001        -1.010964865718711E-020
   6.15000000000001         2.800361157966331E-019
   6.34000000000000         4.944670982494953E-019
   6.53000000000000         5.721513978245463E-019