  -105.000000000000         6.534043834191656E-020
  -104.810000000000         1.801718442080583E-019
  -104.620000000000         2.527824304245303E-019
  -104.430000000000         2.695180346823086E-019
  -104.240000000000         2.323276301904173E-019
  -104.050000000000         1.580456183818229E-019
  -103.860000000000         7.339138428766716E-020
  -103.670000000000         7.140390963949609E-021
  -103.480000000000        -1.825663441980536E-020
  -103.290000000000         6.828918033305620E-021
  -103.100000000000         7.647244923477707E-020
  -102.910000000000         1.710134241607990E-019
  -102.720000000000         2.628788897726974E-019
  -102.530000000000         3.247110018415823E-019
  -102.340000000000         3.374343908078766E-019
  -102.150000000000         2.959213840038355E-019
  -101.960000000000         2.106091734710144E-019
  -101.770000000000         1.045929462838395E-019
  -101.580000000000         7.028781628449950E-021
  -101.390000000000        -5.524640419980901E-020
  -101.200000000000        -6.544612460346828E-020
  -101.010000000000        -2.166733238520886E-020
  -100.820000000000         6.258318556407142E-020
  -100.630000000000         1.623220085653833E-019
  -100.440000000000         2.483353984984763E-019
  -100.250000000000         2.956314388868259E-019
  -100.060000000000         2.906473451035394E-019
  -99.8700000000000         2.351296457889468E-019
  -99.6800000000000         1.455723537057335E-019
  -99.4900000000000         4.838271981627669E-020
  -99.3000000000000        -2.782290047966599E-020
  -99.1100000000000        -6.056097423910708E-020
  -98.9200000000000        -4.004064843594755E-020
  -98.7300000000000         2.796619932999999E-020
  -98.5400000000000         1.237832263849649E-019
  -98.3500000000000         2.195365595405864E-019
  -98.1600000000000         2.872496250655115E-019
  -97.9700000000000         3.069690818621748E-019
  -97.7800000000000         2.725584628639431E-019
  -97.5900000000000         1.934784241105852E-019
  -97.4000000000000         9.204080939435778E-020
  -97.2100000000000        -3.063829667041726E-021
  -97.0200000000000        -6.508794098231746E-020
  -96.8300000000000        -7.698563696105119E-020
  -96.6400000000000        -3.635671615052565E-020
  -96.4500000000000         4.386323838535688E-020
  -96.2600000000000         1.391729687676244E-019
  -96.0700000000000         2.206442774495216E-019
  -95.8800000000000         2.633542462188730E-019
  -95.6900000000000         2.536567324047256E-019
  -95.5000000000000         1.931771653523787E-019
  -95.3100000000000         9.837018295809850E-020
  -95.1200000000000        -4.229839382672298E-021
  -94.9300000000000        -8.568744584323394E-020
  -94.7400000000000        -1.230506887445331E-019
  -94.5500000000000        -1.060154655737610E-019
  -94.3600000000000        -3.993869806902011E-020
  -94.1700000000000         5.567849956420196E-020
  -93.9800000000000         1.528073919404601E-019
  -93.7900000000000         2.229872951133932E-019
  -93.6000000000000         2.455545721204404E-019
  -93.4100000000000         2.136152084385103E-019
  -93.2200000000000         1.360262256930401E-019
  -93.0300000000000         3.481452999799362E-020
  -92.8400000000000        -6.120997395384606E-020
  -92.6500000000000        -1.247878426568248E-019
  -92.4600000000000        -1.380740880851651E-019
  -92.2700000000000        -9.776119221063434E-020
  -92.0800000000000        -1.598762196680459E-020
  -91.8900000000000         8.322316980851075E-020
  -91.7000000000000         1.709585035129837E-019
  -91.5100000000000         2.218191884686383E-019
  -91.3200000000000         2.212908345908084E-019
  -91.1300000000000         1.699401862949674E-019
  -90.9400000000000         8.321330615916404E-020
  -90.7500000000000        -1.310664398944996E-020
  -90.5600000000000        -9.045797989819233E-020
  -90.3700000000000        -1.258724183848293E-019
  -90.1800000000000        -1.087230897730208E-019
  -89.9900000000000        -4.388736181803467E-020
  -89.8000000000000         4.959375506836298E-020
  -89.6100000000000         1.439733145889427E-019
  -89.4200000000000         2.107972590249301E-019
  -89.2300000000000         2.291336006467720E-019
  -89.0400000000000         1.916517837449616E-019
  -88.8500000000000         1.067902812872512E-019
  -88.6600000000000        -3.618589725148920E-021
  -88.4700000000000        -1.105798913858627E-019
  -88.2800000000000        -1.862161572809291E-019
  -88.0900000000000        -2.116952704382362E-019
  -87.9000000000000        -1.825123537775918E-019
  -87.7100000000000        -1.096070924914296E-019
  -87.5200000000000        -1.601070142321263E-020
  -87.3300000000000         6.998810034251966E-020
  -87.1400000000000         1.231648988024185E-019
  -86.9500000000000         1.287493121560902E-019
  -86.7600000000000         8.673387297788944E-020
  -86.5700000000000         1.184535531319913E-020
  -86.3800000000000        -7.081897730690158E-020
  -86.1900000000000        -1.332232944571221E-019
  -86.0000000000000        -1.527253842637341E-019
  -85.8100000000000        -1.188714179291471E-019
  -85.6200000000000        -3.666084398763060E-020
  -85.4300000000000         7.468059364265607E-020
  -85.2400000000000         1.870712307539795E-019
  -85.0500000000000         2.715342771475530E-019
  -84.8600000000000         3.064473915255852E-019
  -84.6700000000000         2.836989786207043E-019
  -84.4800000000000         2.109749673974514E-019
  -84.2900000000000         1.095150611711978E-019
  -84.1000000000000         7.983000880112342E-021
  -83.9100000000000        -6.578136160376036E-020
  -83.7200000000000        -9.274330372272472E-020
  -83.5300000000000        -6.807512715119702E-020
  -83.3400000000000        -2.412566819148986E-021
  -83.1500000000000         8.139413054209729E-020
  -82.9600000000000         1.550815106965787E-019
  -82.7700000000000         1.933404697799679E-019
  -82.5800000000000         1.813126007937989E-019
  -82.3900000000000         1.190368650372133E-019
  -82.2000000000000         2.155702653002621E-020
  -82.0100000000000        -8.534193314965836E-020
  -81.8200000000000        -1.725362482923297E-019
  -81.6300000000000        -2.159638392146563E-019
  -81.4400000000000        -2.035894888435680E-019
  -81.2500000000000        -1.389119863446907E-019
  -81.0600000000000        -3.998961738361926E-020
  -80.8700000000000         6.573920470663244E-020
  -80.6800000000000         1.493404099526035E-019
  -80.4900000000000         1.886875214457764E-019
  -80.3000000000000         1.747781390041910E-019
  -80.1100000000000         1.142390085854507E-019
  -79.9200000000000         2.730257906478573E-020
  -79.7300000000000        -5.815200103501870E-020
  -79.5400000000000        -1.147654552333876E-019
  -79.3500000000000        -1.237082211930801E-019
  -79.1600000000000        -8.021296874242278E-020
  -78.9700000000000         4.977922564294400E-021
  -78.7800000000000         1.086770119912952E-019
  -78.5900000000000         2.019455135289799E-019
  -78.4000000000000         2.584743607075556E-019
  -78.2100000000000         2.622164641556725E-019
  -78.0200000000000         2.120521146330238E-019
  -77.8300000000000         1.221359347325002E-019
  -77.6400000000000         1.783130998806444E-020
  -77.4500000000000        -7.158308801170613E-020
  -77.2600000000000        -1.213208933295538E-019
  -77.0700000000000        -1.181806174546751E-019
  -76.8800000000000        -6.427838690560841E-020
  -76.6900000000000         2.365278350007381E-020
  -76.5000000000000         1.191902780031504E-019
  -76.3100000000000         1.939446874968909E-019
  -76.1200000000000         2.258330466833870E-019
  -75.9300000000000         2.054939697127608E-019
  -75.7400000000000         1.389764219459130E-019
  -75.5500000000000         4.592255996965181E-020
  -75.3600000000000        -4.621773500283158E-020
  -75.1700000000000        -1.102456854475135E-019
  -74.9800000000000        -1.271926134669634E-019
  -74.7900000000000        -9.189555535948330E-020
  -74.6000000000000        -1.454906539968720E-020
  -74.4100000000000         8.221863625468235E-020
  -74.2200000000000         1.699005432132755E-019
  -74.0300000000000         2.223991331555640E-019
  -73.8400000000000         2.236436146226695E-019
  -73.6500000000000         1.723201790537324E-019
  -73.4600000000000         8.233273923480692E-020
  -73.2700000000000        -2.114898239893201E-020
  -73.0800000000000        -1.089129459462723E-019
  -72.8900000000000        -1.561068300210006E-019
  -72.7000000000000        -1.493850459939454E-019
  -72.5100000000000        -9.073499568002502E-020
  -72.3200000000000         3.118695318982379E-021
  -72.1300000000000         1.055546485457993E-019
  -71.9400000000000         1.877382279836325E-019
  -71.7500000000000         2.269261593904777E-019
  -71.5600000000000         2.129892569192191E-019
  -71.3700000000000         1.512626955842719E-019
  -71.1800000000000         6.089585860417567E-020
  -70.9900000000000        -3.081776125412498E-020
  -70.8000000000000        -9.647662220783157E-020
  -70.6100000000000        -1.166268312717414E-019
  -70.4200000000000        -8.548580571924862E-020
  -70.2300000000000        -1.266485912293150E-020
  -70.0400000000000         7.961095414372361E-020
  -69.8500000000000         1.629786479745003E-019
  -69.6600000000000         2.112312734459411E-019
  -69.4700000000000         2.080266191067968E-019
  -69.2800000000000         1.517734782470511E-019
  -69.0900000000000         5.626810893177364E-020
  -68.9000000000000        -5.312277490385338E-020
  -68.7100000000000        -1.466467994422171E-019
  -68.5200000000000        -1.986501415654004E-019
  -68.3300000000000        -1.949066838055287E-019
  -68.1400000000000        -1.366669424466130E-019
  -67.9500000000000        -4.025353413060771E-020
  -67.7600000000000         6.767472779824117E-020
  -67.5700000000000         1.578108673544775E-019
  -67.3800000000000         2.066095909641940E-019
  -67.1900000000000         2.029879766956562E-019
  -67.0000000000000         1.513879695161858E-019
  -66.8100000000000         7.032679429070694E-020
  -66.6200000000000        -1.313436195616991E-020
  -66.4300000000000        -7.139303618552142E-020
  -66.2400000000000        -8.445285331495819E-020
  -66.0500000000000        -4.584553795596234E-020
  -65.8600000000000         3.539657113846448E-020
  -65.6700000000000         1.372919321142996E-019
  -65.4800000000000         2.312415002966106E-019
  -65.2900000000000         2.902975348524255E-019
  -65.1000000000000         2.969669339539846E-019
  -64.9100000000000         2.482872168462354E-019
  -64.7200000000000         1.567078780064331E-019
  -64.5300000000000         4.652472265603830E-020
  -64.3400000000000        -5.310052394703152E-020
  -64.1500000000000        -1.165163784758082E-019
  -63.9600000000000        -1.289288692844282E-019
  -63.7700000000000        -9.058935074462298E-020
  -63.5800000000000        -1.660566927378004E-020
  -63.3900000000000         6.756875534819872E-020
  -63.2000000000000         1.336531190599089E-019
  -63.0100000000000         1.588723378806863E-019
  -62.8200000000000         1.326772711251189E-019
  -62.6300000000000         5.989846309765659E-020
  -62.4400000000000        -4.057938290812557E-020
  -62.2500000000000        -1.412344609574092E-019
  -62.0600000000000        -2.138459009444679E-019
  -61.8700000000000        -2.376555301824315E-019
  -61.6800000000000        -2.053909210513592E-019
  -61.4900000000000        -1.254018353661540E-019
  -61.3000000000000        -1.928337657996137E-020
  -61.1100000000000         8.433202180073885E-020
  -60.9200000000000         1.580140252931390E-019
  -60.7300000000000         1.834088254593966E-019
  -60.5400000000000         1.564563420596042E-019
  -60.3500000000000         8.843510613566500E-020
  -60.1600000000000         2.540416933975917E-021
  -59.9700000000000        -7.299543506087249E-020
  -59.7800000000000        -1.132288262494538E-019
  -59.5900000000000        -1.038504495739696E-019
  -59.4000000000000        -4.541523733381446E-020
  -59.2100000000000         4.677289976831448E-020
  -59.0200000000000         1.470903722681879E-019
  -58.8300000000000         2.270531507068927E-019
  -58.6400000000000         2.636382205007807E-019
  -58.4500000000000         2.460435537702005E-019
  -58.2600000000000         1.789127829138282E-019
  -58.0700000000000         8.107836297619533E-020
  -57.8800000000000        -1.981753517888495E-020
  -57.6900000000000        -9.526533270154742E-020
  -57.5000000000000        -1.240915620458134E-019
  -57.3100000000000        -9.854930729208082E-020
  -57.1200000000000        -2.653558278452094E-020
  -56.9300000000000         7.070460964494213E-020
  -56.7400000000000         1.647255476342765E-019
  -56.5500000000000         2.281053184393921E-019
  -56.3600000000000         2.423705424789865E-019
  -56.1700000000000         2.033261282812367E-019
  -55.9800000000000         1.222430269724845E-019
  -55.7900000000000         2.255877869692558E-020
  -55.6000000000000        -6.694826896243446E-020
  -55.4100000000000        -1.205241590591861E-019
  -55.2200000000000        -1.229130079624106E-019
  -55.0300000000000        -7.377368503488905E-020
  -54.8400000000000         1.223376709873424E-020
  -54.6500000000000         1.097097324902800E-019
  -54.4600000000000         1.898873525874415E-019
  -54.2700000000000         2.289822741576251E-019
  -54.0800000000000         2.151035752704136E-019
  -53.8900000000000         1.517211801443718E-019
  -53.7000000000000         5.667714323611685E-020
  -53.5100000000000        -4.298061579781968E-020
  -53.3200000000000        -1.188464870736321E-019
  -53.1300000000000        -1.494064116448450E-019
  -52.9400000000000        -1.262878479409030E-019
  -52.7500000000000        -5.669337970685853E-020
  -52.5600000000000         3.868538110529936E-020
  -52.3700000000000         1.316617854307151E-019
  -52.1800000000000         1.947128613746517E-019
  -51.9900000000000         2.089381929280434E-019
  -51.8000000000000         1.695175122420981E-019
  -51.6100000000000         8.709106062710322E-020
  -51.4200000000000        -1.533442036055846E-020
  -51.2300000000000        -1.090567214668834E-019
  -51.0400000000000        -1.679914248766774E-019
  -50.8500000000000        -1.762142777627684E-019
  -50.6600000000000        -1.325429046926236E-019
  -50.4700000000000        -5.083070374533584E-020
  -50.2800000000000         4.410469113108089E-020
  -50.0900000000000         1.237273641968452E-019
  -49.9000000000000         1.640958798209635E-019
  -49.7100000000000         1.528337803054473E-019
  -49.5200000000000         9.274355339543412E-020
  -49.3300000000000         1.022389261250110E-021
  -49.1400000000000        -9.569212070310093E-020
  -48.9500000000000        -1.690141467504701E-019
  -48.7600000000000        -1.970141049170956E-019
  -48.5700000000000        -1.705577529497202E-019
  -48.3800000000000        -9.593993879448160E-020
  -48.1900000000000         6.951153002849650E-021
  -48.0000000000000         1.104024209993388E-019
  -47.8100000000000         1.868961554354851E-019
  -47.6200000000000         2.170500973613475E-019
  -47.4300000000000         1.951741898623870E-019
  -47.2400000000000         1.308374442244813E-019
  -47.0500000000000         4.599627885017920E-020
  -46.8600000000000        -3.148055961540091E-020
  -46.6700000000000        -7.601365781353461E-020
  -46.4800000000000        -7.186191616454638E-020
  -46.2900000000000        -1.782199271028172E-020
  -46.1000000000000         7.229891792571178E-020
  -45.9100000000000         1.735887402957197E-019
  -45.7200000000000         2.571897690410241E-019
  -45.5300000000000         2.986339433569774E-019
  -45.3400000000000         2.849305430234956E-019
  -45.1500000000000         2.183465853326524E-019
  -44.9600000000000         1.157853810018343E-019
  -44.7700000000000         3.948907087347131E-021
  -44.5800000000000        -8.831014459618026E-020
  -44.3900000000000        -1.382319915300090E-019
  -44.2000000000000        -1.356057256529576E-019
  -44.0100000000000        -8.557166216356773E-020
  -43.8200000000000        -6.960153871738939E-021
  -43.6300000000000         7.334946014259632E-020
  -43.4400000000000         1.284076476007549E-019
  -43.2500000000000         1.391843505957313E-019
  -43.0600000000000         1.002358818267430E-019
  -42.8700000000000         2.139227913165881E-020
  -42.6800000000000        -7.502938746080272E-020
  -42.4900000000000        -1.606757144648748E-019
  -42.3000000000000        -2.093974353993270E-019
  -42.1100000000000        -2.048889854744809E-019
  -41.9200000000000        -1.455127593747275E-019
  -41.7300000000000        -4.490804876987288E-020
  -41.5400000000000         7.179833745855804E-020
  -41.3500000000000         1.750921242975633E-019
  -41.1600000000000         2.394352362148459E-019
  -40.9700000000000         2.504762300862379E-019
  -40.7800000000000         2.090217292266038E-019
  -40.5900000000000         1.306227708825045E-019
  -40.4000000000000         4.090512850220092E-020
  -40.2100000000000        -3.199076455905789E-020
  -40.0200000000000        -6.565860863883118E-020
  -39.8300000000000        -4.996806975478109E-020
  -39.6400000000000         9.995949412667288E-021
  -39.4500000000000         9.544677999994465E-020
  -39.2600000000000         1.794242645703952E-019
  -39.0700000000000         2.347375976252210E-019
  -38.8800000000000         2.420179644554933E-019
  -38.6900000000000         1.955342874564415E-019
  -38.5000000000000         1.050647827630111E-019
  -38.3100000000000        -6.740820519091879E-021
  -38.1200000000000        -1.107588500193493E-019
  -37.9300000000000        -1.796989946446910E-019
  -37.7400000000000        -1.959113448782957E-019
  -37.5500000000000        -1.564293050097445E-019
  -37.3600000000000        -7.379093756567347E-020
  -37.1700000000000         2.759264767945730E-020
  -36.9800000000000         1.184668247415800E-019
  -36.7900000000000         1.731292312813749E-019
  -36.6000000000000         1.767702029283527E-019
  -36.4100000000000         1.296426389301615E-019
  -36.2200000000000         4.686181592195363E-020
  -36.0300000000000        -4.610010017805799E-020
  -35.8400000000000        -1.209110367039556E-019
  -35.6500000000000        -1.546833794546787E-019
  -35.4600000000000        -1.366669064281264E-019
  -35.2700000000000        -7.138365065533898E-020
  -35.0800000000000         2.270150797417731E-020
  -34.8900000000000         1.185790696145024E-019
  -34.7000000000000         1.885849851151675E-019
  -34.5100000000000         2.124859280509448E-019
  -34.3200000000000         1.834099113166003E-019
  -34.1300000000000         1.098978283089846E-019
  -33.9400000000000         1.347451703456204E-020
  -33.7500000000000        -7.756378188947247E-020
  -33.5600000000000        -1.363486478562904E-019
  -33.3700000000000        -1.452465234457401E-019
  -33.1800000000000        -1.010042147509457E-019
  -32.9900000000000        -1.573614286416222E-020
  -32.8000000000000         8.653329039505492E-020
  -32.6100000000000         1.767676886944229E-019
  -32.4200000000000         2.292583581213034E-019
  -32.2300000000000         2.289966836681915E-019
  -32.0400000000000         1.759566071911938E-019
  -31.8500000000000         8.505954359283615E-020
  -31.6600000000000        -1.816193736003905E-020
  -31.4700000000000        -1.049469655003065E-019
  -31.2800000000000        -1.516008111101587E-019
  -31.0900000000000        -1.462982723546400E-019
  -30.9000000000000        -9.242142981772364E-020
  -30.7100000000000        -7.463107958328135E-021
  -30.5200000000000         8.217944430978838E-020
  -30.3300000000000         1.489955190053512E-019
  -30.1400000000000         1.724581436121362E-019
  -29.9500000000000         1.450646694594670E-019
  -29.7600000000000         7.456376332980449E-020
  -29.5700000000000        -1.827432469740829E-020
  -29.3800000000000        -1.056925427392207E-019
  -29.1900000000000        -1.610332867432915E-019
  -29.0000000000000        -1.665284318421083E-019
  -28.8100000000000        -1.185289718793333E-019
  -28.6200000000000        -2.864886460599572E-020
  -28.4300000000000         7.951842643433354E-020
  -28.2400000000000         1.771640881100483E-019
  -28.0500000000000         2.385454132217290E-019
  -27.8600000000000         2.483759506522387E-019
  -27.6700000000000         2.061752881064704E-019
  -27.4800000000000         1.263170567518072E-019
  -27.2900000000000         3.376665283547496E-020
  -27.1000000000000        -4.324904226970703E-020
  -26.9100000000000        -8.151081170219394E-020
  -26.7200000000000        -6.961598380154958E-020
  -26.5300000000000        -1.134977155771792E-020
  -26.3400000000000         7.536589468165812E-020
  -26.1500000000000         1.636515060822503E-019
  -25.9600000000000         2.254830527131057E-019
  -25.7700000000000         2.398744574584978E-019
  -25.5800000000000         1.990520284420221E-019
  -25.3900000000000         1.108254840718061E-019
  -25.2000000000000        -3.533433374889596E-021
  -25.0100000000000        -1.152887809955123E-019
  -24.8200000000000        -1.963775496321133E-019
  -24.6300000000000        -2.273358132175055E-019
  -24.4400000000000        -2.027312325431676E-019
  -24.2500000000000        -1.325432721737973E-019
  -24.0600000000000        -3.910275565631614E-020
  -23.8700000000000         4.951556857704363E-020
  -23.6800000000000         1.077265254654043E-019
  -23.4900000000000         1.198983827867954E-019
  -23.3000000000000         8.487168919598253E-020
  -23.1100000000000         1.621424847473888E-020
  -22.9200000000000        -6.186147705755911E-020
  -22.7300000000000        -1.217239809835344E-019
  -22.5400000000000        -1.405791363781938E-019
  -22.3500000000000        -1.073468928401611E-019
  -22.1600000000000        -2.615196308154771E-020
  -21.9700000000000         8.459433955455044E-020
  -21.7800000000000         1.972692918747524E-019
  -21.5900000000000         2.828193937824005E-019
  -21.4000000000000         3.190115823276255E-019
  -21.2100000000000         2.967774081181421E-019
  -21.0200000000000         2.228144911901351E-019
  -20.8300000000000         1.176853287484350E-019
  -20.6400000000000         9.955698251959515E-021
  -20.4500000000000        -7.193525625632429E-020
  -20.2600000000000        -1.077227225096882E-019
  -20.0700000000000        -9.095932118072158E-020
  -19.8800000000000        -3.063607836554644E-020
  -19.6900000000000         5.166503169740111E-020
  -19.5000000000000         1.282395165724042E-019
  -19.3100000000000         1.734601194842782E-019
  -19.1200000000000         1.713249901195910E-019
  -18.9300000000000         1.201657129648151E-019
  -18.7400000000000         3.315174531971139E-020
  -18.5500000000000        -6.555227225808127E-020
  -18.3600000000000        -1.478556519348604E-019
  -18.1700000000000        -1.899753630571490E-019
  -17.9800000000000        -1.794313581688058E-019
  -17.7900000000000        -1.187615818380435E-019
  -17.6000000000000        -2.487180669574529E-020
  -17.4100000000000         7.579322521875046E-020
  -17.2200000000000         1.548573244725868E-019
  -17.0300000000000         1.901948491769207E-019
  -16.8400000000000         1.723177336832806E-019
  -16.6500000000000         1.071160243561746E-019
  -16.4600000000000         1.415173067460849E-020
  -16.2700000000000        -7.900935333455153E-020
  -16.0800000000000        -1.447927017568975E-019
  -15.8900000000000        -1.636199016748865E-019
  -15.7000000000000        -1.295963450891808E-019
  -15.5100000000000        -5.222564496405653E-020
  -15.3200000000000         4.634757813311046E-020
  -15.1300000000000         1.377609203287353E-019
  -14.9400000000000         1.956525892640036E-019
  -14.7500000000000         2.032891147334204E-019
  -14.5600000000000         1.583965678364047E-019
  -14.3700000000000         7.380484105427574E-020
  -14.1800000000000        -2.627457097487157E-020
  -13.9900000000000        -1.132578516562128E-019
  -13.8000000000000        -1.624570561410396E-019
  -13.6100000000000        -1.602123454199935E-019
  -13.4200000000000        -1.078174952910547E-019
  -13.2300000000000        -2.109484589302716E-020
  -13.0400000000000         7.425906989210817E-020
  -12.8500000000000         1.502013250892662E-019
  -12.6600000000000         1.845479189481258E-019
  -12.4700000000000         1.674638279771947E-019
  -12.2800000000000         1.043476452432781E-019
  -12.0900000000000         1.427236371826321E-020
  -11.9000000000000        -7.556426730842219E-020
  -11.7100000000000        -1.377690376959670E-019
  -11.5200000000000        -1.527612944927400E-019
  -11.3300000000000        -1.145331258487675E-019
  -11.1400000000000        -3.248193286813648E-020
  -10.9500000000000         7.122889516962178E-020
  -10.7600000000000         1.680270195438401E-019
  -10.5700000000000         2.311676536084939E-019
  -10.3800000000000         2.434606317660758E-019
  -10.1900000000000         2.022454024981324E-019
  -10.0000000000000         1.201714251832273E-019
  -9.81000000000000         2.155934653379049E-020
  -9.62000000000000        -6.460277331815980E-020
  -9.42999999999999        -1.130045047979273E-019
  -9.23999999999999        -1.092922908745740E-019
  -9.05000000000000        -5.418483108069095E-020
  -8.86000000000000         3.676162447289454E-020
  -8.67000000000000         1.376688755790400E-019
  -8.48000000000000         2.198240098400416E-019
  -8.28999999999999         2.599642369954984E-019
  -8.09999999999999         2.469518395316851E-019
  -7.91000000000000         1.849024603604567E-019
  -7.72000000000000         9.186836519604216E-020
  -7.53000000000000        -5.522304038437890E-021
  -7.34000000000000        -7.989289516666581E-020
  -7.15000000000001        -1.111251996754291E-019
  -6.95999999999999        -9.221737000499717E-020
  -6.77000000000000        -3.129530961836288E-020
  -6.58000000000000         5.080268521649566E-020
  -6.39000000000000         1.266662106675999E-019
  -6.20000000000000         1.703958301727990E-019
  -6.01000000000001         1.652787554670868E-019
  -5.81999999999999         1.088181028722363E-019
  -5.63000000000000         1.364011304519994E-020
  -5.44000000000000        -9.599837270940665E-020
  -5.25000000000000        -1.910967916126125E-019
  -5.06000000000000        -2.461965439925081E-019
  -4.87000000000000        -2.466642099086576E-019
  -4.67999999999999        -1.928660269287700E-019
  -4.48999999999999        -1.000321803358985E-019
  -4.30000000000000         6.142544409355587E-021
  -4.11000000000000         9.688560323048702E-020
  -3.92000000000000         1.485858692739931E-019
  -3.73000000000000         1.495060314349270E-019
  -3.53999999999999         1.030303799988101E-019
  -3.34999999999999         2.651264159124694E-020
  -3.16000000000000        -5.393439672794827E-020
  -2.97000000000000        -1.111848650948597E-019
  -2.78000000000000        -1.251209690781245E-019
  -2.59000000000000        -8.859165793211343E-020
  -2.40000000000001        -9.575997497967489E-021
  -2.20999999999999         9.107435924902750E-020
  -2.02000000000000         1.856547895131027E-019
  -1.83000000000000         2.476414812288140E-019
  -1.64000000000000         2.594093451651481E-019
  -1.45000000000000         2.173935095670677E-019
  -1.26000000000001         1.331894742564083E-019
  -1.06999999999999         3.026059532314124E-020
 -0.879999999999995        -6.280265096674126E-020
 -0.689999999999998        -1.205198336801030E-019
 -0.500000000000000        -1.278608100703595E-019
 -0.310000000000002        -8.455323599235810E-020
 -0.120000000000005        -5.104533817060470E-021
  7.000000000000739E-002    8.546618054292373E-020
  0.260000000000005         1.589447564170281E-019
  0.450000000000003         1.921652490657336E-019
  0.640000000000001         1.737936840227372E-019
  0.829999999999998         1.076892237972038E-019
   1.02000000000000         1.186519316349939E-020
   1.21000000000001        -8.666069942575234E-020
   1.40000000000001        -1.596499732399576E-019
   1.59000000000000        -1.858162084538919E-019
   1.78000000000000        -1.570199479308135E-019
   1.97000000000000        -8.068340866463369E-020
   2.16000000000000         2.228341891957597E-020
   2.34999999999999         1.234490721336714E-019
   2.54000000000001         1.949918353454157E-019
   2.73000000000000         2.176429604938208E-019
   2.92000000000000         1.861494115696525E-019
   3.11000000000000         1.106871079935160E-019
   3.30000000000000         1.382814391384576E-020
   3.48999999999999        -7.605237013037891E-020
   3.68000000000001        -1.330192788677045E-019
   3.87000000000000        -1.410842577553600E-019
   4.06000000000000        -9.880241173480504E-020
   4.25000000000000        -1.962617418437997E-020
   4.44000000000000         7.208403304276250E-020
   4.63000000000000         1.482285481200878E-019
   4.82000000000001         1.852267609120444E-019
   5.01000000000001         1.709593413601606E-019
   5.20000000000000         1.083744879957158E-019
   5.39000000000000         1.470992536006717E-020
   5.58000000000000        -8.344535030592812E-020
   5.77000000000000        -1.578217148073688E-019
   5.96000000000001        -1.866538962176158E-019
   6.15000000000001        -1.610108818393684E-019
   6.34000000000000        -8.743307650498623E-020
   6.53000000000000         1.389568062204772E-020