  -105.000000000000         3.072192868644405E-020
  -104.810000000000         8.471364276366133E-020
  -104.620000000000         1.188538676648584E-019
  -104.430000000000         1.267226555929973E-019
  -104.240000000000         1.092363794338731E-019
  -104.050000000000         7.431027939740211E-020
  -103.860000000000         3.450734171047605E-020
  -103.670000000000         3.357284595164853E-021
  -103.480000000000        -8.583953365176636E-021
  -103.290000000000         3.210831983455313E-021
  -103.100000000000         3.595599861523905E-020
  -102.910000000000         8.040750787235730E-020
  -102.720000000000         1.236010407577299E-019
  -102.530000000000         1.526734188125748E-019
  -102.340000000000         1.586557364131834E-019
  -102.150000000000         1.391370471444764E-019
  -101.960000000000         9.902473251599779E-020
  -101.770000000000         4.917775330021549E-020
  -101.580000000000         3.304807045273588E-021
  -101.390000000000        -2.597585005962927E-020
  -101.200000000000        -3.077153535111462E-020
  -101.010000000000        -1.018752864148039E-020
  -100.820000000000         2.942547277680538E-020
  -100.630000000000         7.632072644931678E-020
  -100.440000000000         1.167625531188911E-019
  -100.250000000000         1.390003527981752E-019
  -100.060000000000         1.366572728362134E-019
  -99.8700000000000         1.105544917076541E-019
  -99.6800000000000         6.844698714000717E-020
  -99.4900000000000         2.275058451346313E-020
  -99.3000000000000        -1.308028626716246E-020
  -99.1100000000000        -2.847467186202007E-020
  -98.9200000000000        -1.882921212058481E-020
  -98.7300000000000         1.314271276060860E-020
  -98.5400000000000         5.819091850726968E-020
  -98.3500000000000         1.032116508890278E-019
  -98.1600000000000         1.350530856536913E-019
  -97.9700000000000         1.443350287332380E-019
  -97.7800000000000         1.281718117021335E-019
  -97.5900000000000         9.100832348347502E-020
  -97.4000000000000         4.332862207446907E-020
  -97.2100000000000        -1.386316779436591E-021
  -97.0200000000000        -3.056881124017975E-020
  -96.8300000000000        -3.620886582323236E-020
  -96.6400000000000        -1.717510698898585E-020
  -96.4500000000000         2.046312282242460E-020
  -96.2600000000000         6.520821610851661E-020
  -96.0700000000000         1.034872372701710E-019
  -95.8800000000000         1.236097090921754E-019
  -95.6900000000000         1.191774730395628E-019
  -95.5000000000000         9.095389518595183E-020
  -95.3100000000000         4.664958315881615E-020
  -95.1200000000000        -1.311537076314896E-021
  -94.9300000000000        -3.939620742894081E-020
  -94.7400000000000        -5.689060320354612E-020
  -94.5500000000000        -4.901525589696033E-020
  -94.3600000000000        -1.832223848762779E-020
  -94.1700000000000         2.603356756713244E-020
  -93.9800000000000         7.094205359566277E-020
  -93.7900000000000         1.031393417662395E-019
  -93.6000000000000         1.130600892320830E-019
  -93.4100000000000         9.762005808579702E-020
  -93.2200000000000         6.111870146763149E-020
  -93.0300000000000         1.399931168382536E-020
  -92.8400000000000        -3.017217172600340E-020
  -92.6500000000000        -5.863255178694816E-020
  -92.4600000000000        -6.311462399128918E-020
  -92.2700000000000        -4.224209181599525E-020
  -92.0800000000000        -1.936384871383680E-021
  -91.8900000000000         4.628128828475548E-020
  -91.7000000000000         8.860337540313753E-020
  -91.5100000000000         1.129092184321184E-019
  -91.3200000000000         1.122495974974364E-019
  -91.1300000000000         8.683284950405347E-020
  -90.9400000000000         4.393603341143985E-020
  -90.7500000000000        -4.232238220676696E-021
  -90.5600000000000        -4.409400720079813E-020
  -90.3700000000000        -6.465122314870262E-020
  -90.1800000000000        -6.067295471003409E-020
  -89.9900000000000        -3.419542813599017E-020
  -89.8000000000000         6.098427898055232E-021
  -89.6100000000000         4.743778952027468E-020
  -89.4200000000000         7.671760651836082E-020
  -89.2300000000000         8.435715823205363E-020
  -89.0400000000000         6.714147076191833E-020
  -88.8500000000000         2.921642082968756E-020
  -88.6600000000000        -1.905690021490358E-020
  -88.4700000000000        -6.406061377680362E-020
  -88.2800000000000        -9.283493009323136E-020
  -88.0900000000000        -9.681425468309743E-020
  -87.9000000000000        -7.430222794678287E-020
  -87.7100000000000        -3.097155073265254E-020
  -87.5200000000000         2.175186698730245E-020
  -87.3300000000000         6.994970449096200E-020
  -87.1400000000000         1.011735727516074E-019
  -86.9500000000000         1.079657568436337E-019
  -86.7600000000000         8.992462653313219E-020
  -86.5700000000000         5.372235736807894E-020
  -86.3800000000000         1.107560253429771E-020
  -86.1900000000000        -2.473590637273248E-020
  -86.0000000000000        -4.278497072594820E-020
  -85.8100000000000        -3.770271465626571E-020
  -85.6200000000000        -1.123974089250862E-020
  -85.4300000000000         2.826919106990960E-020
  -85.2400000000000         6.837547407113453E-020
  -85.0500000000000         9.619728271090735E-020
  -84.8600000000000         1.022361871226006E-019
  -84.6700000000000         8.321842439314862E-020
  -84.4800000000000         4.313328147509996E-020
  -84.2900000000000        -7.837509495596236E-021
  -84.1000000000000        -5.619563754948645E-020
  -83.9100000000000        -8.897944331436720E-020
  -83.7200000000000        -9.747949728237681E-020
  -83.5300000000000        -7.973708517494557E-020
  -83.3400000000000        -4.109711829906668E-020
  -83.1500000000000         7.347466257055988E-021
  -82.9600000000000         5.196821179085964E-020
  -82.7700000000000         8.053639052895648E-020
  -82.5800000000000         8.573792633582166E-020
  -82.3900000000000         6.724948751925796E-020
  -82.2000000000000         3.177669516150696E-020
  -82.0100000000000        -8.953413125804759E-021
  -81.8200000000000        -4.166110719746162E-020
  -81.6300000000000        -5.543554499431935E-020
  -81.4400000000000        -4.496798324566820E-020
  -81.2500000000000        -1.215314733858629E-020
  -81.0600000000000         3.441168256859623E-020
  -80.8700000000000         8.188820032451778E-020
  -80.6800000000000         1.169050347014355E-019
  -80.4900000000000         1.294337727612667E-019
  -80.3000000000000         1.157061539192334E-019
  -80.1100000000000         7.932568744180587E-020
  -79.9200000000000         3.025186005442824E-020
  -79.7300000000000        -1.804890866646819E-020
  -79.5400000000000        -5.246208527140732E-020
  -79.3500000000000        -6.397884793972625E-020
  -79.1600000000000        -5.025983784280162E-020
  -78.9700000000000        -1.626629598716059E-020
  -78.7800000000000         2.722548904607809E-020
  -78.5900000000000         6.679589173576217E-020
  -78.4000000000000         9.031727955932422E-020
  -78.2100000000000         9.050652294159770E-020
  -78.0200000000000         6.705958531760833E-020
  -77.8300000000000         2.674690129313303E-020
  -77.6400000000000        -1.855780440622629E-020
  -77.4500000000000        -5.534265837243828E-020
  -77.2600000000000        -7.241198012645440E-020
  -77.0700000000000        -6.418373402589227E-020
  -76.8800000000000        -3.237213826485045E-020
  -76.6900000000000         1.443922824884077E-020
  -76.5000000000000         6.322115691342081E-020
  -76.3100000000000         1.002280875661834E-019
  -76.1200000000000         1.149589417328070E-019
  -75.9300000000000         1.032021992283258E-019
  -75.7400000000000         6.827864129480372E-020
  -75.5500000000000         2.011629669949413E-020
  -75.3600000000000        -2.757835999570931E-020
  -75.1700000000000        -6.123635650430086E-020
  -74.9800000000000        -7.129923663921218E-020
  -74.7900000000000        -5.493441439547429E-020
  -74.6000000000000        -1.681500805558891E-020
  -74.4100000000000         3.225453240379422E-020
  -74.2200000000000         7.846532533621605E-020
  -74.0300000000000         1.089779289107348E-019
  -73.8400000000000         1.155947967098906E-019
  -73.6500000000000         9.707155884243139E-020
  -73.4600000000000         5.940302807991321E-020
  -73.2700000000000         1.400879028383764E-020
  -73.0800000000000        -2.564607635299108E-020
  -72.8900000000000        -4.800625668510008E-020
  -72.7000000000000        -4.680474356524957E-020
  -72.5100000000000        -2.288369122434245E-020
  -72.3200000000000         1.606843714975517E-020
  -72.1300000000000         5.778434159602844E-020
  -71.9400000000000         8.903030261258651E-020
  -71.7500000000000         9.951406932995378E-020
  -71.5600000000000         8.495125217243722E-020
  -71.3700000000000         4.839419031701079E-020
  -71.1800000000000        -5.706418102454675E-022
  -70.9900000000000        -4.853122458569782E-020
  -70.8000000000000        -8.208309738206837E-020
  -70.6100000000000        -9.167689391811005E-020
  -70.4200000000000        -7.436612087268715E-020
  -70.2300000000000        -3.466178807094496E-020
  -70.0400000000000         1.674956068994630E-020
  -69.8500000000000         6.605066968161423E-020
  -69.6600000000000         1.002217164265965E-019
  -69.4700000000000         1.107213392397435E-019
  -69.2800000000000         9.586357265736339E-020
  -69.0900000000000         6.121001709717452E-020
  -68.9000000000000         1.786924613647325E-020
  -68.7100000000000        -2.079878047660728E-020
  -68.5200000000000        -4.311182589981375E-020
  -68.3300000000000        -4.248142360156959E-020
  -68.1400000000000        -1.931946331893271E-020
  -67.9500000000000         1.911791676249698E-020
  -67.7600000000000         6.089700161341118E-020
  -67.5700000000000         9.294380616229673E-020
  -67.3800000000000         1.049147237430344E-019
  -67.1900000000000         9.227030597216965E-020
  -67.0000000000000         5.765727152634875E-020
  -66.8100000000000         1.019678758652225E-020
  -66.6200000000000        -3.711547732668853E-020
  -66.4300000000000        -7.114466117168493E-020
  -66.2400000000000        -8.240434213917218E-020
  -66.0500000000000        -6.779637512211379E-020
  -65.8600000000000        -3.150556413422713E-020
  -65.6700000000000         1.621208944559489E-020
  -65.4800000000000         6.199565229772319E-020
  -65.2900000000000         9.323769588794974E-020
  -65.1000000000000         1.017140431025750E-019
  -64.9100000000000         8.593187261362879E-020
  -64.7200000000000         5.151645843131392E-020
  -64.5300000000000         9.526034192236286E-021
  -64.3400000000000        -2.681521474168309E-020
  -64.1500000000000        -4.601670245016069E-020
  -63.9600000000000        -4.171841150644436E-020
  -63.7700000000000        -1.459327121249723E-020
  -63.5800000000000         2.780395605838848E-020
  -63.3900000000000         7.320173108734489E-020
  -63.2000000000000         1.081625725506567E-019
  -63.0100000000000         1.219862557036972E-019
  -62.8200000000000         1.098295374528088E-019
  -62.6300000000000         7.413620469981132E-020
  -62.4400000000000         2.396357905203644E-020
  -62.2500000000000        -2.759874449410402E-020
  -62.0600000000000        -6.717168463122102E-020
  -61.8700000000000        -8.491010936743872E-020
  -61.6800000000000        -7.730181692052225E-020
  -61.4900000000000        -4.813071747608075E-020
  -61.3000000000000        -7.322395888060157E-021
  -61.1100000000000         3.199515848435162E-020
  -60.9200000000000         5.736104868386524E-020
  -60.7300000000000         6.065176824601865E-020
  -60.5400000000000         4.047883368714688E-020
  -60.3500000000000         2.612416123616254E-021
  -60.1600000000000        -4.169231204360149E-020
  -59.9700000000000        -7.897697616975198E-020
  -59.7800000000000        -9.751366559944248E-020
  -59.5900000000000        -9.074685717078451E-020
  -59.4000000000000        -5.924415556011436E-020
  -59.2100000000000        -1.058821007034049E-020
  -59.0200000000000         4.276326744598171E-020
  -58.8300000000000         8.703496642482296E-020
  -58.6400000000000         1.110822803980586E-019
  -58.4500000000000         1.095869656381918E-019
  -58.2600000000000         8.457163944847052E-020
  -58.0700000000000         4.479089101557409E-020
  -57.8800000000000         3.173256063499090E-021
  -57.6900000000000        -2.694519062902144E-020
  -57.5000000000000        -3.570401066936784E-020
  -57.3100000000000        -1.959346479575279E-020
  -57.1200000000000         1.751074574015751E-020
  -56.9300000000000         6.545282010814928E-020
  -56.7400000000000         1.107235417494044E-019
  -56.5500000000000         1.403622571259854E-019
  -56.3600000000000         1.457039949844024E-019
  -56.1700000000000         1.248844780819202E-019
  -55.9800000000000         8.337536800712972E-020
  -55.7900000000000         3.239490438149651E-020
  -55.6000000000000        -1.434199734446724E-020
  -55.4100000000000        -4.458691635840423E-020
  -55.2200000000000        -5.108157741588052E-020
  -55.0300000000000        -3.362038148506524E-020
  -54.8400000000000         9.429030774653386E-022
  -54.6500000000000         4.074262862505298E-020
  -54.4600000000000         7.240770676497264E-020
  -54.2700000000000         8.501030403293718E-020
  -54.0800000000000         7.331069311161854E-020
  -53.8900000000000         3.935250808989183E-020
  -53.7000000000000        -8.062715313319067E-021
  -53.5100000000000        -5.587836234851805E-020
  -53.3200000000000        -9.054261930632216E-020
  -53.1300000000000        -1.019356528903788E-019
  -52.9400000000000        -8.632310630516183E-020
  -52.7500000000000        -4.747771588447925E-020
  -52.5600000000000         4.356528817821446E-021
  -52.3700000000000         5.535800470745441E-020
  -52.1800000000000         9.204357236348147E-020
  -51.9900000000000         1.050797613769156E-019
  -51.8000000000000         9.189455523258956E-020
  -51.6100000000000         5.734169137856015E-020
  -51.4200000000000         1.222985637178739E-020
  -51.2300000000000        -2.985542618711821E-020
  -51.0400000000000        -5.651533948136305E-020
  -50.8500000000000        -6.013630755676954E-020
  -50.6600000000000        -4.007869175679334E-020
  -50.4700000000000        -2.821507397541161E-021
  -50.2800000000000         3.997468829553247E-020
  -50.0900000000000         7.491767125765211E-020
  -49.9000000000000         9.083786855383542E-020
  -49.7100000000000         8.209479101495539E-020
  -49.5200000000000         5.027395707560167E-020
  -49.3300000000000         3.780602764014648E-021
  -49.1400000000000        -4.455388694612016E-020
  -48.9500000000000        -8.116065441824864E-020
  -48.7600000000000        -9.564836646302038E-020
  -48.5700000000000        -8.380847490325668E-020
  -48.3800000000000        -4.883745780100703E-020
  -48.1900000000000        -4.203105658715952E-022
  -48.0000000000000         4.805866435589935E-020
  -47.8100000000000         8.336808873916168E-020
  -47.6200000000000         9.622879038614175E-020
  -47.4300000000000         8.396280319595727E-020
  -47.2400000000000         5.122990849660512E-020
  -47.0500000000000         8.642412920167686E-021
  -46.8600000000000        -3.033972232340193E-020
  -46.6700000000000        -5.333593372514705E-020
  -46.4800000000000        -5.265887762085060E-020
  -46.2900000000000        -2.756787786449412E-020
  -46.1000000000000         1.549365435244808E-020
  -45.9100000000000         6.474798365161343E-020
  -45.7200000000000         1.064827857858125E-019
  -45.5300000000000         1.290110664826745E-019
  -45.3400000000000         1.260392766742164E-019
  -45.1500000000000         9.846712654819640E-020
  -44.9600000000000         5.410231934073435E-020
  -44.7700000000000         5.380771126695990E-021
  -44.5800000000000        -3.424015394696246E-020
  -44.3900000000000        -5.416749160254941E-020
  -44.2000000000000        -4.971269436376154E-020
  -44.0100000000000        -2.340700389194685E-020
  -43.8200000000000         1.578777457388753E-020
  -43.6300000000000         5.514308941632774E-020
  -43.4400000000000         8.192640117128620E-020
  -43.2500000000000         8.716532501632194E-020
  -43.0600000000000         6.831320677656542E-020
  -42.8700000000000         3.003588532449764E-020
  -42.6800000000000        -1.711164177282361E-020
  -42.4900000000000        -5.973344926405079E-020
  -42.3000000000000        -8.547827913950384E-020
  -42.1100000000000        -8.663282720486090E-020
  -41.9200000000000        -6.237926638048194E-020
  -41.7300000000000        -1.906140793677507E-020
  -41.5400000000000         3.161901157163026E-020
  -41.3500000000000         7.595456466767182E-020
  -41.1600000000000         1.021621895133038E-019
  -40.9700000000000         1.037518974372677E-019
  -40.7800000000000         8.135731300618853E-020
  -40.5900000000000         4.249858414978993E-020
  -40.4000000000000        -6.497769636499722E-022
  -40.2100000000000        -3.483390619417635E-020
  -40.0200000000000        -4.959839764973198E-020
  -39.8300000000000        -4.034178741028253E-020
  -39.6400000000000        -9.664455446050501E-021
  -39.4500000000000         3.338197738057837E-020
  -39.2600000000000         7.592810684251071E-020
  -39.0700000000000         1.050421590985335E-019
  -38.8800000000000         1.115186142410619E-019
  -38.6900000000000         9.259646183539421E-020
  -38.5000000000000         5.280975545786471E-020
  -38.3100000000000         2.715315945893670E-021
  -38.1200000000000        -4.413696302496298E-020
  -37.9300000000000        -7.511048223443153E-020
  -37.7400000000000        -8.212733201016959E-020
  -37.5500000000000        -6.399198326308837E-020
  -37.3600000000000        -2.671924374756066E-020
  -37.1700000000000         1.822650166232774E-020
  -36.9800000000000         5.726911656454995E-020
  -36.7900000000000         7.866975771666924E-020
  -36.6000000000000         7.594546247069812E-020
  -36.4100000000000         4.976718669043605E-020
  -36.2200000000000         7.784126429875962E-021
  -36.0300000000000        -3.757999282038807E-020
  -35.8400000000000        -7.272417554999830E-020
  -35.6500000000000        -8.681917398341062E-020
  -35.4600000000000        -7.496126229369103E-020
  -35.2700000000000        -3.961380282373920E-020
  -35.0800000000000         1.008155868790950E-020
  -34.8900000000000         6.092211245105727E-020
  -34.7000000000000         9.942887800758685E-020
  -34.5100000000000         1.157022765762598E-019
  -34.3200000000000         1.062342915435952E-019
  -34.1300000000000         7.486669376304995E-020
  -33.9400000000000         3.162212164554869E-020
  -33.7500000000000        -1.024983938963175E-020
  -33.5600000000000        -3.815299594791100E-020
  -33.3700000000000        -4.382406847451195E-020
  -33.1800000000000        -2.574217899672675E-020
  -32.9900000000000         1.043146410931695E-020
  -32.8000000000000         5.351016160437658E-020
  -32.6100000000000         9.005225566265780E-020
  -32.4200000000000         1.082961687474948E-019
  -32.2300000000000         1.016191017553071E-019
  -32.0400000000000         7.051649286270654E-020
  -31.8500000000000         2.252607021496397E-020
  -31.6600000000000        -2.988694611125250E-020
  -31.4700000000000        -7.287771471302572E-020
  -31.2800000000000        -9.517984508380053E-020
  -31.0900000000000        -9.132750126232245E-020
  -30.9000000000000        -6.320532293596106E-020
  -30.7100000000000        -1.947513662047832E-020
  -30.5200000000000         2.695273906407428E-020
  -30.3300000000000         6.266606620192303E-020
  -30.1400000000000         7.762497759834163E-020
  -29.9500000000000         6.804104971483871E-020
  -29.7600000000000         3.743243033305004E-020
  -29.5700000000000        -4.441955810004332E-021
  -29.3800000000000        -4.445320889418030E-020
  -29.1900000000000        -6.994383059761149E-020
  -29.0000000000000        -7.242725641408129E-020
  -28.8100000000000        -5.007448164554699E-020
  -28.6200000000000        -8.266919459928752E-021
  -28.4300000000000         4.194538994731330E-020
  -28.2400000000000         8.703222580078109E-020
  -28.0500000000000         1.148896586813159E-019
  -27.8600000000000         1.183257424560739E-019
  -27.6700000000000         9.711066945359064E-020
  -27.4800000000000         5.799830652510340E-020
  -27.2900000000000         1.271928875134433E-020
  -27.1000000000000        -2.546416798214494E-020
  -26.9100000000000        -4.563561659572653E-020
  -26.7200000000000        -4.240463318545696E-020
  -26.5300000000000        -1.746469044901757E-020
  -26.3400000000000         2.092524228525043E-020
  -26.1500000000000         6.038634257698872E-020
  -25.9600000000000         8.808241360667799E-020
  -25.7700000000000         9.453148133169727E-020
  -25.5800000000000         7.645165394206187E-020
  -25.3900000000000         3.780560106864647E-020
  -25.2000000000000        -1.126771770752298E-020
  -25.0100000000000        -5.733018293238689E-020
  -24.8200000000000        -8.749993649329421E-020
  -24.6300000000000        -9.316912454839405E-020
  -24.4400000000000        -7.250612985759494E-020
  -24.2500000000000        -3.101438759222168E-020
  -24.0600000000000         2.001970901569358E-020
  -23.8700000000000         6.674685315855380E-020
  -23.6800000000000         9.671437167097078E-020
  -23.4900000000000         1.024182553259372E-019
  -23.3000000000000         8.341600837382985E-020
  -23.1100000000000         4.638673746824791E-020
  -22.9200000000000         3.123648317844429E-021
  -22.7300000000000        -3.295260481387981E-020
  -22.5400000000000        -5.074098527468044E-020
  -22.3500000000000        -4.471748896740846E-020
  -22.1600000000000        -1.655679498313422E-020
  -21.9700000000000         2.535139150914896E-020
  -21.7800000000000         6.835111534771712E-020
  -21.5900000000000         9.922521004723809E-020
  -21.4000000000000         1.080820325250252E-019
  -21.2100000000000         9.129257937232830E-020
  -21.0200000000000         5.261772376250093E-020
  -20.8300000000000         2.188289337807137E-021
  -20.6400000000000        -4.637443719340471E-020
  -20.4500000000000        -7.986552385862373E-020
  -20.2600000000000        -8.929562469998923E-020
  -20.0700000000000        -7.247792796912296E-020
  -19.8800000000000        -3.465160551854388E-020
  -19.6900000000000         1.303873069230031E-020
  -19.5000000000000         5.676749229177743E-020
  -19.3100000000000         8.402490961026605E-020
  -19.1200000000000         8.723235200536295E-020
  -18.9300000000000         6.593196344025331E-020
  -18.7400000000000         2.691575403707649E-020
  -18.5500000000000        -1.774787098587436E-020
  -18.3600000000000        -5.422425449196798E-020
  -18.1700000000000        -7.094589862091374E-020
  -17.9800000000000        -6.200084617257154E-020
  -17.7900000000000        -2.889268354172887E-020
  -17.6000000000000         1.983999670942803E-020
  -17.4100000000000         7.103699494396924E-020
  -17.2200000000000         1.106669070261236E-019
  -17.0300000000000         1.278327996370677E-019
  -16.8400000000000         1.178787969293790E-019
  -16.6500000000000         8.370303708976105E-020
  -16.4600000000000         3.489908339334776E-020
  -16.2700000000000        -1.502598609644576E-020
  -16.0800000000000        -5.255202920234288E-020
  -15.8900000000000        -6.803497661324268E-020
  -15.7000000000000        -5.845766576184159E-020
  -15.5100000000000        -2.824647126632801E-020
  -15.3200000000000         1.207924870945382E-020
  -15.1300000000000         4.902768995097960E-020
  -14.9400000000000         7.011514730486792E-020
  -14.7500000000000         6.755053277769991E-020
  -14.5600000000000         4.055722724649808E-020
  -14.3700000000000        -4.339068223349536E-021
  -14.1800000000000        -5.514145921742805E-020
  -13.9900000000000        -9.780623128671272E-020
  -13.8000000000000        -1.202738032591515E-019
  -13.6100000000000        -1.159417362061208E-019
  -13.4200000000000        -8.557357874432330E-020
  -13.2300000000000        -3.708834404402618E-020
  -13.0400000000000         1.670964993406786E-020
  -12.8500000000000         6.180124278570112E-020
  -12.6600000000000         8.695716279648410E-020
  -12.4700000000000         8.691730456089349E-020
  -12.2800000000000         6.382923294174053E-020
  -12.0900000000000         2.653846237700980E-020
  -11.9000000000000        -1.205466293076934E-020
  -11.7100000000000        -3.879974307616660E-020
  -11.5200000000000        -4.415870177130352E-020
  -11.3300000000000        -2.500760938060854E-020
  -11.1400000000000         1.443304907863503E-020
  -10.9500000000000         6.380900910995575E-020
  -10.7600000000000         1.096312207832650E-019
  -10.5700000000000         1.391893305936395E-019
  -10.3800000000000         1.442391112768471E-019
  -10.1900000000000         1.233902327642163E-019
  -10.0000000000000         8.250117144770194E-020
  -9.81000000000000         3.296995015967625E-020
  -9.62000000000000        -1.157791455850762E-020
  -9.42999999999999        -3.923846633452762E-020
  -9.23999999999999        -4.326711421447354E-020
  -9.05000000000000        -2.400671385172333E-020
  -8.86000000000000         1.125468222238698E-020
  -8.67000000000000         5.045594844528023E-020
  -8.48000000000000         8.033302288633236E-020
  -8.28999999999999         9.034618365067449E-020
  -8.09999999999999         7.581768798453464E-020
  -7.91000000000000         3.936210986241762E-020
  -7.72000000000000        -9.810463209818409E-021
  -7.53000000000000        -5.851752937502329E-020
  -7.34000000000000        -9.339208148938320E-020
  -7.15000000000001        -1.047371287364426E-019
  -6.95999999999999        -8.933117392283043E-020
  -6.77000000000000        -5.137283558308445E-020
  -6.58000000000000        -1.289936170915371E-021
  -6.39000000000000         4.724455100029844E-020
  -6.20000000000000         8.122752477066607E-020
  -6.01000000000001         9.203778335389129E-020
  -5.81999999999999         7.786757169033752E-020
  -5.63000000000000         4.416732311533728E-020
  -5.44000000000000         1.977239694807136E-021
  -5.25000000000000        -3.536222194490524E-020
  -5.06000000000000        -5.615591831428514E-020
  -4.87000000000000        -5.380227124856431E-020
  -4.67999999999999        -2.873977978915279E-020
  -4.48999999999999         1.167267986697710E-020
  -4.30000000000000         5.530467715417229E-020
  -4.11000000000000         8.880657551976663E-020
  -3.92000000000000         1.015332982074806E-019
  -3.73000000000000         8.869819991039149E-020
  -3.53999999999999         5.283544292015803E-020
  -3.34999999999999         3.137542250057444E-021
  -3.16000000000000        -4.714731598593070E-020
  -2.97000000000000        -8.450634392059648E-020
  -2.78000000000000        -9.904083519578924E-020
  -2.59000000000000        -8.730417379823093E-020
  -2.40000000000001        -5.327319221922037E-020
  -2.20999999999999        -7.170513902978193E-021
  -2.02000000000000         3.751949270484332E-020
  -1.83000000000000         6.797501118652932E-020
  -1.64000000000000         7.576353484086486E-020
  -1.45000000000000         5.928975443887949E-020
  -1.26000000000001         2.425177961989386E-020
  -1.06999999999999        -1.803066576129977E-020
 -0.879999999999995        -5.393387034000490E-020
 -0.689999999999998        -7.153094084182863E-020
 -0.500000000000000        -6.411170499008305E-020
 -0.310000000000002        -3.219527203900869E-020
 -0.120000000000005         1.655323131957148E-020
  7.000000000000739E-002    6.948016967647738E-020
  0.260000000000005         1.125512421639572E-019
  0.450000000000003         1.343665884206426E-019
  0.640000000000001         1.294230975695636E-019
  0.829999999999998         9.968077930124583E-020
   1.02000000000000         5.397872093435048E-020
   1.21000000000001         5.466996225073038E-021
   1.40000000000001        -3.220441703281407E-020
   1.59000000000000        -4.883597661401583E-020
   1.78000000000000        -4.062029417385091E-020
   1.97000000000000        -1.121816491514589E-020
   2.16000000000000         2.934453968004855E-020
   2.34999999999999         6.763616196544531E-020
   2.54000000000001         9.077130221782865E-020
   2.73000000000000         9.020560720000832E-020
   2.92000000000000         6.427184978250628E-020
   3.11000000000000         1.872311193379278E-020
   3.30000000000000        -3.487334761961945E-020
   3.48999999999999        -8.242749243801381E-020
   3.68000000000001        -1.113534827041475E-019
   3.87000000000000        -1.141693342457355E-019
   4.06000000000000        -9.062754284572148E-020
   4.25000000000000        -4.775873065792454E-020
   4.44000000000000         2.184027107551381E-021
   4.63000000000000         4.528189160117175E-020
   4.82000000000001         6.997314411374791E-020
   5.01000000000001         7.037289058452222E-020
   5.20000000000000         4.792701468072520E-020
   5.39000000000000         1.092461512692244E-020
   5.58000000000000        -2.798413903130613E-020
   5.77000000000000        -5.554089663227460E-020
   5.96000000000001        -6.181246366127023E-020
   6.15000000000001        -4.316166503780876E-020
   6.34000000000000        -3.389698595394892E-021
   6.53000000000000         4.728757167924752E-020