  -105.000000000000         0.000000000000000E+000
  -104.810000000000         1.167433290084874E-020
  -104.620000000000         3.219118425019130E-020
  -104.430000000000         5.683880261349494E-020
  -104.240000000000         8.034579337553026E-020
  -104.050000000000         9.834862679836676E-020
  -103.860000000000         1.085836995465431E-019
  -103.670000000000         1.114614166483477E-019
  -103.480000000000         1.098594676927057E-019
  -103.290000000000         1.081995143695805E-019
  -103.100000000000         1.110795838464188E-019
  -102.910000000000         1.218627938433714E-019
  -102.720000000000         1.416344368379145E-019
  -102.530000000000         1.688311893313087E-019
  -102.340000000000         1.996503359866929E-019
  -102.150000000000         2.291203691683185E-019
  -101.960000000000         2.525224139015940E-019
  -101.770000000000         2.667497675243976E-019
  -101.580000000000         2.712099601556759E-019
  -101.390000000000         2.680055942016016E-019
  -101.200000000000         2.613391371330168E-019
  -101.010000000000         2.563124107681781E-019
  -100.820000000000         2.574678762492542E-019
  -100.630000000000         2.674940904233641E-019
  -100.440000000000         2.864697522999946E-019
  -100.250000000000         3.118638606085427E-019
  -100.060000000000         3.392898863633011E-019
  -99.8700000000000         3.637936242863037E-019
  -99.6800000000000         3.813005932122097E-019
  -99.4900000000000         3.898034793995065E-019
  -99.3000000000000         3.899458153273256E-019
  -99.1100000000000         3.848329706179847E-019
  -98.9200000000000         3.791254400197582E-019
  -98.7300000000000         3.776778700121625E-019
  -98.5400000000000         3.841196708687893E-019
  -98.3500000000000         3.997904190449249E-019
  -98.1600000000000         4.233400982066199E-019
  -97.9700000000000         4.511105915933277E-019
  -97.7800000000000         4.781874091252504E-019
  -97.5900000000000         4.998158800401385E-019
  -97.4000000000000         5.127705720489709E-019
  -97.2100000000000         5.162807564284367E-019
  -97.0200000000000         5.122437716727851E-019
  -96.8300000000000         5.046646081571684E-019
  -96.6400000000000         4.984844026599567E-019
  -96.4500000000000         4.981380675013538E-019
  -96.2600000000000         5.062603893324780E-019
  -96.0700000000000         5.229171896225901E-019
  -95.8800000000000         5.455855394951430E-019
  -95.6900000000000         5.698888790776167E-019
  -95.5000000000000         5.908729792501769E-019
  -95.3100000000000         6.044513592482783E-019
  -95.1200000000000         6.085998208505271E-019
  -94.9300000000000         6.039529751592787E-019
  -94.7400000000000         5.936292620275295E-019
  -94.5500000000000         5.823345459419312E-019
  -94.3600000000000         5.750034647866845E-019
  -94.1700000000000         5.753720953166325E-019
  -93.9800000000000         5.848962204621949E-019
  -93.7900000000000         6.023300756829845E-019
  -93.6000000000000         6.240891703333660E-019
  -93.4100000000000         6.452929095911761E-019
  -93.2200000000000         6.611847924059687E-019
  -93.0300000000000         6.685180161488761E-019
  -92.8400000000000         6.665045308458225E-019
  -92.6500000000000         6.570525908929948E-019
  -92.4600000000000         6.442241611667822E-019
  -92.2700000000000         6.330690337763049E-019
  -92.0800000000000         6.281721662767040E-019
  -91.8900000000000         6.323332075251791E-019
  -91.7000000000000         6.457590558249110E-019
  -91.5100000000000         6.660024901783715E-019
  -91.3200000000000         6.886645588291163E-019
  -91.1300000000000         7.086573372273970E-019
  -90.9400000000000         7.216610416406563E-019
  -90.7500000000000         7.253530299237442E-019
  -90.5600000000000         7.200527911167991E-019
  -90.3700000000000         7.085973071874410E-019
  -90.1800000000000         6.954853263202924E-019
  -89.9900000000000         6.855415843976281E-019
  -89.8000000000000         6.824910636286161E-019
  -89.6100000000000         6.878589869988892E-019
  -89.4200000000000         7.005174236463204E-019
  -89.2300000000000         7.170116774758664E-019
  -89.0400000000000         7.325731437745008E-019
  -88.8500000000000         7.425254363653951E-019
  -88.6600000000000         7.436753836897820E-019
  -88.4700000000000         7.352838142837318E-019
  -88.2800000000000         7.193323504545967E-019
  -88.0900000000000         7.000065408483039E-019
  -87.9000000000000         6.825429336750196E-019
  -87.7100000000000         6.717716942285263E-019
  -87.5200000000000         6.707737443966115E-019
  -87.3300000000000         6.800374036837012E-019
  -87.1400000000000         6.973546321031771E-019
  -86.9500000000000         7.184833613293121E-019
  -86.7600000000000         7.383816197037579E-019
  -86.5700000000000         7.526547194119023E-019
  -86.3800000000000         7.587961155036277E-019
  -86.1900000000000         7.568634483749353E-019
  -86.0000000000000         7.493964710819895E-019
  -85.8100000000000         7.406051594990751E-019
  -85.6200000000000         7.350694395126087E-019
  -85.4300000000000         7.363340579599219E-019
  -85.2400000000000         7.458117321191743E-019
  -85.0500000000000         7.623167381069530E-019
  -84.8600000000000         7.823666995493189E-019
  -84.6700000000000         8.011664892135411E-019
  -84.4800000000000         8.139897008187156E-019
  -84.2900000000000         8.175571361740789E-019
  -84.1000000000000         8.110114472103886E-019
  -83.9100000000000         7.962027939052741E-019
  -83.7200000000000         7.771992587509292E-019
  -83.5300000000000         7.591605849379709E-019
  -83.3400000000000         7.468991663844499E-019
  -83.1500000000000         7.435436799843258E-019
  -82.9600000000000         7.496912035621312E-019
  -82.7700000000000         7.632916004648522E-019
  -82.5800000000000         7.802950319631349E-019
  -82.3900000000000         7.958720124724646E-019
  -82.2000000000000         8.058498372204529E-019
  -82.0100000000000         8.079471566338374E-019
  -81.8200000000000         8.024475402326468E-019
  -81.6300000000000         7.921159358988016E-019
  -81.4400000000000         7.813820331348054E-019
  -81.2500000000000         7.750281022654477E-019
  -81.0600000000000         7.767638371461427E-019
  -80.8700000000000         7.881045416415142E-019
  -80.6800000000000         8.078813532694593E-019
  -80.4900000000000         8.325284548280596E-019
  -80.3000000000000         8.570661869187408E-019
  -80.1100000000000         8.764967933173684E-019
  -79.9200000000000         8.872099481466267E-019
  -79.7300000000000         8.879925001380511E-019
  -79.5400000000000         8.803513628533690E-019
  -79.3500000000000         8.680569077349162E-019
  -79.1600000000000         8.560394006362730E-019
  -78.9700000000000         8.489581693546516E-019
  -78.7800000000000         8.498582081611518E-019
  -78.5900000000000         8.593038551921613E-019
  -78.4000000000000         8.752406470207415E-019
  -78.2100000000000         8.936244214247043E-019
  -78.0200000000000         9.096331257385485E-019
  -77.8300000000000         9.191070638453952E-019
  -77.6400000000000         9.197969482299389E-019
  -77.4500000000000         9.120550981710291E-019
  -77.2600000000000         8.987667380484122E-019
  -77.0700000000000         8.845385457229767E-019
  -76.8800000000000         8.743769191185735E-019
  -76.6900000000000         8.722371331823336E-019
  -76.5000000000000         8.798638258531328E-019
  -76.3100000000000         8.962611728094333E-019
  -76.1200000000000         9.179504991282826E-019
  -75.9300000000000         9.399455706679002E-019
  -75.7400000000000         9.571673348350462E-019
  -75.5500000000000         9.658914543599255E-019
  -75.3600000000000         9.648115275808539E-019
  -75.1700000000000         9.554116775615558E-019
  -74.9800000000000         9.415417121092194E-019
  -74.7900000000000         9.283179676386552E-019
  -74.6000000000000         9.206666346389392E-019
  -74.4100000000000         9.219282645775315E-019
  -74.2200000000000         9.329233569523809E-019
  -74.0300000000000         9.517450882052933E-019
  -73.8400000000000         9.743349699384603E-019
  -73.6500000000000         9.956711109550519E-019
  -73.4600000000000         1.011222162298584E-018
  -73.2700000000000         1.018244261625419E-018
  -73.0800000000000         1.016545502606442E-018
  -72.8900000000000         1.008498752611282E-018
  -72.7000000000000         9.983031250661044E-019
  -72.5100000000000         9.907129500564874E-019
  -72.3200000000000         9.896073224008547E-019
  -72.1300000000000         9.968189561733944E-019
  -71.9400000000000         1.011565372207345E-018
  -71.7500000000000         1.030650471166177E-018
  -71.5600000000000         1.049380718552728E-018
  -71.3700000000000         1.062931946991703E-018
  -71.1800000000000         1.067770510873192E-018
  -70.9900000000000         1.062715103103810E-018
  -70.8000000000000         1.049328645530627E-018
  -70.6100000000000         1.031523526098624E-018
  -70.4200000000000         1.014491425841744E-018
  -70.2300000000000         1.003264400167003E-018
  -70.0400000000000         1.001319946374786E-018
  -69.8500000000000         1.009629233229183E-018
  -69.6600000000000         1.026419200853799E-018
  -69.4700000000000         1.047713485471289E-018
  -69.2800000000000         1.068493309764902E-018
  -69.0900000000000         1.084141643081088E-018
  -68.9000000000000         1.091753116261828E-018
  -68.7100000000000         1.090931956612947E-018
  -68.5200000000000         1.083849579680717E-018
  -68.3300000000000         1.074549462771018E-018
  -68.1400000000000         1.067706638712121E-018
  -67.9500000000000         1.067208066709823E-018
  -67.7600000000000         1.074971447081870E-018
  -67.5700000000000         1.090348927322920E-018
  -67.3800000000000         1.110290093423542E-018
  -67.1900000000000         1.130216522345273E-018
  -67.0000000000000         1.145352809692967E-018
  -66.8100000000000         1.152126285525285E-018
  -66.6200000000000         1.149227588975845E-018
  -66.4300000000000         1.138022404141144E-018
  -66.2400000000000         1.122192617730605E-018
  -66.0500000000000         1.106708754128258E-018
  -65.8600000000000         1.096429995184202E-018
  -65.6700000000000         1.094736639757252E-018
  -65.4800000000000         1.102590589173528E-018
  -65.2900000000000         1.118294987630387E-018
  -65.1000000000000         1.138020913610949E-018
  -64.9100000000000         1.156946324009365E-018
  -64.7200000000000         1.170675025204128E-018
  -64.5300000000000         1.176522578213265E-018
  -64.3400000000000         1.174294918197177E-018
  -64.1500000000000         1.166332796611425E-018
  -63.9600000000000         1.156808571266116E-018
  -63.7700000000000         1.150479800238976E-018
  -63.5800000000000         1.151263128205367E-018
  -63.3900000000000         1.161045303541164E-018
  -63.2000000000000         1.179079786018558E-018
  -63.0100000000000         1.202147081110413E-018
  -62.8200000000000         1.225434563185963E-018
  -62.6300000000000         1.243882305342480E-018
  -62.4400000000000         1.253606320971891E-018
  -62.2500000000000         1.252988465382254E-018
  -62.0600000000000         1.243118798064132E-018
  -61.8700000000000         1.227463225222390E-018
  -61.6800000000000         1.210852956504505E-018
  -61.4900000000000         1.198088534792592E-018
  -61.3000000000000         1.192563283863594E-018
  -61.1100000000000         1.195306024355129E-018
  -60.9200000000000         1.204721444087648E-018
  -60.7300000000000         1.217103222854998E-018
  -60.5400000000000         1.227769116021135E-018
  -60.3500000000000         1.232485179656113E-018
  -60.1600000000000         1.228761834148109E-018
  -59.9700000000000         1.216642101079545E-018
  -59.7800000000000         1.198750583203604E-018
  -59.5900000000000         1.179586908151757E-018
  -59.4000000000000         1.164266777478705E-018
  -59.2100000000000         1.157074129038913E-018
  -59.0200000000000         1.160243257651976E-018
  -58.8300000000000         1.173324170668386E-018
  -58.6400000000000         1.193316544893409E-018
  -58.4500000000000         1.215535437219648E-018
  -58.2600000000000         1.234959591835921E-018
  -58.0700000000000         1.247672660210068E-018
  -57.8800000000000         1.251980130421840E-018
  -57.6900000000000         1.248878497514197E-018
  -57.5000000000000         1.241740957982812E-018
  -57.3100000000000         1.235310973459837E-018
  -57.1200000000000         1.234295441360426E-018
  -56.9300000000000         1.241965056841097E-018
  -56.7400000000000         1.259167513001522E-018
  -56.5500000000000         1.284040002705871E-018
  -56.3600000000000         1.312505170709397E-018
  -56.1700000000000         1.339407520799943E-018
  -55.9800000000000         1.359961272380526E-018
  -55.7900000000000         1.371090160642653E-018
  -55.6000000000000         1.372271336045495E-018
  -55.4100000000000         1.365640201651755E-018
  -55.2200000000000         1.355328307829301E-018
  -55.0300000000000         1.346229202233720E-018
  -54.8400000000000         1.342552562864976E-018
  -54.6500000000000         1.346587505403157E-018
  -54.4600000000000         1.358034761742496E-018
  -54.2700000000000         1.374102433973847E-018
  -54.0800000000000         1.390338677275012E-018
  -53.8900000000000         1.401960497356262E-018
  -53.7000000000000         1.405292630349171E-018
  -53.5100000000000         1.398896665537200E-018
  -53.3200000000000         1.384058852656734E-018
  -53.1300000000000         1.364490470200798E-018
  -52.9400000000000         1.345323304558390E-018
  -52.7500000000000         1.331687689804837E-018
  -52.5600000000000         1.327281772522288E-018
  -52.3700000000000         1.333343170755609E-018
  -52.1800000000000         1.348317814311122E-018
  -51.9900000000000         1.368319728253732E-018
  -51.8000000000000         1.388248123634350E-018
  -51.6100000000000         1.403239659242116E-018
  -51.4200000000000         1.410037966358202E-018
  -51.2300000000000         1.407887004663396E-018
  -51.0400000000000         1.398692904407097E-018
  -50.8500000000000         1.386411175660478E-018
  -50.6600000000000         1.375841107535525E-018
  -50.4700000000000         1.371181272792896E-018
  -50.2800000000000         1.374768934724459E-018
  -50.0900000000000         1.386371654345198E-018
  -49.9000000000000         1.403237649802367E-018
  -49.7100000000000         1.420890044395656E-018
  -49.5200000000000         1.434433670388050E-018
  -49.3300000000000         1.439994148084384E-018
  -49.1400000000000         1.435870299438376E-018
  -48.9500000000000         1.423063671044859E-018
  -48.7600000000000         1.405029250759441E-018
  -48.5700000000000         1.386717291788911E-018
  -48.3800000000000         1.373182030296204E-018
  -48.1900000000000         1.368159057824529E-018
  -48.0000000000000         1.373022312281172E-018
  -47.8100000000000         1.386421350279770E-018
  -47.6200000000000         1.404702186002054E-018
  -47.4300000000000         1.422988290626504E-018
  -47.2400000000000         1.436608051216518E-018
  -47.0500000000000         1.442455655855214E-018
  -46.8600000000000         1.439892168126181E-018
  -46.6700000000000         1.430926561372321E-018
  -46.4800000000000         1.419624513310625E-018
  -46.2900000000000         1.410916187876398E-018
  -46.1000000000000         1.409148719722117E-018
  -45.9100000000000         1.416803776530328E-018
  -45.7200000000000         1.433752953509731E-018
  -45.5300000000000         1.457267235128937E-018
  -45.3400000000000         1.482777158773147E-018
  -45.1500000000000         1.505162160265139E-018
  -44.9600000000000         1.520194666861461E-018
  -44.7700000000000         1.525721041614618E-018
  -44.5800000000000         1.522239359889606E-018
  -44.3900000000000         1.512709783114772E-018
  -44.2000000000000         1.501655713080637E-018
  -44.0100000000000         1.493818959256543E-018
  -43.8200000000000         1.492761051601697E-018
  -43.6300000000000         1.499818313594620E-018
  -43.4400000000000         1.513715425579902E-018
  -43.2500000000000         1.530950346039709E-018
  -43.0600000000000         1.546838249086105E-018
  -42.8700000000000         1.556909364614804E-018
  -42.6800000000000         1.558251885509414E-018
  -42.4900000000000         1.550406940741131E-018
  -42.3000000000000         1.535553174789075E-018
  -42.1100000000000         1.517925194668120E-018
  -41.9200000000000         1.502632700451228E-018
  -41.7300000000000         1.494221073443537E-018
  -41.5400000000000         1.495389365435253E-018
  -41.3500000000000         1.506236297840757E-018
  -41.1600000000000         1.524252100008968E-018
  -40.9700000000000         1.545057929855812E-018
  -40.7800000000000         1.563677821035130E-018
  -40.5900000000000         1.575973708798164E-018
  -40.4000000000000         1.579827283012051E-018
  -40.2100000000000         1.575726793551977E-018
  -40.0200000000000         1.566590398658264E-018
  -39.8300000000000         1.556879402445079E-018
  -39.6400000000000         1.551260519442356E-018
  -39.4500000000000         1.553206909375579E-018
  -39.2600000000000         1.563945670846976E-018
  -39.0700000000000         1.582059589975733E-018
  -38.8800000000000         1.603861691304419E-018
  -38.6900000000000         1.624436663387337E-018
  -38.5000000000000         1.639048346801868E-018
  -38.3100000000000         1.644504370461326E-018
  -38.1200000000000         1.640080166861308E-018
  -37.9300000000000         1.627732324511840E-018
  -37.7400000000000         1.611538183612224E-018
  -37.5500000000000         1.596523938347975E-018
  -37.3600000000000         1.587221229972250E-018
  -37.1700000000000         1.586370625723902E-018
  -36.9800000000000         1.594147300603935E-018
  -36.7900000000000         1.608132890018431E-018
  -36.6000000000000         1.624041808536270E-018
  -36.4100000000000         1.636992165757296E-018
  -36.2200000000000         1.642953339478635E-018
  -36.0300000000000         1.639950133800649E-018
  -35.8400000000000         1.628672942206888E-018
  -35.6500000000000         1.612314947091650E-018
  -35.4600000000000         1.595681656093192E-018
  -35.2700000000000         1.583829667420047E-018
  -35.0800000000000         1.580628411020171E-018
  -34.8900000000000         1.587660659721453E-018
  -34.7000000000000         1.603778813751572E-018
  -34.5100000000000         1.625443633364336E-018
  -34.3200000000000         1.647745678850551E-018
  -34.1300000000000         1.665812664150902E-018
  -33.9400000000000         1.676195022480510E-018
  -33.7500000000000         1.677829070376211E-018
  -33.5600000000000         1.672300083512450E-018
  -33.3700000000000         1.663330931916004E-018
  -33.1800000000000         1.655646937492135E-018
  -32.9900000000000         1.653548903897248E-018
  -32.8000000000000         1.659610893853676E-018
  -32.6100000000000         1.673882765306911E-018
  -32.4200000000000         1.693830751005486E-018
  -32.2300000000000         1.715035309430959E-018
  -32.0400000000000         1.732446009672503E-018
  -31.8500000000000         1.741831576718788E-018
  -31.6600000000000         1.741005916354189E-018
  -31.4700000000000         1.730474537196512E-018
  -31.2800000000000         1.713312384763239E-018
  -31.0900000000000         1.694306196064668E-018
  -30.9000000000000         1.678607934283557E-018
  -30.7100000000000         1.670288173349003E-018
  -30.5200000000000         1.671207382367775E-018
  -30.3300000000000         1.680530214193351E-018
  -30.1400000000000         1.695020487524506E-018
  -29.9500000000000         1.710027705680721E-018
  -29.7600000000000         1.720876086416144E-018
  -29.5700000000000         1.724252029207280E-018
  -29.3800000000000         1.719188143208343E-018
  -29.1900000000000         1.707359809827491E-018
  -29.0000000000000         1.692609487581251E-018
  -28.8100000000000         1.679837452390140E-018
  -28.6200000000000         1.673581184555943E-018
  -28.4300000000000         1.676696022995367E-018
  -28.2400000000000         1.689520432735921E-018
  -28.0500000000000         1.709768268799664E-018
  -27.8600000000000         1.733178503034822E-018
  -27.6700000000000         1.754732050932973E-018
  -27.4800000000000         1.770080557427187E-018
  -27.2900000000000         1.776771407412512E-018
  -27.1000000000000         1.774913887152698E-018
  -26.9100000000000         1.767095023579298E-018
  -26.7200000000000         1.757572352846322E-018
  -26.5300000000000         1.750981262968824E-018
  -26.3400000000000         1.750935770475696E-018
  -26.1500000000000         1.758932855037219E-018
  -25.9600000000000         1.773882580654952E-018
  -25.7700000000000         1.792404172207757E-018
  -25.5800000000000         1.809804543560996E-018
  -25.3900000000000         1.821455800705740E-018
  -25.2000000000000         1.824170671967082E-018
  -25.0100000000000         1.817174067976882E-018
  -24.8200000000000         1.802385202452775E-018
  -24.6300000000000         1.783924092109430E-018
  -24.4400000000000         1.766980935124385E-018
  -24.2500000000000         1.756371762763544E-018
  -24.0600000000000         1.755195467839341E-018
  -23.8700000000000         1.763979252189508E-018
  -23.6800000000000         1.780559272039592E-018
  -23.4900000000000         1.800730713424476E-018
  -23.3000000000000         1.819478209063447E-018
  -23.1100000000000         1.832428796606531E-018
  -22.9200000000000         1.837105169301382E-018
  -22.7300000000000         1.833615782967313E-018
  -22.5400000000000         1.824583179472108E-018
  -22.3500000000000         1.814334208562934E-018
  -22.1600000000000         1.807590533664492E-018
  -21.9700000000000         1.808042626469343E-018
  -21.7800000000000         1.817224062437969E-018
  -21.5900000000000         1.834016050301475E-018
  -21.4000000000000         1.854929642255919E-018
  -21.2100000000000         1.875087222660985E-018
  -21.0200000000000         1.889620822417404E-018
  -20.8300000000000         1.895081957690735E-018
  -20.6400000000000         1.890452372365770E-018
  -20.4500000000000         1.877459671557241E-018
  -20.2600000000000         1.860103473299494E-018
  -20.0700000000000         1.843527334171245E-018
  -19.8800000000000         1.832561860671227E-018
  -19.6900000000000         1.830359724074198E-018
  -19.5000000000000         1.837516578334301E-018
  -19.3100000000000         1.851931371145074E-018
  -19.1200000000000         1.869446043986202E-018
  -18.9300000000000         1.885079664907112E-018
  -18.7400000000000         1.894500190093498E-018
  -18.5500000000000         1.895307651441201E-018
  -18.3600000000000         1.887755999118865E-018
  -18.1700000000000         1.874702434734253E-018
  -17.9800000000000         1.860796557642918E-018
  -17.7900000000000         1.851142113188676E-018
  -17.6000000000000         1.849817337897062E-018
  -17.4100000000000         1.858681311938259E-018
  -17.2200000000000         1.876811395975770E-018
  -17.0300000000000         1.900734736608186E-018
  -16.8400000000000         1.925387859837856E-018
  -16.6500000000000         1.945528679441350E-018
  -16.4600000000000         1.957195013931964E-018
  -16.2700000000000         1.958790331130822E-018
  -16.0800000000000         1.951485139215315E-018
  -15.8900000000000         1.938820560033931E-018
  -15.7000000000000         1.925631848102283E-018
  -15.5100000000000         1.916606647044431E-018
  -15.3200000000000         1.914898189021078E-018
  -15.1300000000000         1.921196761554024E-018
  -14.9400000000000         1.933528711202451E-018
  -14.7500000000000         1.947840517529874E-018
  -14.5600000000000         1.959197913657976E-018
  -14.3700000000000         1.963252263883543E-018
  -14.1800000000000         1.957549067733103E-018
  -13.9900000000000         1.942298509380920E-018
  -13.8000000000000         1.920382699844153E-018
  -13.6100000000000         1.896594464142442E-018
  -13.4200000000000         1.876324840085826E-018
  -13.2300000000000         1.864076504219599E-018
  -13.0400000000000         1.862231269349097E-018
  -12.8500000000000         1.870426171194545E-018
  -12.6600000000000         1.885715741607663E-018
  -12.4700000000000         1.903469893057210E-018
  -12.2800000000000         1.918744317340803E-018
  -12.0900000000000         1.927725001575071E-018
  -11.9000000000000         1.928828933044067E-018
  -11.7100000000000         1.923144229661379E-018
  -11.5200000000000         1.914085030675123E-018
  -11.3300000000000         1.906363922988283E-018
  -11.1400000000000         1.904582139110492E-018
  -10.9500000000000         1.911848481638165E-018
  -10.7600000000000         1.928829562572276E-018
  -10.5700000000000         1.953508345535806E-018
  -10.3800000000000         1.981721508197859E-018
  -10.1900000000000         2.008319207821008E-018
  -10.0000000000000         2.028609796648261E-018
  -9.81000000000000         2.039669652971135E-018
  -9.62000000000000         2.041138377708938E-018
  -9.42999999999999         2.035270045438901E-018
  -9.23999999999999         2.026227760501817E-018
  -9.05000000000000         2.018828542037402E-018
  -8.86000000000000         2.017105209238163E-018
  -8.67000000000000         2.023105321281909E-018
  -8.48000000000000         2.036278469647369E-018
  -8.28999999999999         2.053631869978715E-018
  -8.09999999999999         2.070610019434625E-018
  -7.91000000000000         2.082442591412838E-018
  -7.72000000000000         2.085567621182344E-018
  -7.53000000000000         2.078714615393107E-018
  -7.34000000000000         2.063330960019835E-018
  -7.15000000000001         2.043225624427141E-018
  -6.95999999999999         2.023530851099987E-018
  -6.77000000000000         2.009279778336466E-018
  -6.58000000000000         2.004009173578415E-018
  -6.39000000000000         2.008789602591518E-018
  -6.20000000000000         2.021962102958528E-018
  -6.01000000000001         2.039656062004371E-018
  -5.81999999999999         2.056936460633007E-018
  -5.63000000000000         2.069245739246699E-018
  -5.44000000000000         2.073720043416835E-018
  -5.25000000000000         2.069997090330726E-018
  -5.06000000000000         2.060282399077771E-018
  -4.87000000000000         2.048657841371298E-018
  -4.67999999999999         2.039837536003316E-018
  -4.48999999999999         2.037736725051419E-018
  -4.30000000000000         2.044273154352768E-018
  -4.11000000000000         2.058752502370005E-018
  -3.92000000000000         2.078019653050279E-018
  -3.73000000000000         2.097335155688847E-018
  -3.53999999999999         2.111724969016227E-018
  -3.34999999999999         2.117412623998507E-018
  -3.16000000000000         2.112917235071249E-018
  -2.97000000000000         2.099496643923853E-018
  -2.78000000000000         2.080804824381422E-018
  -2.59000000000000         2.061861126549453E-018
  -2.40000000000001         2.047629238338095E-018
  -2.20999999999999         2.041617313506150E-018
  -2.02000000000000         2.044904443054963E-018
  -1.83000000000000         2.055874720733990E-018
  -1.64000000000000         2.070734947305845E-018
  -1.45000000000000         2.084664863973519E-018
  -1.26000000000001         2.093265053992619E-018
  -1.06999999999999         2.093880540229078E-018
 -0.879999999999995         2.086413401003325E-018
 -0.689999999999998         2.073385669499877E-018
 -0.500000000000000         2.059231643483429E-018
 -0.310000000000002         2.049023221603645E-018
 -0.120000000000005         2.046997440108606E-018
  7.000000000000739E-002    2.055313449505082E-018
  0.260000000000005         2.073399904585667E-018
  0.450000000000003         2.098082921527385E-018
  0.640000000000001         2.124459208185512E-018
  0.829999999999998         2.147263698603820E-018
   1.02000000000000         2.162337904319985E-018
   1.21000000000001         2.167775612558873E-018
   1.40000000000001         2.164415362885512E-018
   1.59000000000000         2.155537934086403E-018
   1.78000000000000         2.145857691772186E-018
   1.97000000000000         2.140102222300340E-018
   2.16000000000000         2.141594789104431E-018
   2.34999999999999         2.151253147378758E-018
   2.54000000000001         2.167296530651301E-018
   2.73000000000000         2.185746242221534E-018
   2.92000000000000         2.201574661387304E-018
   3.11000000000000         2.210169545138886E-018
   3.30000000000000         2.208689443922145E-018
   3.48999999999999         2.196917673043431E-018
   3.68000000000001         2.177366996795700E-018
   3.87000000000000         2.154603349615855E-018
   4.06000000000000         2.133982649782321E-018
   4.25000000000000         2.120164883334481E-018
   4.44000000000000         2.115834332132310E-018
   4.63000000000000         2.120994813635350E-018
   4.82000000000001         2.133041450940754E-018
   5.01000000000001         2.147584608398575E-018
   5.20000000000000         2.159783149362873E-018
   5.39000000000000         2.165796873977250E-018
   5.58000000000000         2.163934503111103E-018
   5.77000000000000         2.155162901145353E-018
   5.96000000000001         2.142828962390839E-018
   6.15000000000001         2.131674164954071E-018
   6.34000000000000         2.126427529676471E-018
   6.53000000000000         2.130386079487821E-018