  -105.000000000000         0.000000000000000E+000
  -104.810000000000         1.889994355523830E-010
  -104.620000000000         4.137978146991432E-010
  -104.430000000000         6.486247571142899E-010
  -104.240000000000         9.988905210701133E-010
  -104.050000000000         1.478816608807002E-009
  -103.860000000000         1.901287275738334E-009
  -103.670000000000         2.176825666507125E-009
  -103.480000000000         2.325686978083613E-009
  -103.290000000000         2.785693145367761E-009
  -103.100000000000         3.405865083780778E-009
  -102.910000000000         4.257205091324593E-009
  -102.720000000000         5.108855471352031E-009
  -102.530000000000         5.846856251990638E-009
  -102.340000000000         6.439018291404769E-009
  -102.150000000000         6.965368958921944E-009
  -101.960000000000         7.336971933887735E-009
  -101.770000000000         7.324098118522306E-009
  -101.580000000000         7.470506481543636E-009
  -101.390000000000         7.744720093405006E-009
  -101.200000000000         7.864817762923015E-009
  -101.010000000000         7.932840538100686E-009
  -100.820000000000         7.773945182366403E-009
  -100.630000000000         7.428549921688903E-009
  -100.440000000000         7.167289331462521E-009
  -100.250000000000         6.953589054188300E-009
  -100.060000000000         6.714032133066572E-009
  -99.8700000000000         6.564934656332131E-009
  -99.6800000000000         6.417430927668171E-009
  -99.4900000000000         6.005087768255216E-009
  -99.3000000000000         5.199003131783145E-009
  -99.1100000000000         4.445959360188833E-009
  -98.9200000000000         3.667476924597070E-009
  -98.7300000000000         2.989656272483222E-009
  -98.5400000000000         2.879916282339874E-009
  -98.3500000000000         2.208890954395225E-009
  -98.1600000000000         2.001864918218925E-009
  -97.9700000000000         1.849333156996003E-009
  -97.7800000000000         1.765920139035164E-009
  -97.5900000000000         1.685880473888125E-009
  -97.4000000000000         1.574685411601148E-009
  -97.2100000000000         1.481534758076833E-009
  -97.0200000000000         1.453925290289158E-009
  -96.8300000000000         1.630374282154589E-009
  -96.6400000000000         1.933902860113169E-009
  -96.4500000000000         2.310219785785205E-009
  -96.2600000000000         2.948316634550660E-009
  -96.0700000000000         3.386723270897746E-009
  -95.8800000000000         3.642434069605422E-009
  -95.6900000000000         3.842737080589646E-009
  -95.5000000000000         4.126047273339920E-009
  -95.3100000000000         4.411428317035517E-009
  -95.1200000000000         4.650486381130281E-009
  -94.9300000000000         4.921984261744737E-009
  -94.7400000000000         5.139163920716064E-009
  -94.5500000000000         5.402733995660832E-009
  -94.3600000000000         5.776753401439323E-009
  -94.1700000000000         6.161529669051634E-009
  -93.9800000000000         6.283425373257658E-009
  -93.7900000000000         6.498080032819132E-009
  -93.6000000000000         6.985628091011776E-009
  -93.4100000000000         7.266717035639440E-009
  -93.2200000000000         7.466380338178148E-009
  -93.0300000000000         7.577820105904532E-009
  -92.8400000000000         7.516235735258362E-009
  -92.6500000000000         7.158018249486866E-009
  -92.4600000000000         6.454649092107773E-009
  -92.2700000000000         5.527265169711562E-009
  -92.0800000000000         4.587127258086011E-009
  -91.8900000000000         3.760342107670903E-009
  -91.7000000000000         3.412642442728816E-009
  -91.5100000000000         3.074300585658365E-009
  -91.3200000000000         2.894412161318580E-009
  -91.1300000000000         2.511083890506444E-009
  -90.9400000000000         2.193404423351674E-009
  -90.7500000000000         2.115969845908474E-009
  -90.5600000000000         2.285108891090332E-009
  -90.3700000000000         2.725299495975912E-009
  -90.1800000000000         3.431344496144972E-009
  -89.9900000000000         4.270252385454304E-009
  -89.8000000000000         5.059001988244104E-009
  -89.6100000000000         5.304732133367050E-009
  -89.4200000000000         5.701820733660565E-009
  -89.2300000000000         6.145251216645184E-009
  -89.0400000000000         7.109743295981911E-009
  -88.8500000000000         7.152605700081451E-009
  -88.6600000000000         7.664891035616865E-009
  -88.4700000000000         8.179482278401194E-009
  -88.2800000000000         8.562956604261267E-009
  -88.0900000000000         8.848899953194265E-009
  -87.9000000000000         8.990612160750096E-009
  -87.7100000000000         8.997255549120251E-009
  -87.5200000000000         9.004836697039138E-009
  -87.3300000000000         8.979761885548371E-009
  -87.1400000000000         8.912108163340596E-009
  -86.9500000000000         8.800148586230572E-009
  -86.7600000000000         8.642807080121055E-009
  -86.5700000000000         8.429780257449696E-009
  -86.3800000000000         8.268108505411161E-009
  -86.1900000000000         8.217477258969724E-009
  -86.0000000000000         8.285630705327356E-009
  -85.8100000000000         8.537734737621039E-009
  -85.6200000000000         9.114861297731121E-009
  -85.4300000000000         9.993237585326559E-009
  -85.2400000000000         1.099191961865775E-008
  -85.0500000000000         1.232802818836746E-008
  -84.8600000000000         1.366376886795419E-008
  -84.6700000000000         1.488659289480808E-008
  -84.4800000000000         1.609465338329344E-008
  -84.2900000000000         1.740942463402129E-008
  -84.1000000000000         1.882344259162536E-008
  -83.9100000000000         2.029583655407164E-008
  -83.7200000000000         2.027880128569121E-008
  -83.5300000000000         2.297644584601915E-008
  -83.3400000000000         2.284827930763890E-008
  -83.1500000000000         2.311269394882629E-008
  -82.9600000000000         2.333169209761535E-008
  -82.7700000000000         2.332363400367984E-008
  -82.5800000000000         2.312745246443197E-008
  -82.3900000000000         2.292168268934176E-008
  -82.2000000000000         2.269975241484777E-008
  -82.0100000000000         2.235524740817372E-008
  -81.8200000000000         2.174129423819365E-008
  -81.6300000000000         2.088381673772408E-008
  -81.4400000000000         1.994385296310543E-008
  -81.2500000000000         1.916027468476813E-008
  -81.0600000000000         1.847236092493419E-008
  -80.8700000000000         1.767801764189429E-008
  -80.6800000000000         1.714686555664577E-008
  -80.4900000000000         1.681923964196288E-008
  -80.3000000000000         1.658676854961399E-008
  -80.1100000000000         1.640465953937594E-008
  -79.9200000000000         1.629060954408907E-008
  -79.7300000000000         1.628934038096172E-008
  -79.5400000000000         1.651015305168855E-008
  -79.3500000000000         1.717966960584222E-008
  -79.1600000000000         1.805990335371424E-008
  -78.9700000000000         1.884660923736028E-008
  -78.7800000000000         1.955385883238513E-008
  -78.5900000000000         2.026237278629398E-008
  -78.4000000000000         2.064901374091342E-008
  -78.2100000000000         2.088018540838315E-008
  -78.0200000000000         2.103866826357986E-008
  -77.8300000000000         2.102596856221218E-008
  -77.6400000000000         2.092574918759964E-008
  -77.4500000000000         2.079017951821415E-008
  -77.2600000000000         2.069805938750158E-008
  -77.0700000000000         2.069256858253859E-008
  -76.8800000000000         2.073429685933229E-008
  -76.6900000000000         2.085478638185891E-008
  -76.5000000000000         2.121131897818807E-008
  -76.3100000000000         2.202196024102892E-008
  -76.1200000000000         2.244539257976201E-008
  -75.9300000000000         2.301242846831563E-008
  -75.7400000000000         2.338489339806850E-008
  -75.5500000000000         2.375689879968136E-008
  -75.3600000000000         2.401890123641452E-008
  -75.1700000000000         2.424111041189691E-008
  -74.9800000000000         2.462049335937815E-008
  -74.7900000000000         2.512147339348733E-008
  -74.6000000000000         2.557127815056859E-008
  -74.4100000000000         2.598824229571961E-008
  -74.2200000000000         2.644591914909882E-008
  -74.0300000000000         2.699165084366171E-008
  -73.8400000000000         2.765193513464782E-008
  -73.6500000000000         2.838278146846858E-008
  -73.4600000000000         2.908243485630562E-008
  -73.2700000000000         2.984451369478257E-008
  -73.0800000000000         3.058896175808870E-008
  -72.8900000000000         3.165068433384926E-008
  -72.7000000000000         3.265456143710014E-008
  -72.5100000000000         3.375369059562489E-008
  -72.3200000000000         3.484197684779219E-008
  -72.1300000000000         3.567844692285050E-008
  -71.9400000000000         3.612764770769695E-008
  -71.7500000000000         3.836942265853584E-008
  -71.5600000000000         3.850299290096413E-008
  -71.3700000000000         3.894163232705090E-008
  -71.1800000000000         3.979572054729661E-008
  -70.9900000000000         4.014949295686401E-008
  -70.8000000000000         4.344439780549434E-008
  -70.6100000000000         4.358050790216764E-008
  -70.4200000000000         4.398847379907133E-008
  -70.2300000000000         4.814038516388830E-008
  -70.0400000000000         4.830743078035903E-008
  -69.8500000000000         4.887738649752557E-008
  -69.6600000000000         5.142489916056321E-008
  -69.4700000000000         5.159878100568614E-008
  -69.2800000000000         5.248225479712082E-008
  -69.0900000000000         5.292348621679428E-008
  -68.9000000000000         5.336775305803235E-008
  -68.7100000000000         5.367353973651946E-008
  -68.5200000000000         5.383931724212015E-008
  -68.3300000000000         5.391153641019303E-008
  -68.1400000000000         5.395341103516559E-008
  -67.9500000000000         5.404156836940715E-008
  -67.7600000000000         5.416180134356106E-008
  -67.5700000000000         5.447604666306397E-008
  -67.3800000000000         5.527811350378369E-008
  -67.1900000000000         5.668853859355415E-008
  -67.0000000000000         5.765631682564317E-008
  -66.8100000000000         5.992222783109917E-008
  -66.6200000000000         6.047899728380245E-008
  -66.4300000000000         6.157093737838640E-008
  -66.2400000000000         6.495406974421892E-008
  -66.0500000000000         6.534594642387437E-008
  -65.8600000000000         6.589947139303324E-008
  -65.6700000000000         6.694445323764948E-008
  -65.4800000000000         6.787849674661051E-008
  -65.2900000000000         6.891976070745934E-008
  -65.1000000000000         7.006271369362346E-008
  -64.9100000000000         7.124965571658348E-008
  -64.7200000000000         7.236721624852353E-008
  -64.5300000000000         7.353721238583290E-008
  -64.3400000000000         7.459292021132041E-008
  -64.1500000000000         7.564031137812056E-008
  -63.9600000000000         7.657159523074917E-008
  -63.7700000000000         7.739761285288987E-008
  -63.5800000000000         7.824521731768597E-008
  -63.3900000000000         7.907482886256530E-008
  -63.2000000000000         7.984631457137772E-008
  -63.0100000000000         8.043858430909235E-008
  -62.8200000000000         8.097594299314788E-008
  -62.6300000000000         8.150734413663521E-008
  -62.4400000000000         8.200453864058901E-008
  -62.2500000000000         8.237770102819074E-008
  -62.0600000000000         8.267254534077907E-008
  -61.8700000000000         8.291973820574272E-008
  -61.6800000000000         8.310896387637188E-008
  -61.4900000000000         8.329067975408849E-008
  -61.3000000000000         8.357920117666321E-008
  -61.1100000000000         8.410809015967934E-008
  -60.9200000000000         8.493049938011812E-008
  -60.7300000000000         8.612735938549206E-008
  -60.5400000000000         8.733177646171934E-008
  -60.3500000000000         8.841938564347918E-008
  -60.1600000000000         8.954272659840066E-008
  -59.9700000000000         9.060037116176204E-008
  -59.7800000000000         9.170905543721483E-008
  -59.5900000000000         9.301728929653658E-008
  -59.4000000000000         9.428075601120581E-008
  -59.2100000000000         9.563646107936678E-008
  -59.0200000000000         9.711927540998976E-008
  -58.8300000000000         9.858600761147883E-008
  -58.6400000000000         9.992922060542254E-008
  -58.4500000000000         1.016072399223365E-007
  -58.2600000000000         1.036390423368323E-007
  -58.0700000000000         1.054935319856707E-007
  -57.8800000000000         1.076537954260313E-007
  -57.6900000000000         1.094610292232242E-007
  -57.5000000000000         1.110793058369589E-007
  -57.3100000000000         1.118774129081097E-007
  -57.1200000000000         1.148163427374164E-007
  -56.9300000000000         1.156395203216601E-007
  -56.7400000000000         1.172668693585627E-007
  -56.5500000000000         1.192950999223261E-007
  -56.3600000000000         1.201622897419223E-007
  -56.1700000000000         1.218885511391169E-007
  -55.9800000000000         1.224441370608254E-007
  -55.7900000000000         1.237103437361037E-007
  -55.6000000000000         1.245666366275269E-007
  -55.4100000000000         1.255405138188889E-007
  -55.2200000000000         1.263533514947682E-007
  -55.0300000000000         1.269518679329782E-007
  -54.8400000000000         1.275270586383947E-007
  -54.6500000000000         1.281101311769728E-007
  -54.4600000000000         1.288002333155469E-007
  -54.2700000000000         1.295895729170115E-007
  -54.0800000000000         1.305428575657592E-007
  -53.8900000000000         1.316263145526340E-007
  -53.7000000000000         1.329918506746082E-007
  -53.5100000000000         1.346704078888932E-007
  -53.3200000000000         1.366468471829420E-007
  -53.1300000000000         1.391367811554702E-007
  -52.9400000000000         1.417762430425596E-007
  -52.7500000000000         1.444442278588101E-007
  -52.5600000000000         1.468906970921292E-007
  -52.3700000000000         1.498388247005774E-007
  -52.1800000000000         1.507668599174921E-007
  -51.9900000000000         1.580000447675561E-007
  -51.8000000000000         1.588018297894688E-007
  -51.6100000000000         1.603301933515133E-007
  -51.4200000000000         1.633979177765815E-007
  -51.2300000000000         1.663650565121932E-007
  -51.0400000000000         1.672084283637733E-007
  -50.8500000000000         1.697387645226613E-007
  -50.6600000000000         1.707371949998343E-007
  -50.4700000000000         1.753978568860386E-007
  -50.2800000000000         1.766068686910049E-007
  -50.0900000000000         1.782439459920939E-007
  -49.9000000000000         1.814656906971262E-007
  -49.7100000000000         1.824037288527481E-007
  -49.5200000000000         1.853892758374010E-007
  -49.3300000000000         1.863855029318332E-007
  -49.1400000000000         1.896889013465461E-007
  -48.9500000000000         1.907890788394639E-007
  -48.7600000000000         1.936892565969907E-007
  -48.5700000000000         1.961136019117181E-007
  -48.3800000000000         1.985460725452868E-007
  -48.1900000000000         2.010702744281275E-007
  -48.0000000000000         2.036115796483236E-007
  -47.8100000000000         2.064615472316603E-007
  -47.6200000000000         2.092524174522125E-007
  -47.4300000000000         2.121746919898668E-007
  -47.2400000000000         2.155132714582621E-007
  -47.0500000000000         2.182358601031427E-007
  -46.8600000000000         2.214030709110552E-007
  -46.6700000000000         2.244130081289272E-007
  -46.4800000000000         2.271578212050624E-007
  -46.2900000000000         2.297815302176530E-007
  -46.1000000000000         2.319249579403915E-007
  -45.9100000000000         2.345153500144779E-007
  -45.7200000000000         2.368506582953497E-007
  -45.5300000000000         2.390974690538391E-007
  -45.3400000000000         2.413888431948495E-007
  -45.1500000000000         2.433947111364170E-007
  -44.9600000000000         2.453747255996194E-007
  -44.7700000000000         2.470409080287553E-007
  -44.5800000000000         2.490714051609938E-007
  -44.3900000000000         2.507739055492291E-007
  -44.2000000000000         2.529986711614736E-007
  -44.0100000000000         2.549038993708508E-007
  -43.8200000000000         2.572771666404862E-007
  -43.6300000000000         2.591451178896765E-007
  -43.4400000000000         2.617897982871742E-007
  -43.2500000000000         2.635153289744348E-007
  -43.0600000000000         2.662393475608648E-007
  -42.8700000000000         2.684468251024051E-007
  -42.6800000000000         2.711658399009645E-007
  -42.4900000000000         2.729924109762517E-007
  -42.3000000000000         2.758123629525738E-007
  -42.1100000000000         2.774207804093509E-007
  -41.9200000000000         2.801386352773732E-007
  -41.7300000000000         2.819675523676092E-007
  -41.5400000000000         2.844738148457608E-007
  -41.3500000000000         2.858352209108250E-007
  -41.1600000000000         2.885019520297341E-007
  -40.9700000000000         2.895601851878463E-007
  -40.7800000000000         2.929448678167126E-007
  -40.5900000000000         2.942304161981652E-007
  -40.4000000000000         2.989987147963201E-007
  -40.2100000000000         3.004520504857392E-007
  -40.0200000000000         3.055625939000124E-007
  -39.8300000000000         3.070008500505958E-007
  -39.6400000000000         3.131009557197000E-007
  -39.4500000000000         3.146612976213162E-007
  -39.2600000000000         3.203673782787239E-007
  -39.0700000000000         3.225142981348282E-007
  -38.8800000000000         3.288866098823917E-007
  -38.6900000000000         3.309913518822534E-007
  -38.5000000000000         3.371468011614762E-007
  -38.3100000000000         3.391866113038959E-007
  -38.1200000000000         3.449379160329429E-007
  -37.9300000000000         3.468703243123991E-007
  -37.7400000000000         3.523787129483582E-007
  -37.5500000000000         3.541605740298955E-007
  -37.3600000000000         3.592388945829366E-007
  -37.1700000000000         3.609116082869351E-007
  -36.9800000000000         3.656648409016610E-007
  -36.7900000000000         3.673109093954110E-007
  -36.6000000000000         3.721399849784697E-007
  -36.4100000000000         3.735572601606173E-007
  -36.2200000000000         3.782366523634939E-007
  -36.0300000000000         3.795212573623246E-007
  -35.8400000000000         3.843922336527638E-007
  -35.6500000000000         3.856894257998905E-007
  -35.4600000000000         3.908690328900461E-007
  -35.2700000000000         3.922663719602297E-007
  -35.0800000000000         3.978810092574440E-007
  -34.8900000000000         3.993085445036245E-007
  -34.7000000000000         4.055955300510165E-007
  -34.5100000000000         4.071251246921164E-007
  -34.3200000000000         4.135625553205830E-007
  -34.1300000000000         4.154750926779491E-007
  -33.9400000000000         4.230847813753894E-007
  -33.7500000000000         4.252353928750635E-007
  -33.5600000000000         4.322595517126408E-007
  -33.3700000000000         4.341778477308343E-007
  -33.1800000000000         4.419263337928620E-007
  -32.9900000000000         4.435019104978272E-007
  -32.8000000000000         4.502343265697078E-007
  -32.6100000000000         4.517885513170555E-007
  -32.4200000000000         4.590259707941052E-007
  -32.2300000000000         4.606654244183920E-007
  -32.0400000000000         4.676366406047274E-007
  -31.8500000000000         4.693202854744250E-007
  -31.6600000000000         4.764499299908176E-007
  -31.4700000000000         4.781202358157605E-007
  -31.2800000000000         4.852064289368671E-007
  -31.0900000000000         4.870524902799594E-007
  -30.9000000000000         4.942374444899418E-007
  -30.7100000000000         4.961978993122033E-007
  -30.5200000000000         5.031719011742168E-007
  -30.3300000000000         5.050158212331013E-007
  -30.1400000000000         5.121455921850465E-007
  -29.9500000000000         5.138470377425433E-007
  -29.7600000000000         5.211201129286995E-007
  -29.5700000000000         5.228162806437674E-007
  -29.3800000000000         5.295432615287565E-007
  -29.1900000000000         5.314791639559874E-007
  -29.0000000000000         5.384671890566418E-007
  -28.8100000000000         5.407154626725246E-007
  -28.6200000000000         5.466788171327015E-007
  -28.4300000000000         5.493098092037367E-007
  -28.2400000000000         5.547924494025158E-007
  -28.0500000000000         5.571606658492637E-007
  -27.8600000000000         5.616074960907870E-007
  -27.6700000000000         5.655093909570748E-007
  -27.4800000000000         5.688970801750836E-007
  -27.2900000000000         5.726213925058859E-007
  -27.1000000000000         5.763459632049540E-007
  -26.9100000000000         5.798398686183396E-007
  -26.7200000000000         5.830821444161493E-007
  -26.5300000000000         5.867335798718282E-007
  -26.3400000000000         5.902589216799808E-007
  -26.1500000000000         5.941106275235251E-007
  -25.9600000000000         5.980333411274297E-007
  -25.7700000000000         6.021425581865656E-007
  -25.5800000000000         6.063317417253217E-007
  -25.3900000000000         6.102851219059460E-007
  -25.2000000000000         6.141807032962941E-007
  -25.0100000000000         6.186417825990911E-007
  -24.8200000000000         6.229374574991671E-007
  -24.6300000000000         6.276439710159175E-007
  -24.4400000000000         6.327616870479946E-007
  -24.2500000000000         6.374712641436331E-007
  -24.0600000000000         6.425359384142430E-007
  -23.8700000000000         6.472001726020254E-007
  -23.6800000000000         6.515736884367409E-007
  -23.4900000000000         6.563662223418381E-007
  -23.3000000000000         6.613778202112855E-007
  -23.1100000000000         6.662065369645540E-007
  -22.9200000000000         6.710813357936695E-007
  -22.7300000000000         6.761487062540195E-007
  -22.5400000000000         6.809709606180157E-007
  -22.3500000000000         6.857916979445539E-007
  -22.1600000000000         6.909254577160872E-007
  -21.9700000000000         6.959959810933383E-007
  -21.7800000000000         7.008223714123391E-007
  -21.5900000000000         7.061087311494998E-007
  -21.4000000000000         7.111317674461473E-007
  -21.2100000000000         7.157057481463783E-007
  -21.0200000000000         7.215247373556698E-007
  -20.8300000000000         7.241116529051441E-007
  -20.6400000000000         7.315163080380249E-007
  -20.4500000000000         7.332109647418257E-007
  -20.2600000000000         7.429674461276894E-007
  -20.0700000000000         7.443279176432353E-007
  -19.8800000000000         7.490490589929359E-007
  -19.6900000000000         7.563254877884364E-007
  -19.5000000000000         7.583164060662510E-007
  -19.3100000000000         7.688410409051040E-007
  -19.1200000000000         7.703860039252218E-007
  -18.9300000000000         7.770932999342113E-007
  -18.7400000000000         7.790061872884620E-007
  -18.5500000000000         7.892190140224026E-007
  -18.3600000000000         7.905613666759059E-007
  -18.1700000000000         7.965032961318426E-007
  -17.9800000000000         8.031462650329850E-007
  -17.7900000000000         8.052392404938257E-007
  -17.6000000000000         8.129276018143954E-007
  -17.4100000000000         8.144060537035955E-007
  -17.2200000000000         8.223357500412081E-007
  -17.0300000000000         8.237326480176602E-007
  -16.8400000000000         8.316792476984795E-007
  -16.6500000000000         8.332861322705202E-007
  -16.4600000000000         8.422825019644104E-007
  -16.2700000000000         8.438403294293710E-007
  -16.0800000000000         8.531714293717182E-007
  -15.8900000000000         8.547335083967008E-007
  -15.7000000000000         8.639314665857771E-007
  -15.5100000000000         8.657636306858702E-007
  -15.3200000000000         8.764571233564253E-007
  -15.1300000000000         8.781838829220425E-007
  -14.9400000000000         8.869147472043643E-007
  -14.7500000000000         8.887316858863416E-007
  -14.5600000000000         8.995555623359556E-007
  -14.3700000000000         9.011436666408487E-007
  -14.1800000000000         9.090065103627639E-007
  -13.9900000000000         9.109257076968091E-007
  -13.8000000000000         9.207842282809253E-007
  -13.6100000000000         9.223124594812414E-007
  -13.4200000000000         9.300302085049190E-007
  -13.2300000000000         9.315764285091448E-007
  -13.0400000000000         9.411505678580468E-007
  -12.8500000000000         9.425874625743992E-007
  -12.6600000000000         9.504652370686724E-007
  -12.4700000000000         9.521278252393195E-007
  -12.2800000000000         9.620837953833441E-007
  -12.0900000000000         9.636708494906248E-007
  -11.9000000000000         9.729202792245188E-007
  -11.7100000000000         9.746277620259597E-007
  -11.5200000000000         9.853907411805244E-007
  -11.3300000000000         9.871117372947952E-007
  -11.1400000000000         9.962973996489722E-007
  -10.9500000000000         9.981387079437920E-007
  -10.7600000000000         1.009392519499028E-006
  -10.5700000000000         1.011147020712354E-006
  -10.3800000000000         1.019512176237950E-006
  -10.1900000000000         1.021524052095262E-006
  -10.0000000000000         1.033093934880067E-006
  -9.81000000000000         1.034838785896105E-006
  -9.62000000000000         1.042567855134046E-006
  -9.42999999999999         1.044697906296609E-006
  -9.23999999999999         1.055451381334203E-006
  -9.05000000000000         1.057146302833168E-006
  -8.86000000000000         1.065914285104090E-006
  -8.67000000000000         1.067709898937912E-006
  -8.48000000000000         1.078110322963769E-006
  -8.28999999999999         1.079821059378388E-006
  -8.09999999999999         1.088581790248608E-006
  -7.91000000000000         1.090523492342353E-006
  -7.72000000000000         1.101307851973787E-006
  -7.53000000000000         1.103107507806333E-006
  -7.34000000000000         1.112268012835294E-006
  -7.15000000000001         1.114190738814531E-006
  -6.95999999999999         1.124419708037347E-006
  -6.77000000000000         1.126331161489758E-006
  -6.58000000000000         1.135004723557391E-006
  -6.39000000000000         1.137064752145979E-006
  -6.20000000000000         1.147937297788910E-006
  -6.01000000000001         1.149720045265223E-006
  -5.81999999999999         1.154467801952047E-006
  -5.63000000000000         1.163812585327340E-006
  -5.44000000000000         1.165997227573270E-006
  -5.25000000000000         1.173900234360106E-006
  -5.06000000000000         1.175958940900026E-006
  -4.87000000000000         1.186765062942825E-006
  -4.67999999999999         1.188482646914882E-006
  -4.48999999999999         1.191328250471737E-006
  -4.30000000000000         1.200488163229282E-006
  -4.11000000000000         1.202499320657037E-006
  -3.92000000000000         1.206307909534987E-006
  -3.73000000000000         1.217669849614857E-006
  -3.53999999999999         1.219593827070718E-006
  -3.34999999999999         1.222462007444152E-006
  -3.16000000000000         1.230309211560877E-006
  -2.97000000000000         1.232584689948634E-006
  -2.78000000000000         1.244013442237703E-006
  -2.59000000000000         1.245900022641036E-006
  -2.40000000000001         1.249558616400859E-006
  -2.20999999999999         1.260621187309629E-006
  -2.02000000000000         1.262675270329583E-006
  -1.83000000000000         1.266074013757340E-006
  -1.64000000000000         1.275487971593786E-006
  -1.45000000000000         1.277640723626010E-006
  -1.26000000000001         1.282370393989294E-006
  -1.06999999999999         1.293485749774373E-006
 -0.879999999999995         1.295614784513981E-006
 -0.689999999999998         1.298602330305260E-006
 -0.500000000000000         1.302993966635472E-006
 -0.310000000000002         1.312311280983513E-006
 -0.120000000000005         1.314567164275250E-006
  7.000000000000739E-002    1.318128305550320E-006
  0.260000000000005         1.324225023149955E-006
  0.450000000000003         1.326766737968676E-006
  0.640000000000001         1.339783870485175E-006
  0.829999999999998         1.341464125283751E-006
   1.02000000000000         1.344559806627309E-006
   1.21000000000001         1.348911485209566E-006
   1.40000000000001         1.353070737258502E-006
   1.59000000000000         1.357061702102512E-006
   1.78000000000000         1.360904141604865E-006
   1.97000000000000         1.364753153100148E-006
   2.16000000000000         1.368347793929761E-006
   2.34999999999999         1.383819336434520E-006
   2.54000000000001         1.385771514583358E-006
   2.73000000000000         1.389285688413373E-006
   2.92000000000000         1.393567754833491E-006
   3.11000000000000         1.398109027228265E-006
   3.30000000000000         1.402681819007482E-006
   3.48999999999999         1.407449834144756E-006
   3.68000000000001         1.412245686142206E-006
   3.87000000000000         1.417693334370932E-006
   4.06000000000000         1.422089376163597E-006
   4.25000000000000         1.427457640167123E-006
   4.44000000000000         1.431731784737939E-006
   4.63000000000000         1.437200519453469E-006
   4.82000000000001         1.441596692784095E-006
   5.01000000000001         1.447641393138956E-006
   5.20000000000000         1.451937421135097E-006
   5.39000000000000         1.457411513235330E-006
   5.58000000000000         1.461927265543442E-006
   5.77000000000000         1.466629561791427E-006
   5.96000000000001         1.471470770966836E-006
   6.15000000000001         1.476095881897271E-006
   6.34000000000000         1.480871984526011E-006
   6.53000000000000         1.485451071294257E-006