  -105.000000000000         2.158500692970894E-020
  -104.810000000000         4.817555334577378E-020
  -104.620000000000         4.070834578810047E-020
  -104.430000000000         1.331485556975333E-020
  -104.240000000000        -2.546220205804587E-021
  -104.050000000000         1.167715175663142E-020
  -103.860000000000         4.401534009175286E-020
  -103.670000000000         6.371877330359522E-020
  -103.480000000000         5.105469553575867E-020
  -103.290000000000         1.662658789530609E-020
  -103.100000000000        -8.316079413795128E-021
  -102.910000000000        -1.386893687721269E-021
  -102.720000000000         2.977296185712579E-020
  -102.530000000000         5.488571206787884E-020
  -102.340000000000         4.992008694637556E-020
  -102.150000000000         1.990793822890937E-020
  -101.960000000000        -6.032015514779653E-021
  -101.770000000000        -2.661010848152754E-021
  -101.580000000000         2.714501054811500E-020
  -101.390000000000         5.505203362173733E-020
  -101.200000000000         5.429832521211382E-020
  -101.010000000000         2.526742714931613E-020
  -100.820000000000        -4.862004423201976E-021
  -100.630000000000        -8.068538840620969E-021
  -100.440000000000         1.776215664511189E-020
  -100.250000000000         4.684832137079319E-020
  -100.060000000000         5.018726137959869E-020
  -99.8700000000000         2.334289459224082E-020
  -99.6800000000000        -9.198790336830092E-021
  -99.4900000000000        -1.731703543089954E-020
  -99.3000000000000         6.005184349466958E-021
  -99.1100000000000         3.793886658872087E-020
  -98.9200000000000         4.753153026761790E-020
  -98.7300000000000         2.518077249155653E-020
  -98.5400000000000        -8.241775558943659E-021
  -98.3500000000000        -2.128463376643783E-020
  -98.1600000000000        -1.846550459360385E-021
  -97.9700000000000         3.136339814467139E-020
  -97.7800000000000         4.671569751409042E-020
  -97.5900000000000         2.979777330356075E-020
  -97.4000000000000        -2.980757474194527E-021
  -97.2100000000000        -2.028799771909217E-020
  -97.0200000000000        -6.028378787167217E-021
  -96.8300000000000         2.511841529177283E-020
  -96.6400000000000         4.166287449854732E-020
  -96.4500000000000         2.546170028676205E-020
  -96.2600000000000        -1.071132203290053E-020
  -96.0700000000000        -3.497081526746441E-020
  -95.8800000000000        -2.630115791135983E-020
  -95.6900000000000         5.819963071061248E-021
  -95.5000000000000         3.080677810235061E-020
  -95.3100000000000         2.630060484175495E-020
  -95.1200000000000        -6.462352519949424E-022
  -94.9300000000000        -2.077194573202626E-020
  -94.7400000000000        -1.121240152810291E-020
  -94.5500000000000         2.195522668065506E-020
  -94.3600000000000         4.891219682209102E-020
  -94.1700000000000         4.421862647387230E-020
  -93.9800000000000         1.109011269571903E-020
  -93.7900000000000        -2.137451300700171E-020
  -93.6000000000000        -2.547710310696269E-020
  -93.4100000000000        -7.845488157334162E-022
  -93.2200000000000         2.601737426301117E-020
  -93.0300000000000         2.704865809829448E-020
  -92.8400000000000         1.349780244303589E-022
  -92.6500000000000        -2.899630733856084E-020
  -92.4600000000000        -3.130946724907465E-020
  -92.2700000000000        -2.370040245872572E-021
  -92.0800000000000         3.309449156030748E-020
  -91.8900000000000         4.440471762001781E-020
  -91.7000000000000         2.381830387926260E-020
  -91.5100000000000        -6.443320515110858E-021
  -91.3200000000000        -1.569794689888309E-020
  -91.1300000000000         5.737370885930147E-021
  -90.9400000000000         3.726023272995399E-020
  -90.7500000000000         4.771100276931500E-020
  -90.5600000000000         2.527465280798120E-020
  -90.3700000000000        -1.098078421792747E-020
  -90.1800000000000        -2.896254123276297E-020
  -89.9900000000000        -1.380569363100534E-020
  -89.8000000000000         1.830628593590751E-020
  -89.6100000000000         3.586832094881494E-020
  -89.4200000000000         2.221809834238527E-020
  -89.2300000000000        -8.697737069222211E-021
  -89.0400000000000        -2.594311918029247E-020
  -88.8500000000000        -1.148273922494913E-020
  -88.6600000000000         2.229007786858727E-020
  -88.4700000000000         4.419790957608358E-020
  -88.2800000000000         3.402272704598480E-020
  -88.0900000000000         1.919867491330071E-021
  -87.9000000000000        -2.112710460523485E-020
  -87.7100000000000        -1.277948120055336E-020
  -87.5200000000000         1.935748245276612E-020
  -87.3300000000000         4.492656012191807E-020
  -87.1400000000000         3.963989149443532E-020
  -86.9500000000000         8.267420807987226E-021
  -86.7600000000000        -2.007452273494868E-020
  -86.5700000000000        -1.977308908098714E-020
  -86.3800000000000         6.930389869162176E-021
  -86.1900000000000         3.237124149372654E-020
  -86.0000000000000         3.031869868040563E-020
  -85.8100000000000         1.492127665503096E-021
  -85.6200000000000        -2.677167767213438E-020
  -85.4300000000000        -2.647881937171341E-020
  -85.2400000000000         4.171899798834815E-021
  -85.0500000000000         3.868435261712931E-020
  -84.8600000000000         4.699640726168227E-020
  -84.6700000000000         2.358396237330984E-020
  -84.4800000000000        -7.755358456123931E-021
  -84.2900000000000        -1.691606593270397E-020
  -84.1000000000000         3.733936836919257E-021
  -83.9100000000000         3.229904339107603E-020
  -83.7200000000000         3.870596095130593E-020
  -83.5300000000000         1.396762517485087E-020
  -83.3400000000000        -2.068390312414934E-020
  -83.1500000000000        -3.361671070123811E-020
  -82.9600000000000        -1.274633865739018E-020
  -82.7700000000000         2.293966706452734E-020
  -82.5800000000000         4.132787316885498E-020
  -82.3900000000000         2.753314506353527E-020
  -82.2000000000000        -2.278420117139254E-021
  -82.0100000000000        -1.676340989414397E-020
  -81.8200000000000         2.286145319570361E-022
  -81.6300000000000         3.381786469233570E-020
  -81.4400000000000         5.193678512314481E-020
  -81.2500000000000         3.570383187255523E-020
  -81.0600000000000        -2.566651926152612E-021
  -80.8700000000000        -3.084575458911691E-020
  -80.6800000000000        -2.740933061848344E-020
  -80.4900000000000        -8.065815564281406E-022
  -80.3000000000000         1.915263853163436E-020
  -80.1100000000000         1.060238234242065E-020
  -79.9200000000000        -1.902453912684733E-020
  -79.7300000000000        -3.994559648553208E-020
  -79.5400000000000        -2.864523209105101E-020
  -79.3500000000000         9.186750907574126E-021
  -79.1600000000000         4.336361914588201E-020
  -78.9700000000000         4.719414292678087E-020
  -78.7800000000000         2.218406054382458E-020
  -78.5900000000000        -4.009298604388376E-021
  -78.4000000000000        -4.304038892675475E-021
  -78.2100000000000         2.198761441890528E-020
  -78.0200000000000         4.885908098161793E-020
  -77.8300000000000         4.895311505343895E-020
  -77.6400000000000         2.015797741669969E-020
  -77.4500000000000        -1.208223431809345E-020
  -77.2600000000000        -1.900891364944297E-020
  -77.0700000000000         3.858764656940310E-021
  -76.8800000000000         3.228607348988214E-020
  -76.6900000000000         3.643916492406019E-020
  -76.5000000000000         9.542350038083209E-021
  -76.3100000000000        -2.532868480115425E-020
  -76.1200000000000        -3.688989786352995E-020
  -75.9300000000000        -1.517398386390483E-020
  -75.7400000000000         1.913766432816590E-020
  -75.5500000000000         3.442997683365143E-020
  -75.3600000000000         1.811794701053364E-020
  -75.1700000000000        -1.170223551376787E-020
  -74.9800000000000        -2.400500815689254E-020
  -74.7900000000000        -4.981029133749819E-021
  -74.6000000000000         2.831314401116313E-020
  -74.4100000000000         4.394633184380103E-020
  -74.2200000000000         2.556194015051492E-020
  -74.0300000000000        -1.173991011722063E-020
  -73.8400000000000        -3.528365743989433E-020
  -73.6500000000000        -2.535063497535506E-020
  -73.4600000000000         6.605252186310572E-021
  -73.2700000000000         2.932205770533437E-020
  -73.0800000000000         2.176995604526380E-020
  -72.8900000000000        -6.819409416525432E-021
  -72.7000000000000        -2.600804446569449E-020
  -72.5100000000000        -1.355599706672935E-020
  -72.3200000000000         2.295280350067884E-020
  -72.1300000000000         5.289350790638911E-020
  -71.9400000000000         5.129760082053268E-020
  -71.7500000000000         2.211452399639209E-020
  -71.5600000000000        -6.068660856708551E-021
  -71.3700000000000        -7.639583975832785E-021
  -71.1800000000000         1.558411260778261E-020
  -70.9900000000000         3.647882914377678E-020
  -70.8000000000000         2.924441105027355E-020
  -70.6100000000000        -5.034414550491429E-021
  -70.4200000000000        -3.847471913101435E-020
  -70.2300000000000        -4.221727861662446E-020
  -70.0400000000000        -1.348970631721209E-020
  -69.8500000000000         2.182889171148839E-020
  -69.6600000000000         3.359498687131271E-020
  -69.4700000000000         1.552782863942452E-020
  -69.2800000000000        -9.679562124685979E-021
  -69.0900000000000        -1.299511714815549E-020
  -68.9000000000000         1.239228830652769E-020
  -68.7100000000000         4.404412468484491E-020
  -68.5200000000000         5.157501098525299E-020
  -68.3300000000000         2.593731498255917E-020
  -68.1400000000000        -1.136797485277436E-020
  -67.9500000000000        -2.812633353235927E-020
  -67.7600000000000        -1.155603019086101E-020
  -67.5700000000000         1.988537688990416E-020
  -67.3800000000000         3.427737279811743E-020
  -67.1900000000000         1.666186278426502E-020
  -67.0000000000000        -1.683865107374167E-020
  -66.8100000000000        -3.455595916702819E-020
  -66.6200000000000        -1.953511881878091E-020
  -66.4300000000000         1.436366564190350E-020
  -66.2400000000000         3.581414264550094E-020
  -66.0500000000000         2.599947788544087E-020
  -65.8600000000000        -3.474116851691178E-021
  -65.6700000000000        -2.188382005859384E-020
  -65.4800000000000        -9.111097964641215E-021
  -65.2900000000000         2.469459438125966E-020
  -65.1000000000000         4.840002196556602E-020
  -64.9100000000000         3.934102333925156E-020
  -64.7200000000000         4.884627672804941E-021
  -64.5300000000000        -2.445395882151954E-020
  -64.3400000000000        -2.379699464062355E-020
  -64.1500000000000         2.816053572197766E-021
  -63.9600000000000         2.680901056757209E-020
  -63.7700000000000         2.285291913258054E-020
  -63.5800000000000        -6.574220157129472E-021
  -63.3900000000000        -3.338223242485996E-020
  -63.2000000000000        -3.072676388198028E-020
  -63.0100000000000         1.159884205273329E-021
  -62.8200000000000         3.487265609830657E-020
  -62.6300000000000         4.161486758957145E-020
  -62.4400000000000         1.830950108861781E-020
  -62.2500000000000        -9.805769812030135E-021
  -62.0600000000000        -1.359201294988377E-020
  -61.8700000000000         1.186645202335103E-020
  -61.6800000000000         4.231532813438122E-020
  -61.4900000000000         4.734751821756234E-020
  -61.3000000000000         1.947728225119670E-020
  -61.1100000000000        -1.841432884359551E-020
  -60.9200000000000        -3.434439837893048E-020
  -60.7300000000000        -1.698845328059838E-020
  -60.5400000000000         1.429538681210026E-020
  -60.3500000000000         2.855790988344973E-020
  -60.1600000000000         1.308229647394685E-020
  -59.9700000000000        -1.463629014659297E-020
  -59.7800000000000        -2.418075565444058E-020
  -59.5900000000000        -2.108038505368735E-021
  -59.4000000000000         3.431389348208011E-020
  -59.2100000000000         5.283088172317318E-020
  -59.0200000000000         3.651118444672188E-020
  -58.8300000000000        -2.095935892589182E-022
  -58.6400000000000        -2.505569068964780E-020
  -58.4500000000000        -1.817453253568839E-020
  -58.2600000000000         9.636375014698185E-021
  -58.0700000000000         2.800387912035877E-020
  -57.8800000000000         1.661955127836764E-020
  -57.6900000000000        -1.499830283812949E-020
  -57.5000000000000        -3.653815100246309E-020
  -57.3100000000000        -2.604632425960330E-020
  -57.1200000000000         8.735136285159034E-021
  -56.9300000000000         3.733550259675259E-020
  -56.7400000000000         3.530171750981571E-020
  -56.5500000000000         7.342540520830058E-021
  -56.3600000000000        -1.727568431307489E-020
  -56.1700000000000        -1.278761244964453E-020
  -55.9800000000000         1.828683040687742E-020
  -55.7900000000000         4.729417138237010E-020
  -55.6000000000000         4.652275709912125E-020
  -55.4100000000000         1.544546793251378E-020
  -55.2200000000000        -1.880629377306884E-020
  -55.0300000000000        -2.712845159632860E-020
  -54.8400000000000        -5.799373352892592E-021
  -54.6500000000000         2.052922300957816E-020
  -54.4600000000000         2.295849511527593E-020
  -54.2700000000000        -3.569105406477091E-021
  -54.0800000000000        -3.513196720020719E-020
  -53.8900000000000        -4.156253212090202E-020
  -53.7000000000000        -1.531009054951856E-020
  -53.5100000000000         2.114750173103910E-020
  -53.3200000000000         3.643903485225303E-020
  -53.1300000000000         1.985945389714714E-020
  -52.9400000000000        -8.800426875788403E-021
  -52.7500000000000        -1.850369715788301E-020
  -52.5600000000000         3.101193719344111E-021
  -52.3700000000000         3.766756477518597E-020
  -52.1800000000000         5.352144369401185E-020
  -51.9900000000000         3.579484539740029E-020
  -51.8000000000000         5.441638108919463E-022
  -51.6100000000000        -2.057397850504723E-020
  -51.4200000000000        -1.037315665858860E-020
  -51.2300000000000         1.779786348879209E-020
  -51.0400000000000         3.334604983830103E-020
  -50.8500000000000         1.833335830972941E-020
  -50.6600000000000        -1.473049744370936E-020
  -50.4700000000000        -3.440447349300735E-020
  -50.2800000000000        -2.028908047054598E-020
  -50.0900000000000         1.713216928898016E-020
  -49.9000000000000         4.578896067339155E-020
  -49.7100000000000         4.173733396854543E-020
  -49.5200000000000         1.115378859132164E-020
  -49.3300000000000        -1.616969093837387E-020
  -49.1400000000000        -1.549928557573641E-020
  -48.9500000000000         9.399206200934826E-021
  -48.7600000000000         3.038685136573004E-020
  -48.5700000000000         2.258109229774811E-020
  -48.3800000000000        -1.107304859704726E-020
  -48.1900000000000        -4.191059046744087E-020
  -48.0000000000000        -4.242521799978395E-020
  -47.8100000000000        -1.232636018961765E-020
  -47.6200000000000         2.108177824828519E-020
  -47.4300000000000         2.862917137503974E-020
  -47.2400000000000         6.677258032289874E-021
  -47.0500000000000        -1.987108971399633E-020
  -46.8600000000000        -2.176062468117933E-020
  -46.6700000000000         6.368608505805199E-021
  -46.4800000000000         4.065104609056518E-020
  -46.2900000000000         5.061765813428732E-020
  -46.1000000000000         2.811556949082632E-020
  -45.9100000000000        -5.079252616295328E-021
  -45.7200000000000        -1.817275433570405E-020
  -45.5300000000000        -7.652947883192612E-022
  -45.3400000000000         2.737695064709164E-020
  -45.1500000000000         3.556227914366912E-020
  -44.9600000000000         1.201569065549329E-020
  -44.7700000000000        -2.428913287959261E-020
  -44.5800000000000        -4.122916724465259E-020
  -44.3900000000000        -2.385036184700354E-020
  -44.2000000000000         1.146935641842328E-020
  -44.0100000000000         3.250546703977823E-020
  -43.8200000000000         2.159633180605805E-020
  -43.6300000000000        -7.939599463104612E-021
  -43.4400000000000        -2.495611879241587E-020
  -43.2500000000000        -1.058024008636159E-020
  -43.0600000000000         2.352655225696659E-020
  -42.8700000000000         4.618906010996217E-020
  -42.6800000000000         3.644546086885380E-020
  -42.4900000000000         3.541378212481796E-021
  -42.3000000000000        -2.190685311788446E-020
  -42.1100000000000        -1.712462535088586E-020
  -41.9200000000000         1.114392388445342E-020
  -41.7300000000000         3.323107100338602E-020
  -41.5400000000000         2.515933048853401E-020
  -41.3500000000000        -8.060796736873054E-021
  -41.1600000000000        -3.676823935952804E-020
  -40.9700000000000        -3.455737679851601E-020
  -40.7800000000000        -3.172834604351383E-021
  -40.5900000000000         2.928776717743564E-020
  -40.4000000000000         3.506215729694984E-020
  -40.2100000000000         1.280758598116182E-020
  -40.0200000000000        -1.176144209271802E-020
  -39.8300000000000        -1.118567053484318E-020
  -39.6400000000000         1.679685980622041E-020
  -39.4500000000000         4.659347470259576E-020
  -39.2600000000000         4.906189392848316E-020
  -39.0700000000000         1.958628228393322E-020
  -38.8800000000000        -1.697310310346118E-020
  -38.6900000000000        -2.933133804167943E-020
  -38.5000000000000        -9.007975998967075E-021
  -38.3100000000000         2.200863472204935E-020
  -38.1200000000000         3.242563621041468E-020
  -37.9300000000000         1.149186466120313E-020
  -37.7400000000000        -2.088474182419218E-020
  -37.5500000000000        -3.334796568959932E-020
  -37.3600000000000        -1.324042273124312E-020
  -37.1700000000000         2.112599455657202E-020
  -36.9800000000000         3.777629733697470E-020
  -36.7900000000000         2.141284057308118E-020
  -36.6000000000000        -1.214613610038984E-020
  -36.4100000000000        -3.116346163351276E-020
  -36.2200000000000        -1.829289855789996E-020
  -36.0300000000000         1.292230487902500E-020
  -35.8400000000000         3.110431228036485E-020
  -35.6500000000000         1.716603018551535E-020
  -35.4600000000000        -1.728179151947165E-020
  -35.2700000000000        -4.080723719566556E-020
  -35.0800000000000        -3.190204741923233E-020
  -34.8900000000000         7.754629044727455E-022
  -34.7000000000000         2.687786412329617E-020
  -34.5100000000000         2.336497969210041E-020
  -34.3200000000000        -3.709373101023520E-021
  -34.1300000000000        -2.539880215022273E-020
  -33.9400000000000        -1.803172571180871E-020
  -33.7500000000000         1.372709982502276E-020
  -33.5600000000000         4.110269920148646E-020
  -33.3700000000000         3.872608897779111E-020
  -33.1800000000000         9.082751897912219E-021
  -32.9900000000000        -1.957905561352614E-020
  -32.8000000000000        -2.000660187574417E-020
  -32.6100000000000         8.098465849654188E-021
  -32.4200000000000         3.771840417288818E-020
  -32.2300000000000         4.019941700383848E-020
  -32.0400000000000         1.254467261097327E-020
  -31.8500000000000        -1.971360405917268E-020
  -31.6600000000000        -2.680352899171289E-020
  -31.4700000000000        -2.966054531470858E-021
  -31.2800000000000         2.828481573324898E-020
  -31.0900000000000         3.686593226965011E-020
  -30.9000000000000         1.507180516795260E-020
  -30.7100000000000        -1.492167140772319E-020
  -30.5200000000000        -2.224958676822690E-020
  -30.3300000000000         2.902683401330267E-021
  -30.1400000000000         3.941374610612810E-020
  -29.9500000000000         5.473881237784376E-020
  -29.7600000000000         3.534553358659792E-020
  -29.5700000000000        -8.120589015856284E-022
  -29.3800000000000        -2.154078894519949E-020
  -29.1900000000000        -1.087219531638429E-020
  -29.0000000000000         1.623587099041008E-020
  -28.8100000000000         2.883088290205363E-020
  -28.6200000000000         1.013674040934462E-020
  -28.4300000000000        -2.594400478506695E-020
  -28.2400000000000        -4.781287831627488E-020
  -28.0500000000000        -3.623152300585655E-020
  -27.8600000000000        -2.688566429491488E-021
  -27.6700000000000         2.149303705996032E-020
  -27.4800000000000         1.489870797038176E-020
  -27.2900000000000        -1.377663839558426E-020
  -27.1000000000000        -3.432243882737663E-020
  -26.9100000000000        -2.416765204536147E-020
  -26.7200000000000         9.769431842828316E-021
  -26.5300000000000         3.744955433571914E-020
  -26.3400000000000         3.425266627749037E-020
  -26.1500000000000         4.426731724302562E-021
  -25.9600000000000        -2.295822235167211E-020
  -25.7700000000000        -2.166887906337730E-020
  -25.5800000000000         6.833866426938563E-021
  -25.3900000000000         3.503080808510950E-020
  -25.2000000000000         3.586261255961132E-020
  -25.0100000000000         8.774526184928098E-021
  -24.8200000000000        -1.963899736291921E-020
  -24.6300000000000        -2.107634810476477E-020
  -24.4400000000000         7.224104855348226E-021
  -24.2500000000000         3.951324611808558E-020
  -24.0600000000000         4.575996469109554E-020
  -23.8700000000000         2.003106113865638E-020
  -23.6800000000000        -1.398239326593744E-020
  -23.4900000000000        -2.551306818006133E-020
  -23.3000000000000        -5.844016361477842E-021
  -23.1100000000000         2.370633822084924E-020
  -22.9200000000000         3.247843912486161E-020
  -22.7300000000000         1.000505385673548E-020
  -22.5400000000000        -2.388553038649132E-020
  -22.3500000000000        -3.804326354407941E-020
  -22.1600000000000        -1.984407578329504E-020
  -21.9700000000000         1.267931096559979E-020
  -21.7800000000000         2.804379723824679E-020
  -21.5900000000000         1.144085037150409E-020
  -21.4000000000000        -2.098641251313847E-020
  -21.2100000000000        -3.739540700406547E-020
  -21.0200000000000        -2.054494469277574E-020
  -20.8300000000000         1.573650260282450E-020
  -20.6400000000000         3.962912224570482E-020
  -20.4500000000000         3.144988589326197E-020
  -20.2600000000000         2.069354213043183E-021
  -20.0700000000000        -1.790619061286496E-020
  -19.8800000000000        -7.766724132232718E-021
  -19.6900000000000         2.322549959304918E-020
  -19.5000000000000         4.456083959846514E-020
  -19.3100000000000         3.375406628854982E-020
  -19.1200000000000        -1.780233993569437E-021
  -18.9300000000000        -3.123824438232958E-020
  -18.7400000000000        -2.924908641185837E-020
  -18.5500000000000         3.975830073117357E-022
  -18.3600000000000         2.868297931339477E-020
  -18.1700000000000         2.913555912926108E-020
  -17.9800000000000         2.950969013707017E-021
  -17.7900000000000        -2.244315900471470E-020
  -17.6000000000000        -1.993713205465936E-020
  -17.4100000000000         1.097352964326960E-020
  -17.2200000000000         4.328748026770893E-020
  -17.0300000000000         4.787358457441021E-020
  -16.8400000000000         2.091580378234662E-020
  -16.6500000000000        -1.272936784941329E-020
  -16.4600000000000        -2.337044702869901E-020
  -16.2700000000000        -4.674327291414917E-021
  -16.0800000000000         2.069419325914762E-020
  -15.8900000000000         2.330348657865819E-020
  -15.7000000000000        -4.248871798636694E-021
  -15.5100000000000        -3.957707663978400E-020
  -15.3200000000000        -5.132587655860702E-020
  -15.1300000000000        -2.877805507887253E-020
  -14.9400000000000         7.998912416422500E-021
  -14.7500000000000         2.714907413584590E-020
  -14.5600000000000         1.502108393956225E-020
  -14.3700000000000        -1.143582950535381E-020
  -14.1800000000000        -2.160038255189502E-020
  -13.9900000000000        -1.141976632371061E-021
  -13.8000000000000         3.371989812674675E-020
  -13.6100000000000         5.140134994434295E-020
  -13.4200000000000         3.514308633622168E-020
  -13.2300000000000        -6.909778788894358E-022
  -13.0400000000000        -2.390846217459541E-020
  -12.8500000000000        -1.480674872050147E-020
  -12.6600000000000         1.534025450500954E-020
  -12.4700000000000         3.521696045993608E-020
  -12.2800000000000         2.340273762070966E-020
  -12.0900000000000        -1.116920036665657E-020
  -11.9000000000000        -3.767378808921516E-020
  -11.7100000000000        -3.268331186877132E-020
  -11.5200000000000        -2.343947374663020E-021
  -11.3300000000000         2.370188437396657E-020
  -11.1400000000000         2.078663268530498E-020
  -10.9500000000000        -7.166464926639657E-021
  -10.7600000000000        -3.145026014194925E-020
  -10.5700000000000        -2.615565289259533E-020
  -10.3800000000000         6.803232956687406E-021
  -10.1900000000000         3.911900689621604E-020
  -10.0000000000000         4.267298695512412E-020
  -9.81000000000000         1.598018982858538E-020
  -9.62000000000000        -1.468191632700877E-020
  -9.42999999999999        -2.047340050504047E-020
  -9.23999999999999         2.605515354016437E-021
  -9.05000000000000         3.026667245352109E-020
  -8.86000000000000         3.362080660814768E-020
  -8.67000000000000         7.245276453937085E-021
  -8.48000000000000        -2.525444782877980E-020
  -8.28999999999999        -3.355074592999318E-020
  -8.09999999999999        -9.494500539891900E-021
  -7.91000000000000         2.501277854077132E-020
  -7.72000000000000         3.875094893957406E-020
  -7.53000000000000         2.074594721783631E-020
  -7.34000000000000        -9.567245357916779E-021
  -7.15000000000001        -2.126298657830257E-020
  -6.95999999999999        -1.809893223721728E-021
  -6.77000000000000         3.065434093514713E-020
  -6.58000000000000         4.443459300435023E-020
  -6.39000000000000         2.452861101493991E-020
  -6.20000000000000        -1.281107985838174E-020
  -6.01000000000001        -3.514677086765713E-020
  -5.81999999999999        -2.425829824157968E-020
  -5.63000000000000         7.062064836759538E-021
  -5.44000000000000         2.774883589482749E-020
  -5.25000000000000         1.843615568826797E-020
  -5.06000000000000        -1.004642822944209E-020
  -4.87000000000000        -2.732267452706289E-020
  -4.67999999999999        -1.305508091206280E-020
  -4.48999999999999         2.285900448338686E-020
  -4.30000000000000         4.890996333223895E-020
  -4.11000000000000         4.136629999543739E-020
  -3.92000000000000         6.509224341798071E-021
  -3.73000000000000        -2.543784062324988E-020
  -3.53999999999999        -2.884682736858450E-020
  -3.34999999999999        -6.481591927267427E-021
  -3.16000000000000         1.400999787474429E-020
  -2.97000000000000         7.357243281499792E-021
  -2.78000000000000        -2.450035407276716E-020
  -2.59000000000000        -5.382005857238348E-020
  -2.40000000000001        -5.342174103296897E-020
  -2.20999999999999        -2.281154109990627E-020
  -2.02000000000000         1.100613662309210E-020
  -1.83000000000000         1.894043857858159E-020
  -1.64000000000000        -2.734409979234427E-021
  -1.45000000000000        -2.906007398645575E-020
  -1.26000000000001        -3.037303006484679E-020
  -1.06999999999999        -7.441477388804324E-022
 -0.879999999999995         3.619514319397535E-020
 -0.689999999999998         4.958025845359445E-020
 -0.500000000000000         3.050740398628663E-020
 -0.310000000000002         2.491832955939371E-022
 -0.120000000000005        -1.031556379245104E-020
  7.000000000000739E-002    9.653210253184121E-021
  0.260000000000005         4.059276158007087E-020
  0.450000000000003         5.133123715326785E-020
  0.640000000000001         2.905830624910174E-020
  0.829999999999998        -8.144500700897408E-021
   1.02000000000000        -2.818936712577621E-020
   1.21000000000001        -1.522568802153371E-020
   1.40000000000001         1.556323991715225E-020
   1.59000000000000         3.269571117208973E-020
   1.78000000000000         1.855185505811579E-020
   1.97000000000000        -1.386226231859908E-020
   2.16000000000000        -3.351070011814738E-020
   2.34999999999999        -2.117189494916767E-020
   2.54000000000001         1.200812599850616E-020
   2.73000000000000         3.496158307493081E-020
   2.92000000000000         2.616575086702044E-020
   3.11000000000000        -6.005284372451439E-021
   3.30000000000000        -3.148646929758070E-020
   3.48999999999999        -2.741141800076226E-020
   3.68000000000001         2.203925031673335E-023
   3.87000000000000         2.170274960492348E-020
   4.06000000000000         1.389927491441041E-020
   4.25000000000000        -1.842449130688531E-020
   4.44000000000000        -4.568531478739423E-020
   4.63000000000000        -4.144052819407562E-020
   4.82000000000001        -7.494565861718429E-021
   5.01000000000001         2.756704512470986E-020
   5.20000000000000         3.509842275736206E-020
   5.39000000000000         1.298815562491997E-020
   5.58000000000000        -1.312979780524540E-020
   5.77000000000000        -1.505435111187265E-020
   5.96000000000001         1.059098509998577E-020
   6.15000000000001         3.896986725216709E-020
   6.34000000000000         4.089770773113002E-020
   6.53000000000000         1.117908326835578E-020