  -105.000000000000         5.483789642619383E-020
  -104.810000000000         1.512117942740199E-019
  -104.620000000000         2.121512655816346E-019
  -104.430000000000         2.261968595074751E-019
  -104.240000000000         1.949842797840680E-019
  -104.050000000000         1.326420384791679E-019
  -103.860000000000         6.159476130861161E-020
  -103.670000000000         5.992666829690129E-021
  -103.480000000000        -1.532215117407056E-020
  -103.290000000000         5.731256269100996E-021
  -103.100000000000         6.418058527706809E-020
  -102.910000000000         1.435254510507114E-019
  -102.720000000000         2.206248586442484E-019
  -102.530000000000         2.725183459246682E-019
  -102.340000000000         2.831966337023648E-019
  -102.150000000000         2.483562433194702E-019
  -101.960000000000         1.767567347688744E-019
  -101.770000000000         8.778108849415485E-020
  -101.580000000000         5.898993770994591E-021
  -101.390000000000        -4.636626254858421E-020
  -101.200000000000        -5.492641975044946E-020
  -101.010000000000        -1.818442913112153E-020
  -100.820000000000         5.252382519254680E-020
  -100.630000000000         1.362306419060571E-019
  -100.440000000000         2.084181709839619E-019
  -100.250000000000         2.481119658955515E-019
  -100.060000000000         2.439296449465746E-019
  -99.8700000000000         1.973371216624649E-019
  -99.6800000000000         1.221768422474968E-019
  -99.4900000000000         4.061049307941677E-020
  -99.3000000000000        -2.334661562752770E-020
  -99.1100000000000        -5.082610298819700E-020
  -98.9200000000000        -3.361115797777927E-020
  -98.7300000000000         2.345555493747614E-020
  -98.5400000000000         1.038639810670014E-019
  -98.3500000000000         1.842257222871845E-019
  -98.1600000000000         2.410660255917004E-019
  -97.9700000000000         2.576410471170811E-019
  -97.7800000000000         2.287976943758113E-019
  -97.5900000000000         1.624662872144274E-019
  -97.4000000000000         7.735675204893372E-020
  -97.2100000000000        -2.469939543980934E-021
  -97.0200000000000        -5.457980547288143E-020
  -96.8300000000000        -6.467021717187683E-020
  -96.6400000000000        -3.071324807776676E-020
  -96.4500000000000         3.646725728348485E-020
  -96.2600000000000         1.163559806141158E-019
  -96.0700000000000         1.847271749880781E-019
  -95.8800000000000         2.207064180550924E-019
  -95.6900000000000         2.128568494112844E-019
  -95.5000000000000         1.625187919445261E-019
  -95.3100000000000         8.343361723755022E-020
  -95.1200000000000        -2.235717554232713E-021
  -94.9300000000000        -7.033061222930983E-020
  -94.7400000000000        -1.017063772008609E-019
  -94.5500000000000        -8.779510050915681E-020
  -94.3600000000000        -3.310854730082099E-020
  -94.1700000000000         4.604984711987556E-020
  -93.9800000000000         1.262984694069944E-019
  -93.7900000000000         1.839554373409688E-019
  -93.6000000000000         2.019148365139293E-019
  -93.4100000000000         1.746211808528670E-019
  -93.2200000000000         1.096932128927775E-019
  -93.0300000000000         2.572431173412264E-020
  -92.8400000000000        -5.310009044002443E-020
  -92.6500000000000        -1.040048225102034E-019
  -92.4600000000000        -1.122186590041322E-019
  -92.2700000000000        -7.525424894715533E-020
  -92.0800000000000        -3.640475434481910E-021
  -91.8900000000000         8.210271585611582E-020
  -91.7000000000000         1.573738379053976E-019
  -91.5100000000000         2.005771006863699E-019
  -91.3200000000000         1.993368589872425E-019
  -91.1300000000000         1.540374826760888E-019
  -90.9400000000000         7.766107893744682E-020
  -90.7500000000000        -8.027555608097872E-021
  -90.5600000000000        -7.883495625116330E-020
  -90.3700000000000        -1.151796241953579E-019
  -90.1800000000000        -1.077705955542791E-019
  -89.9900000000000        -6.027608579941570E-020
  -89.8000000000000         1.178838511899343E-020
  -89.6100000000000         8.562635479829975E-020
  -89.4200000000000         1.378555457997495E-019
  -89.2300000000000         1.513890664348738E-019
  -89.0400000000000         1.205027352015633E-019
  -88.8500000000000         5.260990571590493E-020
  -88.6600000000000        -3.378216526148493E-020
  -88.4700000000000        -1.143508723843982E-019
  -88.2800000000000        -1.659455471986826E-019
  -88.0900000000000        -1.732586962964953E-019
  -87.9000000000000        -1.332488472091660E-019
  -87.7100000000000        -5.603769662846669E-020
  -87.5200000000000         3.797239490846737E-020
  -87.3300000000000         1.239223721981075E-019
  -87.1400000000000         1.795777571565562E-019
  -86.9500000000000         1.916240893465774E-019
  -86.7600000000000         1.593625720239409E-019
  -86.5700000000000         9.474385924764393E-020
  -86.3800000000000         1.873829328171441E-020
  -86.1900000000000        -4.489484180695999E-020
  -86.0000000000000        -7.661810296848600E-020
  -85.8100000000000        -6.685795785481885E-020
  -85.6200000000000        -1.880220000931317E-020
  -85.4300000000000         5.255914360172071E-020
  -85.2400000000000         1.248622408154501E-019
  -85.0500000000000         1.749699462191626E-019
  -84.8600000000000         1.858191157811282E-019
  -84.6700000000000         1.515216029670641E-019
  -84.4800000000000         7.923305135176930E-020
  -84.2900000000000        -1.276205299106315E-020
  -84.1000000000000        -1.002065761577995E-019
  -83.9100000000000        -1.597846087494475E-019
  -83.7200000000000        -1.757933694476633E-019
  -83.5300000000000        -1.446361952183142E-019
  -83.3400000000000        -7.582820301488189E-020
  -83.1500000000000         1.078011762305560E-020
  -82.9600000000000         9.075435315275772E-020
  -82.7700000000000         1.421301462251624E-019
  -82.5800000000000         1.517216890936252E-019
  -82.3900000000000         1.188584661106702E-019
  -82.2000000000000         5.547424016048638E-020
  -82.0100000000000        -1.746957111346268E-020
  -81.8200000000000        -7.618348294822626E-020
  -81.6300000000000        -1.010706282274282E-019
  -81.4400000000000        -8.252686756050068E-020
  -81.2500000000000        -2.382971946630001E-020
  -81.0600000000000         5.973065881215598E-020
  -80.8700000000000         1.452315151804306E-019
  -80.6800000000000         2.087372451879605E-019
  -80.4900000000000         2.322338003110845E-019
  -80.3000000000000         2.088620828904194E-019
  -80.1100000000000         1.449317035782387E-019
  -79.9200000000000         5.813251442266694E-020
  -79.7300000000000        -2.753784636560038E-020
  -79.5400000000000        -8.866398918675520E-020
  -79.3500000000000        -1.091292210498333E-019
  -79.1600000000000        -8.471570370675394E-020
  -78.9700000000000        -2.425482767008234E-020
  -78.7800000000000         5.300823775207541E-020
  -78.5900000000000         1.230722847898566E-019
  -78.4000000000000         1.642148220190464E-019
  -78.2100000000000         1.633551641568255E-019
  -78.0200000000000         1.198931465794522E-019
  -77.8300000000000         4.590845282331191E-020
  -77.6400000000000        -3.733385065686088E-020
  -77.4500000000000        -1.055543001966276E-019
  -77.2600000000000        -1.385171450779143E-019
  -77.0700000000000        -1.259331743321936E-019
  -76.8800000000000        -7.049947217521072E-020
  -76.6900000000000         1.280744129433981E-020
  -76.5000000000000         1.009895592807984E-019
  -76.3100000000000         1.696141793969676E-019
  -76.1200000000000         1.998288178606585E-019
  -75.9300000000000         1.837736090383556E-019
  -75.7400000000000         1.268219104001847E-019
  -75.5500000000000         4.600050683032191E-020
  -75.3600000000000        -3.494870957653605E-020
  -75.1700000000000        -9.242968541535998E-020
  -74.9800000000000        -1.097868640365127E-019
  -74.7900000000000        -8.207081778224421E-020
  -74.6000000000000        -1.740515676809344E-020
  -74.4100000000000         6.542987547890603E-020
  -74.2200000000000         1.424885254153101E-019
  -74.0300000000000         1.916285518833617E-019
  -73.8400000000000         1.989336261390185E-019
  -73.6500000000000         1.627230486230049E-019
  -73.4600000000000         9.398457548192517E-020
  -73.2700000000000         1.310927293949604E-020
  -73.0800000000000        -5.611305434575321E-020
  -72.8900000000000        -9.348088634318842E-020
  -72.7000000000000        -8.831064827178134E-020
  -72.5100000000000        -4.258199310883953E-020
  -72.3200000000000         2.961560507132590E-020
  -72.1300000000000         1.061754132354647E-019
  -71.9400000000000         1.634205366059782E-019
  -71.7500000000000         1.830378751548822E-019
  -71.5600000000000         1.574859395757340E-019
  -71.3700000000000         9.229962291679845E-020
  -71.1800000000000         4.610467170810814E-021
  -70.9900000000000        -8.170051645009675E-020
  -70.8000000000000        -1.428185293807385E-019
  -70.6100000000000        -1.618048067631009E-019
  -70.4200000000000        -1.334283380918652E-019
  -70.2300000000000        -6.562553880639491E-020
  -70.0400000000000         2.282418239636761E-020
  -69.8500000000000         1.077227911291527E-019
  -69.6600000000000         1.664015600670548E-019
  -69.4700000000000         1.841828081432723E-019
  -69.2800000000000         1.584916904100760E-019
  -69.0900000000000         9.943566698718883E-020
  -68.9000000000000         2.669182785205866E-020
  -68.7100000000000        -3.638579283531727E-020
  -68.5200000000000        -6.971541116770171E-020
  -68.3300000000000        -6.245832162632752E-020
  -68.1400000000000        -1.626046645895917E-020
  -67.9500000000000         5.518769461154553E-020
  -67.7600000000000         1.301473010762027E-019
  -67.5700000000000         1.852175397833814E-019
  -67.3800000000000         2.022497282949028E-019
  -67.1900000000000         1.737729640959033E-019
  -67.0000000000000         1.053461888818715E-019
  -66.8100000000000         1.413996034211459E-020
  -66.6200000000000        -7.585821660493932E-020
  -66.4300000000000        -1.406411124657977E-019
  -66.2400000000000        -1.630212664052361E-019
  -66.0500000000000        -1.375323569147158E-019
  -65.8600000000000        -7.196836418538081E-020
  -65.6700000000000         1.488947898746430E-020
  -65.4800000000000         9.869987741293078E-020
  -65.2900000000000         1.565683597715057E-019
  -65.1000000000000         1.736036231818429E-019
  -64.9100000000000         1.471286187776696E-019
  -64.7200000000000         8.733472605473948E-020
  -64.5300000000000         1.419717012172316E-020
  -64.3400000000000        -4.845053521016978E-020
  -64.1500000000000        -7.996453388897909E-020
  -63.9600000000000        -6.901529978296531E-020
  -63.7700000000000        -1.700597298719344E-020
  -63.5800000000000         6.221788367762622E-020
  -63.3900000000000         1.462927948845444E-019
  -63.2000000000000         2.107625871292225E-019
  -63.0100000000000         2.361408135495636E-019
  -62.8200000000000         2.135617080165596E-019
  -62.6300000000000         1.473833027467431E-019
  -62.4400000000000         5.399229662281169E-020
  -62.2500000000000        -4.284059888080464E-020
  -62.0600000000000        -1.187122495065916E-019
  -61.8700000000000        -1.554986269568776E-019
  -61.6800000000000        -1.464350341534128E-019
  -61.4900000000000        -9.790171644089034E-020
  -61.3000000000000        -2.740252440378218E-020
  -61.1100000000000         4.167261722819983E-020
  -60.9200000000000         8.697451417383299E-020
  -60.7300000000000         9.378994489288884E-020
  -60.5400000000000         5.938092058233174E-020
  -60.3500000000000        -6.196108472816522E-021
  -60.1600000000000        -8.302563234360954E-020
  -59.9700000000000        -1.471630440591760E-019
  -59.7800000000000        -1.776601992048458E-019
  -59.5900000000000        -1.627451120524393E-019
  -59.4000000000000        -1.033623186592350E-019
  -59.2100000000000        -1.304409743494808E-020
  -59.0200000000000         8.585740553135370E-020
  -58.8300000000000         1.684943498859001E-019
  -58.6400000000000         2.145785819249582E-019
  -58.4500000000000         2.141282133939427E-019
  -58.2600000000000         1.702436623599917E-019
  -58.0700000000000         9.811505005139334E-020
  -57.8800000000000         2.055921115066937E-020
  -57.6900000000000        -3.860904508721554E-020
  -57.5000000000000        -6.144501315352006E-020
  -57.3100000000000        -4.099604090663792E-020
  -57.1200000000000         1.679263005112830E-020
  -56.9300000000000         9.492156214617084E-020
  -56.7400000000000         1.703779184646928E-019
  -56.5500000000000         2.208977169609564E-019
  -56.3600000000000         2.314780502626613E-019
  -56.1700000000000         1.987428557203104E-019
  -55.9800000000000         1.318927538761034E-019
  -55.7900000000000         4.996840990519484E-020
  -55.6000000000000        -2.376425741481415E-020
  -55.4100000000000        -6.865822212136329E-020
  -55.2200000000000        -7.275517651011524E-020
  -55.0300000000000        -3.630920599270473E-020
  -54.8400000000000         2.826156547299710E-020
  -54.6500000000000         9.998207081767986E-020
  -54.4600000000000         1.554420169090796E-019
  -54.2700000000000         1.756603505643154E-019
  -54.0800000000000         1.517023549639894E-019
  -53.8900000000000         8.741354555050353E-020
  -53.7000000000000        -1.536769008718177E-021
  -53.5100000000000        -9.204161669003909E-020
  -53.3200000000000        -1.601135503078448E-019
  -53.1300000000000        -1.877191294767092E-019
  -52.9400000000000        -1.679134647501793E-019
  -52.7500000000000        -1.067917423578364E-019
  -52.5600000000000        -2.170040050832245E-020
  -52.3700000000000         6.376545165232025E-020
  -52.1800000000000         1.265263460592062E-019
  -51.9900000000000         1.505906850099746E-019
  -51.8000000000000         1.315425280972171E-019
  -51.6100000000000         7.765650482894394E-020
  -51.4200000000000         7.325137299322034E-021
  -51.2300000000000        -5.644990731085185E-020
  -51.0400000000000        -9.289837674668968E-020
  -50.8500000000000        -8.965885691109938E-020
  -50.6600000000000        -4.648723121982207E-020
  -50.4700000000000         2.459206189589531E-020
  -50.2800000000000         1.027431056098069E-019
  -50.0900000000000         1.643831383770407E-019
  -49.9000000000000         1.900947967421747E-019
  -49.7100000000000         1.703783868483661E-019
  -49.5200000000000         1.085693411537296E-019
  -49.3300000000000         2.006164568863553E-020
  -49.1400000000000        -7.195761923312598E-020
  -48.9500000000000        -1.430487759704089E-019
  -48.7600000000000        -1.744576625213711E-019
  -48.5700000000000        -1.584490835734552E-019
  -48.3800000000000        -1.004884961409351E-019
  -48.1900000000000        -1.763293752372239E-020
  -48.0000000000000         6.640941304482330E-020
  -47.8100000000000         1.281245946512285E-019
  -47.6200000000000         1.509643624657990E-019
  -47.4300000000000         1.300874990648884E-019
  -47.2400000000000         7.370269889641142E-020
  -47.0500000000000         6.257413627596470E-022
  -46.8600000000000        -6.524552030315678E-020
  -46.6700000000000        -1.019452865215306E-019
  -46.4800000000000        -9.591517236227476E-020
  -46.2900000000000        -4.606008992104018E-020
  -46.1000000000000         3.580314291515105E-020
  -45.9100000000000         1.282485850543842E-019
  -45.7200000000000         2.063471560936129E-019
  -45.5300000000000         2.488080579235481E-019
  -45.3400000000000         2.440842338665611E-019
  -45.1500000000000         1.936728828487521E-019
  -44.9600000000000         1.116598604658089E-019
  -44.7700000000000         2.064762545512832E-020
  -44.5800000000000        -5.474853055221859E-020
  -44.3900000000000        -9.495234895440080E-020
  -44.2000000000000        -9.098829479891237E-020
  -44.0100000000000        -4.694724799057599E-020
  -43.8200000000000         2.135337196788895E-020
  -43.6300000000000         9.112057884522344E-020
  -43.4400000000000         1.393598021694405E-019
  -43.2500000000000         1.496910854721026E-019
  -43.0600000000000         1.172123476465218E-019
  -42.8700000000000         4.998660082004400E-020
  -42.6800000000000        -3.327945745192141E-020
  -42.4900000000000        -1.086829203034410E-019
  -42.3000000000000        -1.541047028363433E-019
  -42.1100000000000        -1.556862499716982E-019
  -41.9200000000000        -1.119177375208850E-019
  -41.7300000000000        -3.414868486760115E-020
  -41.5400000000000         5.662955564165199E-020
  -41.3500000000000         1.357982973862299E-019
  -41.1600000000000         1.821787953549955E-019
  -40.9700000000000         1.841003518868794E-019
  -40.7800000000000         1.427073894330654E-019
  -40.5900000000000         7.154889563746623E-020
  -40.4000000000000        -7.422113822105693E-021
  -40.2100000000000        -7.026734800155425E-020
  -40.0200000000000        -9.802987207067113E-020
  -39.8300000000000        -8.222659212969493E-020
  -39.6400000000000        -2.727964229457831E-020
  -39.4500000000000         5.080866115587200E-020
  -39.2600000000000         1.291438430128445E-019
  -39.0700000000000         1.846235894969568E-019
  -38.8800000000000         2.006729665429234E-019
  -38.6900000000000         1.720692076467985E-019
  -38.5000000000000         1.064500636359790E-019
  -38.3100000000000         2.206807623841961E-020
  -38.1200000000000        -5.754796247386630E-020
  -37.9300000000000        -1.104580572352388E-019
  -37.7400000000000        -1.226932270040467E-019
  -37.5500000000000        -9.229390599438707E-020
  -37.3600000000000        -2.983471794183026E-020
  -37.1700000000000         4.470833440673786E-020
  -36.9800000000000         1.078322566192419E-019
  -36.7900000000000         1.394164503863610E-019
  -36.6000000000000         1.286622914596460E-019
  -36.4100000000000         7.733588647217447E-020
  -36.2200000000000        -6.371399248819795E-022
  -36.0300000000000        -8.312175925554153E-020
  -35.8400000000000        -1.461350731299116E-019
  -35.6500000000000        -1.707792370805231E-019
  -35.4600000000000        -1.487330543323855E-019
  -35.2700000000000        -8.470498661426629E-020
  -35.0800000000000         4.866970158745611E-021
  -34.8900000000000         9.649301883889916E-020
  -34.7000000000000         1.663330633404189E-019
  -34.5100000000000         1.969849237653613E-019
  -34.3200000000000         1.824002241918839E-019
  -34.1300000000000         1.295115890544067E-019
  -33.9400000000000         5.610459541964769E-020
  -33.7500000000000        -1.444728485236237E-020
  -33.5600000000000        -6.005765124967708E-020
  -33.3700000000000        -6.641545481589941E-020
  -33.1800000000000        -3.119946773958924E-020
  -32.9900000000000         3.520865882796428E-020
  -32.8000000000000         1.127227160149867E-019
  -32.6100000000000         1.773937308548911E-019
  -32.4200000000000         2.084032618947242E-019
  -32.2300000000000         1.941833888271517E-019
  -32.0400000000000         1.358900297804615E-019
  -31.8500000000000         4.721707669206890E-020
  -31.6600000000000        -4.940886539116713E-020
  -31.4700000000000        -1.291686541434632E-019
  -31.2800000000000        -1.719029814347563E-019
  -31.0900000000000        -1.678385599020669E-019
  -30.9000000000000        -1.203256052938366E-019
  -30.7100000000000        -4.478791572298242E-020
  -30.5200000000000         3.581121140283014E-020
  -30.3300000000000         9.766770094488814E-020
  -30.1400000000000         1.230505180057170E-019
  -29.9500000000000         1.054226453252495E-019
  -29.7600000000000         5.128821730385773E-020
  -29.5700000000000        -2.176181546733408E-020
  -29.3800000000000        -9.023263453221898E-020
  -29.1900000000000        -1.316329542035070E-019
  -29.0000000000000        -1.311053494357171E-019
  -28.8100000000000        -8.585594463996011E-020
  -28.6200000000000        -6.092442417317750E-021
  -28.4300000000000         8.781187482644092E-020
  -28.2400000000000         1.711146459900843E-019
  -28.0500000000000         2.217839603359389E-019
  -27.8600000000000         2.268071258288015E-019
  -27.6700000000000         1.858988518317721E-019
  -27.4800000000000         1.115368250129516E-019
  -27.2900000000000         2.532037127349331E-020
  -27.1000000000000        -4.828660809702093E-020
  -26.9100000000000        -8.901220510708104E-020
  -26.7200000000000        -8.658817928965557E-020
  -26.5300000000000        -4.363515698961546E-020
  -26.3400000000000         2.521123301675496E-020
  -26.1500000000000         9.767440948964936E-020
  -25.9600000000000         1.504333081155041E-019
  -25.7700000000000         1.660149062219689E-019
  -25.5800000000000         1.379704666146999E-019
  -25.3900000000000         7.282657160076247E-020
  -25.2000000000000        -1.175389847417846E-020
  -25.0100000000000        -9.206005085779109E-020
  -24.8200000000000        -1.451873176344747E-019
  -24.6300000000000        -1.556683543995409E-019
  -24.4400000000000        -1.199624554519016E-019
  -24.2500000000000        -4.750801723577020E-020
  -24.0600000000000         4.196507936601261E-020
  -23.8700000000000         1.240870917622326E-019
  -23.6800000000000         1.768297630837719E-019
  -23.4900000000000         1.867946116256906E-019
  -23.3000000000000         1.529835213248042E-019
  -23.1100000000000         8.695870958869944E-020
  -22.9200000000000         9.352914268988690E-021
  -22.7300000000000        -5.624308572308731E-020
  -22.5400000000000        -9.022467928497965E-020
  -22.3500000000000        -8.272114964997900E-020
  -22.1600000000000        -3.647393289095003E-020
  -21.9700000000000         3.398806405931234E-020
  -21.7800000000000         1.066319883050734E-019
  -21.5900000000000         1.584152505169680E-019
  -21.4000000000000         1.721003795854150E-019
  -21.2100000000000         1.414052683201967E-019
  -21.0200000000000         7.298323628649916E-020
  -20.8300000000000        -1.535454680604404E-020
  -20.6400000000000        -9.966952569132443E-020
  -20.4500000000000        -1.567265402497113E-019
  -20.2600000000000        -1.706477996165071E-019
  -20.0700000000000        -1.374652888347669E-019
  -19.8800000000000        -6.625798517854310E-020
  -19.6900000000000         2.345118224058312E-020
  -19.5000000000000         1.072853620870009E-019
  -19.3100000000000         1.629788584689933E-019
  -19.1200000000000         1.767102889351432E-019
  -18.9300000000000         1.469775197229331E-019
  -18.7400000000000         8.489496418570627E-020
  -18.5500000000000         1.082823226544347E-020
  -18.3600000000000        -5.165347932514116E-020
  -18.1700000000000        -8.274237077745098E-020
  -17.9800000000000        -7.223964582151642E-020
  -17.7900000000000        -2.257779256231833E-020
  -17.6000000000000         5.186291382917889E-020
  -17.4100000000000         1.289407653031167E-019
  -17.2200000000000         1.852189835590978E-019
  -17.0300000000000         2.028300121849662E-019
  -16.8400000000000         1.747444475031195E-019
  -16.6500000000000         1.069147516240511E-019
  -16.4600000000000         1.666596568961636E-020
  -16.2700000000000        -7.221141688606272E-020
  -16.0800000000000        -1.362563603843771E-019
  -15.8900000000000        -1.590581523956655E-019
  -15.7000000000000        -1.359554345186908E-019
  -15.5100000000000        -7.534636782388102E-020
  -15.3200000000000         3.774823584515506E-021
  -15.1300000000000         7.734228839066932E-020
  -14.9400000000000         1.232014953581657E-019
  -14.7500000000000         1.275262117840888E-019
  -14.5600000000000         8.881114689995429E-020
  -14.3700000000000         1.828518574709770E-020
  -14.1800000000000        -6.337321299491446E-020
  -13.9900000000000        -1.320652513817179E-019
  -13.8000000000000        -1.672950906818769E-019
  -13.6100000000000        -1.581454196638776E-019
  -13.4200000000000        -1.064654597137761E-019
  -13.2300000000000        -2.634201716933184E-020
  -13.0400000000000         5.999182037636888E-020
  -12.8500000000000         1.286165438978257E-019
  -12.6600000000000         1.608725621888361E-019
  -12.4700000000000         1.487741157007486E-019
  -12.2800000000000         9.732246546104152E-020
  -12.0900000000000         2.305236663667183E-020
  -11.9000000000000        -5.076444226651435E-020
  -11.7100000000000        -1.008718505499536E-019
  -11.5200000000000        -1.107880721631735E-019
  -11.3300000000000        -7.561593326958508E-020
  -11.1400000000000        -3.507532030709419E-021
  -10.9500000000000         8.664942071850276E-020
  -10.7600000000000         1.706591161105250E-019
  -10.5700000000000         2.259847702411572E-019
  -10.3800000000000         2.382288078035538E-019
  -10.1900000000000         2.052408561992801E-019
  -10.0000000000000         1.376623262594881E-019
  -9.81000000000000         5.575737962028913E-020
  -9.62000000000000        -1.653924050432632E-020
  -9.42999999999999        -5.862183098195832E-020
  -9.23999999999999        -5.922568921950489E-020
  -9.05000000000000        -1.970530813016695E-020
  -8.86000000000000         4.637464760774574E-020
  -8.67000000000000         1.172206469566765E-019
  -8.48000000000000         1.692123794232132E-019
  -8.28999999999999         1.838689822738958E-019
  -8.09999999999999         1.533544321659670E-019
  -7.91000000000000         8.291706174869368E-020
  -7.72000000000000        -1.045349008808207E-020
  -7.53000000000000        -1.027709936630773E-019
  -7.34000000000000        -1.698329415997658E-019
  -7.15000000000001        -1.940838180199301E-019
  -6.95999999999999        -1.695872575486285E-019
  -6.77000000000000        -1.036794017308929E-019
  -6.58000000000000        -1.483166240948881E-020
  -6.39000000000000         7.265699119512047E-020
  -6.20000000000000         1.356027182132183E-019
  -6.01000000000001         1.585046744923576E-019
  -5.81999999999999         1.378365618289045E-019
  -5.63000000000000         8.282510790582094E-020
  -5.44000000000000         1.250762340166464E-020
  -5.25000000000000        -5.005041951630312E-020
  -5.06000000000000        -8.467058502107678E-020
  -4.87000000000000        -8.007991354018886E-020
  -4.67999999999999        -3.727464441319911E-020
  -4.48999999999999         3.074765206110386E-020
  -4.30000000000000         1.028047803735065E-019
  -4.11000000000000         1.557822260943288E-019
  -3.92000000000000         1.715012022047219E-019
  -3.73000000000000         1.422002833875892E-019
  -3.53999999999999         7.302365668353151E-020
  -3.34999999999999        -1.922821946758355E-020
  -3.16000000000000        -1.107454251417234E-019
  -2.97000000000000        -1.774212797687551E-019
  -2.78000000000000        -2.016921496443622E-019
  -2.59000000000000        -1.775235667067760E-019
  -2.40000000000001        -1.120992019560086E-019
  -2.20999999999999        -2.372709257146224E-020
  -2.02000000000000         6.342675852491780E-020
  -1.83000000000000         1.262525359289418E-019
  -1.64000000000000         1.492615896207842E-019
  -1.45000000000000         1.289096883705294E-019
  -1.26000000000001         7.443712142842145E-020
  -1.06999999999999         4.995522676994848E-021
 -0.879999999999995        -5.608976250739001E-020
 -0.689999999999998        -8.824069952025479E-020
 -0.500000000000000        -7.970841782974546E-020
 -0.310000000000002        -3.104365840418710E-020
 -0.120000000000005         4.504833144956300E-020
  7.000000000000739E-002    1.274146895991372E-019
  0.260000000000005         1.926336222961968E-019
  0.450000000000003         2.218608619518445E-019
  0.640000000000001         2.063511633828156E-019
  0.829999999999998         1.500492473097906E-019
   1.02000000000000         6.849381168030445E-020
   1.21000000000001        -1.565450105122619E-020
   1.40000000000001        -7.916969972963510E-020
   1.59000000000000        -1.049981092262360E-019
   1.78000000000000        -8.721167662728710E-020
   1.97000000000000        -3.272512374123428E-020
   2.16000000000000         4.073136437098937E-020
   2.34999999999999         1.097966457965000E-019
   2.54000000000001         1.523101041742809E-019
   2.73000000000000         1.538012022669491E-019
   2.92000000000000         1.117513900235545E-019
   3.11000000000000         3.639288176161521E-020
   3.30000000000000        -5.218700298256528E-020
   3.48999999999999        -1.298002226615354E-019
   3.68000000000001        -1.751104977905627E-019
   3.87000000000000        -1.757758733430204E-019
   4.06000000000000        -1.320045315714649E-019
   4.25000000000000        -5.649253809488921E-020
   4.44000000000000         2.924188600709474E-020
   4.63000000000000         1.010689489531534E-019
   4.82000000000001         1.392052548725092E-019
   5.01000000000001         1.339043459486850E-019
   5.20000000000000         8.823351836376172E-020
   5.39000000000000         1.713621082314064E-020
   5.58000000000000        -5.694596029839693E-020
   5.77000000000000        -1.106243320500841E-019
   5.96000000000001        -1.263928233197069E-019
   6.15000000000001        -9.775891228710888E-020
   6.34000000000000        -3.118669335700362E-020
   6.53000000000000         5.571654042712386E-020