  -105.000000000000         3.233887230152007E-019
  -104.810000000000         2.449451093765600E-019
  -104.620000000000         1.144256790570940E-019
  -104.430000000000        -3.159633244510613E-020
  -104.240000000000        -1.524697323877797E-019
  -104.050000000000        -2.151734258908629E-019
  -103.860000000000        -2.038048655504641E-019
  -103.670000000000        -1.240904725054432E-019
  -103.480000000000        -1.606769182361998E-021
  -103.290000000000         1.257624044311194E-019
  -103.100000000000         2.189235601139726E-019
  -102.910000000000         2.489870636451668E-019
  -102.720000000000         2.056817035692821E-019
  -102.530000000000         1.003433285869798E-019
  -102.340000000000        -3.737156437004699E-020
  -102.150000000000        -1.680883226689741E-019
  -101.960000000000        -2.541465681571165E-019
  -101.770000000000        -2.705584762195394E-019
  -101.580000000000        -2.123146422535332E-019
  -101.390000000000        -9.590280095597049E-020
  -101.200000000000         4.542190315086158E-020
  -101.010000000000         1.712518516873935E-019
  -100.820000000000         2.457271106103516E-019
  -100.630000000000         2.479071385739788E-019
  -100.440000000000         1.777963000531188E-019
  -100.250000000000         5.628580183408298E-020
  -100.060000000000        -8.094980143368142E-020
  -99.8700000000000        -1.938163157090483E-019
  -99.6800000000000        -2.494205744767088E-019
  -99.4900000000000        -2.315941900132284E-019
  -99.3000000000000        -1.455728708354619E-019
  -99.1100000000000        -1.647329332093397E-020
  -98.9200000000000         1.180044484939367E-019
  -98.7300000000000         2.185421292028360E-019
  -98.5400000000000         2.556495102357015E-019
  -98.3500000000000         2.182529358880686E-019
  -98.1600000000000         1.169200616347046E-019
  -97.9700000000000        -1.921539763947643E-020
  -97.7800000000000        -1.509237290037280E-019
  -97.5900000000000        -2.402708838242561E-019
  -97.4000000000000        -2.616207099547541E-019
  -97.2100000000000        -2.090628569284634E-019
  -97.0200000000000        -9.812129528988567E-020
  -96.8300000000000         3.875229967880561E-020
  -96.6400000000000         1.616030564711576E-019
  -96.4500000000000         2.345888362805313E-019
  -96.2600000000000         2.364121456783318E-019
  -96.0700000000000         1.665249191811885E-019
  -95.8800000000000         4.529057368201552E-020
  -95.6900000000000        -9.194569002530595E-020
  -95.5000000000000        -2.051446031705989E-019
  -95.3100000000000        -2.612165760624082E-019
  -95.1200000000000        -2.436373211494976E-019
  -94.9300000000000        -1.572539457202489E-019
  -94.7400000000000        -2.689758874928067E-020
  -94.5500000000000         1.097959814501837E-019
  -94.3600000000000         2.132884123322641E-019
  -94.1700000000000         2.536148092967910E-019
  -93.9800000000000         2.191060962666862E-019
  -93.7900000000000         1.198127265814902E-019
  -93.6000000000000        -1.538380588840158E-020
  -93.4100000000000        -1.471428377567131E-019
  -93.2200000000000        -2.370819687502926E-019
  -93.0300000000000        -2.589116079213508E-019
  -92.8400000000000        -2.060513753400046E-019
  -92.6500000000000        -9.353157266994037E-020
  -92.4600000000000         4.635186525582472E-020
  -92.2700000000000         1.733589997472692E-019
  -92.0800000000000         2.509115996696947E-019
  -91.8900000000000         2.566428546054544E-019
  -91.7000000000000         1.888527992722513E-019
  -91.5100000000000         6.699817998017916E-020
  -91.3200000000000        -7.394155823998944E-020
  -91.1300000000000        -1.936031574798313E-019
  -90.9400000000000        -2.579422750739963E-019
  -90.7500000000000        -2.490921631588093E-019
  -90.5600000000000        -1.705054050529952E-019
  -90.3700000000000        -4.588634176705225E-020
  -90.1800000000000         8.776285164777369E-020
  -89.9900000000000         1.909479543947939E-019
  -89.8000000000000         2.331978985951578E-019
  -89.6100000000000         2.019532763755734E-019
  -89.4200000000000         1.062553236042805E-019
  -89.2300000000000        -2.583898977593511E-020
  -89.0400000000000        -1.553787730675944E-019
  -88.8500000000000        -2.438322788506243E-019
  -88.6600000000000        -2.643079426713877E-019
  -88.4700000000000        -2.094153579801915E-019
  -88.2800000000000        -9.347218219273209E-020
  -88.0900000000000         5.158455493098394E-020
  -87.9000000000000         1.853841475565380E-019
  -87.7100000000000         2.707282441711497E-019
  -87.5200000000000         2.842551002494291E-019
  -87.3300000000000         2.230905576838293E-019
  -87.1400000000000         1.055817397966494E-019
  -86.9500000000000        -3.408506514374112E-020
  -86.7600000000000        -1.558215697036437E-019
  -86.5700000000000        -2.252549478232326E-019
  -86.3800000000000        -2.236582609534119E-019
  -86.1900000000000        -1.533049906995374E-019
  -86.0000000000000        -3.668516038694387E-020
  -85.8100000000000         9.018259269939115E-020
  -85.6200000000000         1.883750258664729E-019
  -85.4300000000000         2.275084684747716E-019
  -85.2400000000000         1.946629315381224E-019
  -85.0500000000000         9.819821203843365E-020
  -84.8600000000000        -3.463079717850460E-020
  -84.6700000000000        -1.655561789209898E-019
  -84.4800000000000        -2.563926939005751E-019
  -84.2900000000000        -2.801419478962270E-019
  -84.1000000000000        -2.288909789868280E-019
  -83.9100000000000        -1.162017132750743E-019
  -83.7200000000000         2.672746098023616E-020
  -83.5300000000000         1.600347717295666E-019
  -83.3400000000000         2.467017217007377E-019
  -83.1500000000000         2.632412736268694E-019
  -82.9600000000000         2.064507846236953E-019
  -82.7700000000000         9.426688630363963E-020
  -82.5800000000000        -3.951387781032180E-020
  -82.3900000000000        -1.551012676271909E-019
  -82.2000000000000        -2.182965466649247E-019
  -82.0100000000000        -2.104414353067776E-019
  -81.8200000000000        -1.338500812369790E-019
  -81.6300000000000        -1.114400083520746E-020
  -81.4400000000000         1.213288613473246E-019
  -81.2500000000000         2.240904639903797E-019
  -81.0600000000000         2.660656402957521E-019
  -80.8700000000000         2.336871781876326E-019
  -80.6800000000000         1.349110784115013E-019
  -80.4900000000000        -3.029625150120447E-021
  -80.3000000000000        -1.414716258186510E-019
  -80.1100000000000        -2.414806528911123E-019
  -79.9200000000000        -2.750859511865468E-019
  -79.7300000000000        -2.333431932439420E-019
  -79.5400000000000        -1.289007710185753E-019
  -79.3500000000000         7.671690299428798E-021
  -79.1600000000000         1.367389422997777E-019
  -78.9700000000000         2.210878140753910E-019
  -78.7800000000000         2.367204494323846E-019
  -78.5900000000000         1.798101051958689E-019
  -78.4000000000000         6.778345084162627E-020
  -78.2100000000000        -6.579141523874741E-020
  -78.0200000000000        -1.810184544874565E-019
  -77.8300000000000        -2.433255878754414E-019
  -77.6400000000000        -2.335660510651830E-019
  -77.4500000000000        -1.536429380528378E-019
  -77.2600000000000        -2.603413304206888E-020
  -77.0700000000000         1.126472498900913E-019
  -76.8800000000000         2.222116528577174E-019
  -76.6900000000000         2.705395736021903E-019
  -76.5000000000000         2.429544123407578E-019
  -76.3100000000000         1.465922261093742E-019
  -76.1200000000000         8.469396697190428E-021
  -75.9300000000000        -1.322245809548875E-019
  -75.7400000000000        -2.353918183453449E-019
  -75.5500000000000        -2.715802300263350E-019
  -75.3600000000000        -2.304687878179117E-019
  -75.1700000000000        -1.238259122725257E-019
  -74.9800000000000         1.790085822082779E-020
  -74.7900000000000         1.543604285553605E-019
  -74.6000000000000         2.468964802855383E-019
  -74.4100000000000         2.696249982342840E-019
  -74.2200000000000         2.168044010543669E-019
  -74.0300000000000         1.043808997300414E-019
  -73.8400000000000        -3.472965973892724E-020
  -73.6500000000000        -1.602517914974858E-019
  -73.4600000000000        -2.362590586342849E-019
  -73.2700000000000        -2.415750234296684E-019
  -73.0800000000000        -1.758446253790550E-019
  -72.8900000000000        -5.952569390630292E-020
  -72.7000000000000         7.217320043104505E-020
  -72.5100000000000         1.796273505258720E-019
  -72.3200000000000         2.303950534119977E-019
  -72.1300000000000         2.087197302329841E-019
  -71.9400000000000         1.201851225728900E-019
  -71.7500000000000        -9.829683442707897E-021
  -71.5600000000000        -1.434631287416769E-019
  -71.3700000000000        -2.413480486838643E-019
  -71.1800000000000        -2.740712368662017E-019
  -70.9900000000000        -2.307770028754022E-019
  -70.8000000000000        -1.224006055074457E-019
  -70.6100000000000         2.141327354911210E-020
  -70.4200000000000         1.608053900869185E-019
  -70.2300000000000         2.571349551945784E-019
  -70.0400000000000         2.840371370253296E-019
  -69.8500000000000         2.349219049922274E-019
  -69.6600000000000         1.247733239023228E-019
  -69.4700000000000        -1.425097850077551E-020
  -69.2800000000000        -1.421465644716465E-019
  -69.0900000000000        -2.226277045829731E-019
  -68.9000000000000        -2.335909371086194E-019
  -68.7100000000000        -1.734409219764389E-019
  -68.5200000000000        -6.143324037310298E-020
  -68.3300000000000         6.806905403883118E-020
  -68.1400000000000         1.757410541994518E-019
  -67.9500000000000         2.288629466577029E-019
  -67.7600000000000         2.109168938782359E-019
  -67.5700000000000         1.264178908468752E-019
  -67.3800000000000        -4.082321022679866E-022
  -67.1900000000000        -1.326909023278874E-019
  -67.0000000000000        -2.316568286807536E-019
  -66.8100000000000        -2.679272127911044E-019
  -66.6200000000000        -2.300966284005881E-019
  -66.4300000000000        -1.281053068099003E-019
  -66.2400000000000         9.582349257402848E-021
  -66.0500000000000         1.441857246063696E-019
  -65.8600000000000         2.378228121082271E-019
  -65.6700000000000         2.644682782056890E-019
  -65.4800000000000         2.174639623430300E-019
  -65.2900000000000         1.113996543961969E-019
  -65.1000000000000        -2.217494687382542E-020
  -64.9100000000000        -1.439531635361351E-019
  -64.7200000000000        -2.183143541724426E-019
  -64.5300000000000        -2.236901115020588E-019
  -64.3400000000000        -1.588493509602505E-019
  -64.1500000000000        -4.327157228688216E-020
  -63.9600000000000         8.851674011547529E-020
  -63.7700000000000         1.970110524523892E-019
  -63.5800000000000         2.492755503990393E-019
  -63.3900000000000         2.285957656952388E-019
  -63.2000000000000         1.394130918133061E-019
  -63.0100000000000         6.099362429225618E-021
  -62.8200000000000        -1.340648177017348E-019
  -62.6300000000000        -2.416544744350810E-019
  -62.4400000000000        -2.864784271204440E-019
  -62.2500000000000        -2.562828733652452E-019
  -62.0600000000000        -1.602743912359863E-019
  -61.8700000000000        -2.644586914525265E-020
  -61.6800000000000         1.065331580601628E-019
  -61.4900000000000         2.005310466181686E-019
  -61.3000000000000         2.290302332557323E-019
  -61.1100000000000         1.848387601380759E-019
  -60.9200000000000         8.217061038312033E-020
  -60.7300000000000        -4.753145709729489E-020
  -60.5400000000000        -1.648152224697765E-019
  -60.3500000000000        -2.337786466200195E-019
  -60.1600000000000        -2.325869130349041E-019
  -59.9700000000000        -1.598832356614167E-019
  -59.7800000000000        -3.523981096690465E-020
  -59.5900000000000         1.064693733738308E-019
  -59.4000000000000         2.251380120016444E-019
  -59.2100000000000         2.870298352591330E-019
  -59.0200000000000         2.745646649126797E-019
  -58.8300000000000         1.914532190751231E-019
  -58.6400000000000         6.167640169577817E-020
  -58.4500000000000        -7.741655706279656E-020
  -58.2600000000000        -1.859026659869017E-019
  -58.0700000000000        -2.328420543593764E-019
  -57.8800000000000        -2.052383135572024E-019
  -57.6900000000000        -1.117979674166979E-019
  -57.5000000000000         1.959986172884112E-020
  -57.3100000000000         1.499848316776332E-019
  -57.1200000000000         2.405858055424752E-019
  -56.9300000000000         2.640676088574383E-019
  -56.7400000000000         2.124663031557735E-019
  -56.5500000000000         9.952017449244773E-020
  -56.3600000000000        -4.329135493016344E-020
  -56.1700000000000        -1.758614545696493E-019
  -55.9800000000000        -2.610765462176194E-019
  -55.7900000000000        -2.755599129995724E-019
  -55.6000000000000        -2.164074735895198E-019
  -55.4100000000000        -1.019600949782380E-019
  -55.2200000000000         3.359524174164531E-020
  -55.0300000000000         1.502068206879891E-019
  -54.8400000000000         2.136172273386487E-019
  -54.6500000000000         2.053272521096423E-019
  -54.4600000000000         1.279893598895121E-019
  -54.2700000000000         4.669558720640945E-021
  -54.0800000000000        -1.278233578924161E-019
  -53.8900000000000        -2.296312212836545E-019
  -53.7000000000000        -2.694763934869865E-019
  -53.5100000000000        -2.338462068835292E-019
  -53.3200000000000        -1.310407084617771E-019
  -53.1300000000000         1.111403915591772E-020
  -52.9400000000000         1.532285564779448E-019
  -52.7500000000000         2.556702900555562E-019
  -52.5600000000000         2.899533383897142E-019
  -52.3700000000000         2.469043025537906E-019
  -52.1800000000000         1.392595675096524E-019
  -51.9900000000000        -2.036525262977207E-021
  -51.8000000000000        -1.367551183615075E-019
  -51.6100000000000        -2.269592379966967E-019
  -51.4200000000000        -2.479021831272271E-019
  -51.2300000000000        -1.951007911770424E-019
  -51.0400000000000        -8.552987507816655E-020
  -50.8500000000000         4.741442165283508E-020
  -50.6600000000000         1.637183762416513E-019
  -50.4700000000000         2.284625117504770E-019
  -50.2800000000000         2.220237587029297E-019
  -50.0900000000000         1.457971145825401E-019
  -49.9000000000000         2.178390958781077E-020
  -49.7100000000000        -1.138163047339167E-019
  -49.5200000000000        -2.211398419961223E-019
  -49.3300000000000        -2.682638875995305E-019
  -49.1400000000000        -2.405202146124148E-019
  -48.9500000000000        -1.448141798310427E-019
  -48.7600000000000        -7.688052219186614E-021
  -48.5700000000000         1.323184896903837E-019
  -48.3800000000000         2.357974798069807E-019
  -48.1900000000000         2.738567016154978E-019
  -48.0000000000000         2.364482975610385E-019
  -47.8100000000000         1.352298538417229E-019
  -47.6200000000000         1.459529685935105E-022
  -47.4300000000000        -1.292616076021146E-019
  -47.2400000000000        -2.152951787068551E-019
  -47.0500000000000        -2.329942484135389E-019
  -46.8600000000000        -1.773440173082467E-019
  -46.6700000000000        -6.472136586801773E-020
  -46.4800000000000         7.184827222903323E-020
  -46.2900000000000         1.922675146799823E-019
  -46.1000000000000         2.610117718141461E-019
  -45.9100000000000         2.574548523875945E-019
  -45.7200000000000         1.818588542881849E-019
  -45.5300000000000         5.528094252088850E-020
  -45.3400000000000        -8.656294050465770E-020
  -45.1500000000000        -2.036702187166050E-019
  -44.9600000000000        -2.633277518882589E-019
  -44.7700000000000        -2.495306503647764E-019
  -44.5800000000000        -1.675317188316284E-019
  -44.3900000000000        -4.222973017455025E-020
  -44.2000000000000         8.912233268810691E-020
  -44.0100000000000         1.877796722783635E-019
  -43.8200000000000         2.247969431514721E-019
  -43.6300000000000         1.894695288742143E-019
  -43.4400000000000         9.246006854640106E-020
  -43.2500000000000        -3.731350175655108E-020
  -43.0600000000000        -1.611298481356230E-019
  -42.8700000000000        -2.417893250440378E-019
  -42.6800000000000        -2.545004338751332E-019
  -42.4900000000000        -1.941501712956791E-019
  -42.3000000000000        -7.684803791961613E-020
  -42.1100000000000         6.469490038954172E-020
  -41.9200000000000         1.906057398670790E-019
  -41.7300000000000         2.653717174350985E-019
  -41.5400000000000         2.681063826533787E-019
  -41.3500000000000         1.985836499365324E-019
  -41.1600000000000         7.728608528064683E-020
  -40.9700000000000        -6.055231765997493E-020
  -40.7800000000000        -1.751801500355949E-019
  -40.5900000000000        -2.338591010843902E-019
  -40.4000000000000        -2.203341737939245E-019
  -40.2100000000000        -1.394987654747741E-019
  -40.0200000000000        -1.591693405739052E-020
  -39.8300000000000         1.133549365779110E-019
  -39.6400000000000         2.095643472561103E-019
  -39.4500000000000         2.435559982873515E-019
  -39.2600000000000         2.042979960487783E-019
  -39.0700000000000         1.021657119093569E-019
  -38.8800000000000        -3.399249988274207E-020
  -38.6900000000000        -1.651880517558658E-019
  -38.5000000000000        -2.536193837970763E-019
  -38.3100000000000        -2.736905058026190E-019
  -38.1200000000000        -2.194913781011351E-019
  -37.9300000000000        -1.065456662090602E-019
  -37.7400000000000         3.268408962234368E-020
  -37.5500000000000         1.582143182416691E-019
  -37.3600000000000         2.341303082375700E-019
  -37.1700000000000         2.389828013402025E-019
  -36.9800000000000         1.719920923673996E-019
  -36.7900000000000         5.327781449701389E-020
  -36.6000000000000        -8.195460655986767E-020
  -36.4100000000000        -1.936061911271016E-019
  -36.2200000000000        -2.483207589840573E-019
  -36.0300000000000        -2.291962857555640E-019
  -35.8400000000000        -1.407424798192804E-019
  -35.6500000000000        -7.625924742954539E-021
  -35.4600000000000         1.324460477926345E-019
  -35.2700000000000         2.396324729437007E-019
  -35.0800000000000         2.834765955999697E-019
  -34.8900000000000         2.516871282226384E-019
  -34.7000000000000         1.536472460566204E-019
  -34.5100000000000         1.765168624519990E-020
  -34.3200000000000        -1.173146865890376E-019
  -34.1300000000000        -2.128705532061754E-019
  -33.9400000000000        -2.423354690833116E-019
  -33.7500000000000        -1.984220154975351E-019
  -33.5600000000000        -9.529542195803584E-020
  -33.3700000000000         3.559992167802573E-020
  -33.1800000000000         1.547357570355027E-019
  -32.9900000000000         2.260394335544310E-019
  -32.8000000000000         2.274205400777754E-019
  -32.6100000000000         1.572330815883427E-019
  -32.4200000000000         3.480810877836247E-020
  -32.2300000000000        -1.050930244856004E-019
  -32.0400000000000        -2.223028585944060E-019
  -31.8500000000000        -2.828594850660421E-019
  -31.6600000000000        -2.688564762625524E-019
  -31.4700000000000        -1.836779300719025E-019
  -31.2800000000000        -5.108133698888541E-020
  -31.0900000000000         9.163232458339188E-020
  -30.9000000000000         2.043906051677808E-019
  -30.7100000000000         2.559271455215112E-019
  -30.5200000000000         2.327873353685163E-019
  -30.3300000000000         1.431424239772602E-019
  -30.1400000000000         1.431980124819863E-020
  -29.9500000000000        -1.152032526534926E-019
  -29.7600000000000        -2.069927408390198E-019
  -29.5700000000000        -2.337902711931315E-019
  -29.3800000000000        -1.873808139034577E-019
  -29.1900000000000        -8.094151981687060E-020
  -29.0000000000000         5.480019543297787E-020
  -28.8100000000000         1.804921705515939E-019
  -28.6200000000000         2.595874314022823E-019
  -28.4300000000000         2.689631939371079E-019
  -28.2400000000000         2.056350782046583E-019
  -28.0500000000000         8.760105737991810E-020
  -27.8600000000000        -5.143175448772831E-020
  -27.6700000000000        -1.718848034331480E-019
  -27.4800000000000        -2.398242800246127E-019
  -27.2900000000000        -2.367969596991670E-019
  -27.1000000000000        -1.651341638112464E-019
  -26.9100000000000        -4.719687422645457E-020
  -26.7200000000000         8.120722591350277E-020
  -26.5300000000000         1.813184871016487E-019
  -26.3400000000000         2.227860679959092E-019
  -26.1500000000000         1.925939350750202E-019
  -25.9600000000000         9.894365471118252E-020
  -25.7700000000000        -3.105873128992683E-020
  -25.5800000000000        -1.592552412325512E-019
  -25.3900000000000        -2.475453153297163E-019
  -25.2000000000000        -2.690159349457514E-019
  -25.0100000000000        -2.158521200528159E-019
  -24.8200000000000        -1.017242332198929E-019
  -24.6300000000000         4.204856948199981E-020
  -24.4400000000000         1.754566377895699E-019
  -24.2500000000000         2.612985439512014E-019
  -24.0600000000000         2.759024729742223E-019
  -23.8700000000000         2.159622022137798E-019
  -23.6800000000000         9.948536107482022E-020
  -23.4900000000000        -3.944448049622608E-020
  -23.3000000000000        -1.605791716312202E-019
  -23.1100000000000        -2.292026273749055E-019
  -22.9200000000000        -2.261983110503943E-019
  -22.7300000000000        -1.535517219151239E-019
  -22.5400000000000        -3.369438819856696E-020
  -22.3500000000000         9.709961248564058E-020
  -22.1600000000000         1.993287452435620E-019
  -21.9700000000000         2.418100599383662E-019
  -21.7800000000000         2.108186120465618E-019
  -21.5900000000000         1.141718584747117E-019
  -21.4000000000000        -2.094214818221539E-020
  -21.2100000000000        -1.557889376356471E-019
  -21.0200000000000        -2.513148056256938E-019
  -20.8300000000000        -2.795213462131882E-019
  -20.6400000000000        -2.316652488521996E-019
  -20.4500000000000        -1.208725055185269E-019
  -20.2600000000000         2.160828613573206E-020
  -20.0700000000000         1.554201005049657E-019
  -19.8800000000000         2.427517147642878E-019
  -19.6900000000000         2.592518242972299E-019
  -19.5000000000000         2.010509293814767E-019
  -19.3100000000000         8.586925291840325E-020
  -19.1200000000000        -5.210670139106736E-020
  -18.9300000000000        -1.721079150837710E-019
  -18.7400000000000        -2.385890260023008E-019
  -18.5500000000000        -2.315543952919185E-019
  -18.3600000000000        -1.524075363511723E-019
  -18.1700000000000        -2.360977026930949E-020
  -17.9800000000000         1.177682170939642E-019
  -17.7900000000000         2.307387579675376E-019
  -17.6000000000000         2.822368236235877E-019
  -17.4100000000000         2.566789472663195E-019
  -17.2200000000000         1.604780220195166E-019
  -17.0300000000000         2.021558441147362E-020
  -16.8400000000000        -1.249945602818816E-019
  -16.6500000000000        -2.347502801351495E-019
  -16.4600000000000        -2.789755482481483E-019
  -16.2700000000000        -2.465514990128363E-019
  -16.0800000000000        -1.484594810492386E-019
  -15.8900000000000        -1.451891274970659E-020
  -15.7000000000000         1.153327111855073E-019
  -15.5100000000000         2.026798624514777E-019
  -15.3200000000000         2.218014004514888E-019
  -15.1300000000000         1.671295599856247E-019
  -14.9400000000000         5.484367531846292E-020
  -14.7500000000000        -8.183961770970525E-020
  -14.5600000000000        -2.023004405134718E-019
  -14.3700000000000        -2.702921433796609E-019
  -14.1800000000000        -2.644698670843236E-019
  -13.9900000000000        -1.846329968028834E-019
  -13.8000000000000        -5.186776080173525E-020
  -13.6100000000000         9.746846662311087E-020
  -13.4200000000000         2.221963487642313E-019
  -13.2300000000000         2.881745428178436E-019
  -13.0400000000000         2.781201306357780E-019
  -12.8500000000000         1.965282151708880E-019
  -12.6600000000000         6.827094283735386E-020
  -12.4700000000000        -6.869050321199177E-020
  -12.2800000000000        -1.743418296211975E-019
  -12.0900000000000        -2.181925973759679E-019
  -11.9000000000000        -1.880508269164441E-019
  -11.7100000000000        -9.347633250879017E-020
  -11.5200000000000         3.706624098103301E-020
  -11.3300000000000         1.645242052368089E-019
  -11.1400000000000         2.506406206499655E-019
  -10.9500000000000         2.691063270481474E-019
  -10.7600000000000         2.132327431972133E-019
  -10.5700000000000         9.790525480672849E-020
  -10.3800000000000        -4.474966866770054E-020
  -10.1900000000000        -1.747122104126239E-019
  -10.0000000000000        -2.556989613401594E-019
  -9.81000000000000        -2.656823153759004E-019
  -9.62000000000000        -2.032425763944561E-019
  -9.42999999999999        -8.792112651101756E-020
  -9.23999999999999         4.551430672211320E-020
  -9.05000000000000         1.572267497278890E-019
  -8.86000000000000         2.139458405259037E-019
  -8.67000000000000         1.986990670834987E-019
  -8.48000000000000         1.157964533486292E-019
  -8.28999999999999        -1.039476109239640E-020
  -8.09999999999999        -1.425367722353915E-019
  -7.91000000000000        -2.412061553658402E-019
  -7.72000000000000        -2.763998769734864E-019
  -7.53000000000000        -2.363060826602491E-019
  -7.34000000000000        -1.307944659119607E-019
  -7.15000000000001         1.137291594291419E-020
  -6.95999999999999         1.507950294635303E-019
  -6.77000000000000         2.487664267443221E-019
  -6.58000000000000         2.784219881206155E-019
  -6.39000000000000         2.324673505237406E-019
  -6.20000000000000         1.252481628485501E-019
  -6.01000000000001        -1.145596723565286E-020
  -5.81999999999999        -1.377041555385975E-019
  -5.63000000000000        -2.170353031456155E-019
  -5.44000000000000        -2.270708381231229E-019
  -5.25000000000000        -1.659761265054283E-019
  -5.06000000000000        -5.290488790909703E-020
  -4.87000000000000         7.768012017984241E-020
  -4.67999999999999         1.861355793929105E-019
  -4.48999999999999         2.392587327768779E-019
  -4.30000000000000         2.200254491935979E-019
  -4.11000000000000         1.326261125495002E-019
  -3.92000000000000         1.339389426436139E-021
  -3.73000000000000        -1.364456872905320E-019
  -3.53999999999999        -2.410570178698202E-019
  -3.34999999999999        -2.820787786575543E-019
  -3.16000000000000        -2.472355185633736E-019
  -2.97000000000000        -1.460174070646872E-019
  -2.78000000000000        -6.977237937342135E-021
  -2.59000000000000         1.305210421221666E-019
  -2.40000000000001         2.276998166042602E-019
  -2.20999999999999         2.575915340930258E-019
  -2.02000000000000         2.128295880945690E-019
  -1.83000000000000         1.077548169758100E-019
  -1.64000000000000        -2.577035745648868E-020
  -1.45000000000000        -1.476378573012521E-019
  -1.26000000000001        -2.211829302670175E-019
  -1.06999999999999        -2.238954421665996E-019
 -0.879999999999995        -1.540330270829281E-019
 -0.689999999999998        -3.119929398890073E-020
 -0.500000000000000         1.092965134809594E-019
 -0.310000000000002         2.266659386356128E-019
 -0.120000000000005         2.864762019810206E-019
  7.000000000000739E-002    2.706494649337783E-019
  0.260000000000005         1.827302454607465E-019
  0.450000000000003         4.690497829383595E-020
  0.640000000000001        -9.894172409466689E-020
  0.829999999999998        -2.141353103086783E-019
   1.02000000000000        -2.669389882902202E-019
   1.21000000000001        -2.437107454916477E-019
   1.40000000000001        -1.528304466966377E-019
   1.59000000000000        -2.223860152653854E-020
   1.78000000000000         1.087194693177483E-019
   1.97000000000000         2.007766281423046E-019
   2.16000000000000         2.261992097018475E-019
   2.34999999999999         1.768704985654870E-019
   2.54000000000001         6.665729356486416E-020
   2.73000000000000        -7.261197796297296E-020
   2.92000000000000        -2.003749422212590E-019
   3.11000000000000        -2.790854561862513E-019
   3.30000000000000        -2.850878022707195E-019
   3.48999999999999        -2.154821431860633E-019
   3.68000000000001        -8.900196487850154E-020
   3.87000000000000         5.936142233546914E-020
   4.06000000000000         1.884469081909947E-019
   4.25000000000000         2.628037464173942E-019
   4.44000000000000         2.629094932191945E-019
   4.63000000000000         1.907522382925989E-019
   4.82000000000001         6.915568289241336E-020
   5.01000000000001        -6.494782530531524E-020
   5.20000000000000        -1.713245526293902E-019
   5.39000000000000        -2.181743900422177E-019
   5.58000000000000        -1.913914432022935E-019
   5.77000000000000        -9.867968943947980E-020
   5.96000000000001         3.266319439742054E-020
   6.15000000000001         1.636610016390159E-019
   6.34000000000000         2.549912767021827E-019
   6.53000000000000         2.784536735572112E-019