  -105.000000000000         3.980229100111381E-019
  -104.810000000000         9.230108410246150E-020
  -104.620000000000        -2.299947643825007E-019
  -104.430000000000        -2.751352721870959E-019
  -104.240000000000        -1.733949418331935E-020
  -104.050000000000         2.796154778150888E-019
  -103.860000000000         3.166937442003627E-019
  -103.670000000000         4.663316399194770E-020
  -103.480000000000        -2.801560836739178E-019
  -103.290000000000        -3.546904248647634E-019
  -103.100000000000        -1.052471475928270E-019
  -102.910000000000         2.330178378114069E-019
  -102.720000000000         3.415630154560893E-019
  -102.530000000000         1.215190305334647E-019
  -102.340000000000        -2.130759137782532E-019
  -102.150000000000        -3.403624627955585E-019
  -101.960000000000        -1.380145696142905E-019
  -101.770000000000         2.001774893282150E-019
  -101.580000000000         3.495830599338696E-019
  -101.390000000000         1.652067460919141E-019
  -101.200000000000        -1.791925982136366E-019
  -101.010000000000        -3.567073983975082E-019
  -100.820000000000        -1.995518556294530E-019
  -100.630000000000         1.405883007817992E-019
  -100.440000000000         3.373488326048484E-019
  -100.250000000000         2.012849770188271E-019
  -100.060000000000        -1.389704153448453E-019
  -99.8700000000000        -3.588174211679756E-019
  -99.6800000000000        -2.470795051624898E-019
  -99.4900000000000         9.213196407783199E-020
  -99.3000000000000         3.380487559159102E-019
  -99.1100000000000         2.586668509531403E-019
  -98.9200000000000        -6.860129188629376E-020
  -98.7300000000000        -3.315293207697521E-019
  -98.5400000000000        -2.811056963204577E-019
  -98.3500000000000         3.169882443076858E-020
  -98.1600000000000         3.058456588092114E-019
  -97.9700000000000         2.786487751325619E-019
  -97.7800000000000        -2.274886879451479E-020
  -97.5900000000000        -3.071982413499948E-019
  -97.4000000000000        -2.983369895891735E-019
  -97.2100000000000         1.701981857830783E-022
  -97.0200000000000         3.068509543457624E-019
  -96.8300000000000         3.300850827671192E-019
  -96.6400000000000         4.553628595596481E-020
  -96.4500000000000        -2.810658591315162E-019
  -96.2600000000000        -3.470134182506008E-019
  -96.0700000000000        -1.001360936385047E-019
  -95.8800000000000         2.133269174745311E-019
  -95.6900000000000         2.861374565503938E-019
  -95.5000000000000         4.580115342312292E-020
  -95.3100000000000        -2.745988338617314E-019
  -95.1200000000000        -3.587531052041518E-019
  -94.9300000000000        -1.103039592473405E-019
  -94.7400000000000         2.527850183734896E-019
  -94.5500000000000         4.029475804357515E-019
  -94.3600000000000         2.122249160583548E-019
  -94.1700000000000        -1.280344278814582E-019
  -93.9800000000000        -2.908605324617273E-019
  -93.7900000000000        -1.257362029845505E-019
  -93.6000000000000         1.987066272855314E-019
  -93.4100000000000         3.575640498554263E-019
  -93.2200000000000         1.820487582200549E-019
  -93.0300000000000        -1.774926512046181E-019
  -92.8400000000000        -3.935330392390954E-019
  -92.6500000000000        -2.725382022793591E-019
  -92.4600000000000         6.146828315301257E-020
  -92.2700000000000         2.859712573951290E-019
  -92.0800000000000         1.882043736770983E-019
  -91.8900000000000        -1.317119719337203E-019
  -91.7000000000000        -3.571048164145554E-019
  -91.5100000000000        -2.585656356962235E-019
  -91.3200000000000         8.544713381843438E-020
  -91.1300000000000         3.620916594123237E-019
  -90.9400000000000         3.212492065635034E-019
  -90.7500000000000         1.265712915093036E-020
  -90.5600000000000        -2.628180439147761E-019
  -90.3700000000000        -2.410986192619777E-019
  -90.1800000000000         5.275345254195699E-020
  -89.9900000000000         3.289726356147579E-019
  -89.8000000000000         3.113200174820232E-019
  -89.6100000000000         3.100562509163707E-021
  -89.4200000000000        -3.136661061732267E-019
  -89.2300000000000        -3.454379644460229E-019
  -89.0400000000000        -6.602417830188369E-020
  -88.8500000000000         2.583351045496640E-019
  -88.6600000000000         3.214813513094004E-019
  -88.4700000000000         6.732463682228208E-020
  -88.2800000000000        -2.585360167818958E-019
  -88.0900000000000        -3.444927697495560E-019
  -87.9000000000000        -1.106555695838562E-019
  -87.7100000000000         2.159211701455873E-019
  -87.5200000000000         3.199580057680632E-019
  -87.3300000000000         1.008423054756368E-019
  -87.1400000000000        -2.300575007269365E-019
  -86.9500000000000        -3.506901647391796E-019
  -86.7600000000000        -1.363534175046672E-019
  -86.5700000000000         2.194688633403916E-019
  -86.3800000000000         3.874417650627112E-019
  -86.1900000000000         2.145647300474959E-019
  -86.0000000000000        -1.317035282747126E-019
  -85.8100000000000        -3.248254012572217E-019
  -85.6200000000000        -1.911837157177078E-019
  -85.4300000000000         1.257956334751321E-019
  -85.2400000000000         3.056949037567147E-019
  -85.0500000000000         1.607925092197052E-019
  -84.8600000000000        -1.809616964481513E-019
  -84.6700000000000        -3.952948155885354E-019
  -84.4800000000000        -2.703835224465544E-019
  -84.2900000000000         8.954248592403697E-020
  -84.1000000000000         3.608746916454796E-019
  -83.9100000000000         3.060005640027498E-019
  -83.7200000000000        -3.576973474818070E-021
  -83.5300000000000        -2.584382928503598E-019
  -83.3400000000000        -2.080468124220831E-019
  -83.1500000000000         9.984991465037370E-020
  -82.9600000000000         3.649583422577381E-019
  -82.7700000000000         3.215370649612437E-019
  -82.5800000000000        -6.937926409959776E-021
  -82.3900000000000        -3.287624829668558E-019
  -82.2000000000000        -3.607576997165351E-019
  -82.0100000000000        -9.631894113606129E-020
  -81.8200000000000         1.911880791006959E-019
  -81.6300000000000         2.123860994074535E-019
  -81.4400000000000        -5.924685102666942E-020
  -81.2500000000000        -3.599943959057528E-019
  -81.0600000000000        -3.867315168783321E-019
  -80.8700000000000        -8.736922335642247E-020
  -80.6800000000000         2.863006113813712E-019
  -80.4900000000000         4.145274371492192E-019
  -80.3000000000000         2.095781626623433E-019
  -80.1100000000000        -1.061929863495172E-019
  -79.9200000000000        -2.175317133828521E-019
  -79.7300000000000        -1.985942783190331E-020
  -79.5400000000000         2.812766766314381E-019
  -79.3500000000000         3.696604763952675E-019
  -79.1600000000000         1.258717995736228E-019
  -78.9700000000000        -2.518551017981654E-019
  -78.7800000000000        -4.305814311822382E-019
  -78.5900000000000        -2.563059449194287E-019
  -78.4000000000000         1.005501594461461E-019
  -78.2100000000000         3.065563696601356E-019
  -78.0200000000000         1.796472303873964E-019
  -77.8300000000000        -1.423804934285973E-019
  -77.6400000000000        -3.379414068024567E-019
  -77.4500000000000        -2.109709261268957E-019
  -77.2600000000000         1.218557851525482E-019
  -77.0700000000000         3.441926666291063E-019
  -76.8800000000000         2.446779271404973E-019
  -76.6900000000000        -7.896101206892583E-020
  -76.5000000000000        -3.124404418582691E-019
  -76.3100000000000        -2.259408318433664E-019
  -76.1200000000000         1.043520798068046E-019
  -75.9300000000000         3.662796114800699E-019
  -75.7400000000000         3.072448921879685E-019
  -75.5500000000000        -2.575736958534167E-020
  -75.3600000000000        -3.302335151921940E-019
  -75.1700000000000        -3.348368632724662E-019
  -74.9800000000000        -5.547495453765735E-020
  -74.7900000000000         2.235733794282004E-019
  -74.6000000000000         2.250229924931719E-019
  -74.4100000000000        -5.378598362453252E-020
  -74.2200000000000        -3.375830815147733E-019
  -74.0300000000000        -3.374738056795360E-019
  -73.8400000000000        -3.011393048163728E-020
  -73.6500000000000         3.156196898028345E-019
  -73.4600000000000         3.914312383380785E-019
  -73.2700000000000         1.418705425580511E-019
  -73.0800000000000        -1.829307395475142E-019
  -72.8900000000000        -2.653062446757554E-019
  -72.7000000000000        -2.244965663689798E-020
  -72.5100000000000         3.147503820896617E-019
  -72.3200000000000         4.208291178555104E-019
  -72.1300000000000         1.837477827519707E-019
  -71.9400000000000        -1.905653263014228E-019
  -71.7500000000000        -3.750101354365035E-019
  -71.5600000000000        -2.308599007868342E-019
  -71.3700000000000         6.512530704967790E-020
  -71.1800000000000         1.964921142760870E-019
  -70.9900000000000         1.637091989821002E-020
  -70.8000000000000        -3.069820105592417E-019
  -70.6100000000000        -4.485816181415737E-019
  -70.4200000000000        -2.382603138149344E-019
  -70.2300000000000         1.718464271862316E-019
  -70.0400000000000         4.441668375411937E-019
  -69.8500000000000         3.680760013255187E-019
  -69.6600000000000         5.209360586393173E-020
  -69.4700000000000        -1.858100447495466E-019
  -69.2800000000000        -1.240877319495771E-019
  -69.0900000000000         1.530582217259192E-019
  -68.9000000000000         3.425023260555162E-019
  -68.7100000000000         2.203887401927857E-019
  -68.5200000000000        -1.356161402753960E-019
  -68.3300000000000        -4.142156250502455E-019
  -68.1400000000000        -3.648753637236865E-019
  -67.9500000000000        -3.789840620985940E-020
  -67.7600000000000         2.601736177937173E-019
  -67.5700000000000         2.552505497675906E-019
  -67.3800000000000        -3.578421403991081E-020
  -67.1900000000000        -3.231231701869317E-019
  -67.0000000000000        -3.211185481702776E-019
  -66.8100000000000        -1.983146338828669E-020
  -66.6200000000000         3.070577649996270E-019
  -66.4300000000000         3.637752422347569E-019
  -66.2400000000000         1.129684943879655E-019
  -66.0500000000000        -1.920889846304026E-019
  -65.8600000000000        -2.533631260690536E-019
  -65.6700000000000        -1.596903111219630E-020
  -65.4800000000000         2.783140360440831E-019
  -65.2900000000000         3.238849995005546E-019
  -65.1000000000000         4.773771727261613E-020
  -64.9100000000000        -3.147072430531466E-019
  -64.7200000000000        -4.380599901834588E-019
  -64.5300000000000        -2.129037397543409E-019
  -64.3400000000000         1.511472766535717E-019
  -64.1500000000000         3.234505607273752E-019
  -63.9600000000000         1.637330389371926E-019
  -63.7700000000000        -1.490152162895026E-019
  -63.5800000000000        -2.924361075515469E-019
  -63.3900000000000        -1.126459229786904E-019
  -63.2000000000000         2.268138193075838E-019
  -63.0100000000000         4.015461872006139E-019
  -62.8200000000000         2.384739512519960E-019
  -62.6300000000000        -1.152561482396560E-019
  -62.4400000000000        -3.292521083095598E-019
  -62.2500000000000        -2.037066550421877E-019
  -62.0600000000000         1.387095226082142E-019
  -61.8700000000000         3.669601117322086E-019
  -61.6800000000000         2.543814043975334E-019
  -61.4900000000000        -1.072301258495535E-019
  -61.3000000000000        -3.952582991919444E-019
  -61.1100000000000        -3.608577542350198E-019
  -60.9200000000000        -6.020926208644090E-020
  -60.7300000000000         2.059299338802418E-019
  -60.5400000000000         1.840547800664790E-019
  -60.3500000000000        -8.890849647477539E-020
  -60.1600000000000        -3.234858705401971E-019
  -59.9700000000000        -2.596413894699234E-019
  -59.7800000000000         7.815356677897702E-020
  -59.5900000000000         3.981496982586159E-019
  -59.4000000000000         4.153521974320522E-019
  -59.2100000000000         1.212350662145562E-019
  -59.0200000000000        -2.077138511231308E-019
  -58.8300000000000        -2.708255652675342E-019
  -58.6400000000000        -2.588986572745982E-020
  -58.4500000000000         2.745114409070976E-019
  -58.2600000000000         3.268758695294913E-019
  -58.0700000000000         6.775099585469647E-020
  -57.8800000000000        -2.662741147526695E-019
  -57.6900000000000        -3.664270769861469E-019
  -57.5000000000000        -1.485061274538807E-019
  -57.3100000000000         1.661934693539252E-019
  -57.1200000000000         2.636563500360113E-019
  -56.9300000000000         4.039570488436246E-020
  -56.7400000000000        -2.933282245107157E-019
  -56.5500000000000        -4.108789633034437E-019
  -56.3600000000000        -1.805582083699788E-019
  -56.1700000000000         2.061930685225344E-019
  -55.9800000000000         4.130110996074027E-019
  -55.7900000000000         2.737943721729346E-019
  -55.6000000000000        -5.525382609586621E-020
  -55.4100000000000        -2.501513901811955E-019
  -55.2200000000000        -1.308194512443040E-019
  -55.0300000000000         1.683739924499207E-019
  -54.8400000000000         3.316108467009682E-019
  -54.6500000000000         1.701026959680828E-019
  -54.4600000000000        -1.903082868880686E-019
  -54.2700000000000        -4.237307644608826E-019
  -54.0800000000000        -3.128774716228927E-019
  -53.8900000000000         4.288258175772279E-020
  -53.7000000000000         3.192418025869387E-019
  -53.5100000000000         2.718954392669096E-019
  -53.3200000000000        -3.456639712179185E-020
  -53.1300000000000        -2.907213699850805E-019
  -52.9400000000000        -2.383507859653510E-019
  -52.7500000000000         8.274176935003914E-020
  -52.5600000000000         3.719738729458886E-019
  -52.3700000000000         3.540416185015389E-019
  -52.1800000000000         4.121361928932319E-020
  -51.9900000000000        -2.781439270275018E-019
  -51.8000000000000        -3.135422053825958E-019
  -51.6100000000000        -4.756466614184265E-020
  -51.4200000000000         2.495932951105493E-019
  -51.2300000000000         2.797540707296920E-019
  -51.0400000000000         3.073291621723708E-021
  -50.8500000000000        -3.222303731250012E-019
  -50.6600000000000        -3.852066155691027E-019
  -50.4700000000000        -1.186194351252486E-019
  -50.2800000000000         2.365145321633801E-019
  -50.0900000000000         3.592570312202646E-019
  -49.9000000000000         1.511208541732106E-019
  -49.7100000000000        -1.755364618995660E-019
  -49.5200000000000        -3.051772440443779E-019
  -49.3300000000000        -1.222174740592405E-019
  -49.1400000000000         1.808955092642779E-019
  -48.9500000000000         2.934368758844071E-019
  -48.7600000000000         9.071346832300166E-020
  -48.5700000000000        -2.407146916705725E-019
  -48.3800000000000        -3.785990599733862E-019
  -48.1900000000000        -1.738553553718867E-019
  -48.0000000000000         2.030651200923074E-019
  -47.8100000000000         4.190080245816883E-019
  -47.6200000000000         2.898958787798832E-019
  -47.4300000000000        -4.833821744220162E-020
  -47.2400000000000        -2.719401301647383E-019
  -47.0500000000000        -1.788257809839734E-019
  -46.8600000000000         1.197281482786386E-019
  -46.6700000000000         3.084628126085607E-019
  -46.4800000000000         1.742070524481053E-019
  -46.2900000000000        -1.842624593878094E-019
  -46.1000000000000        -4.441054976768023E-019
  -45.9100000000000        -3.618124324740512E-019
  -45.7200000000000        -4.320899239068650E-021
  -45.5300000000000         3.121315242170776E-019
  -45.3400000000000         3.183294405920501E-019
  -45.1500000000000         4.257414146192265E-020
  -44.9600000000000        -2.226552962168181E-019
  -44.7700000000000        -2.051653107341612E-019
  -44.5800000000000         8.413822394611816E-020
  -44.3900000000000         3.615672806024594E-019
  -44.2000000000000         3.435407768408257E-019
  -44.0100000000000         2.051110356631491E-020
  -43.8200000000000        -3.300100721610095E-019
  -43.6300000000000        -4.039717227357154E-019
  -43.4400000000000        -1.564465823128489E-019
  -43.2500000000000         1.600293752848533E-019
  -43.0600000000000         2.404071646265994E-019
  -42.8700000000000         2.007291865148757E-020
  -42.6800000000000        -2.650547648619475E-019
  -42.4900000000000        -3.083061936974068E-019
  -42.3000000000000        -3.130147643785665E-020
  -42.1100000000000         3.342288967217096E-019
  -41.9200000000000         4.611034666122908E-019
  -41.7300000000000         2.348327962668608E-019
  -41.5400000000000        -1.373592971633091E-019
  -41.3500000000000        -3.209186264427133E-019
  -41.1600000000000        -1.677440791220058E-019
  -40.9700000000000         1.484207129462598E-019
  -40.7800000000000         3.027163392584957E-019
  -40.5900000000000         1.321410718422615E-019
  -40.4000000000000        -2.077479886373618E-019
  -40.2100000000000        -3.912531417248591E-019
  -40.0200000000000        -2.344292837543102E-019
  -39.8300000000000         1.267614636409059E-019
  -39.6400000000000         3.624008497461012E-019
  -39.4500000000000         2.594503474015568E-019
  -39.2600000000000        -7.856293498197494E-020
  -39.0700000000000        -3.329912610002579E-019
  -38.8800000000000        -2.744390702416108E-019
  -38.6900000000000         2.164409422905562E-020
  -38.5000000000000         2.533034683662213E-019
  -38.3100000000000         1.872804335812924E-019
  -38.1200000000000        -1.132318476258506E-019
  -37.9300000000000        -3.474779948138357E-019
  -37.7400000000000        -2.668568711675185E-019
  -37.5500000000000         8.257002597492860E-020
  -37.3600000000000         3.985820404729317E-019
  -37.1700000000000         4.066725226339734E-019
  -36.9800000000000         1.179589467997778E-019
  -36.7900000000000        -1.852379684047802E-019
  -36.6000000000000        -2.216798080304110E-019
  -36.4100000000000         1.927803339863047E-020
  -36.2200000000000         2.687677789438028E-019
  -36.0300000000000         2.395150485273560E-019
  -35.8400000000000        -9.172237529013715E-020
  -35.6500000000000        -4.512783785907235E-019
  -35.4600000000000        -5.196476803336906E-019
  -35.2700000000000        -2.300190922439136E-019
  -35.0800000000000         1.684821818617257E-019
  -34.8900000000000         3.427507747377479E-019
  -34.7000000000000         1.834233192044159E-019
  -34.5100000000000        -1.018000588425002E-019
  -34.3200000000000        -1.955602141593821E-019
  -34.1300000000000         1.985524549009592E-020
  -33.9400000000000         3.467141350659643E-019
  -33.7500000000000         4.604422679312375E-019
  -33.5600000000000         2.224449858052457E-019
  -33.3700000000000        -1.823312380788551E-019
  -33.1800000000000        -4.150588053971256E-019
  -32.9900000000000        -2.983064750758900E-019
  -32.8000000000000         2.292954538144826E-020
  -32.6100000000000         2.261974087569283E-019
  -32.4200000000000         1.223544669906202E-019
  -32.2300000000000        -1.655957413947336E-019
  -32.0400000000000        -3.262651543177904E-019
  -31.8500000000000        -1.662278424786307E-019
  -31.6600000000000         1.967577415533439E-019
  -31.4700000000000         4.405232430715910E-019
  -31.2800000000000         3.435026085881382E-019
  -31.0900000000000        -4.076664973330818E-021
  -30.9000000000000        -2.849338478310528E-019
  -30.7100000000000        -2.549257959486395E-019
  -30.5200000000000         2.715962419814810E-020
  -30.3300000000000         2.592908627442277E-019
  -30.1400000000000         1.887621120075080E-019
  -29.9500000000000        -1.416293613984628E-019
  -29.7600000000000        -4.296640175295672E-019
  -29.5700000000000        -3.988220035434135E-019
  -29.3800000000000        -6.159345571958059E-020
  -29.1900000000000         2.892252922300616E-019
  -29.0000000000000         3.532124508772237E-019
  -28.8100000000000         1.010460886174407E-019
  -28.6200000000000        -2.039504746861059E-019
  -28.4300000000000        -2.606179367228870E-019
  -28.2400000000000        -1.772774215233093E-020
  -28.0500000000000         2.798838896865068E-019
  -27.8600000000000         3.301083492433260E-019
  -27.6700000000000         6.754854833676798E-020
  -27.4800000000000        -2.696740460174380E-019
  -27.2900000000000        -3.647062739307717E-019
  -27.1000000000000        -1.237144681008235E-019
  -26.9100000000000         2.336375815059686E-019
  -26.7200000000000         3.817345754860975E-019
  -26.5300000000000         1.966860054216218E-019
  -26.3400000000000        -1.298572661820388E-019
  -26.1500000000000        -2.791338823167801E-019
  -25.9600000000000        -1.141076593734244E-019
  -25.7700000000000         1.886169645321710E-019
  -25.5800000000000         3.105669550894545E-019
  -25.3900000000000         1.018175724611453E-019
  -25.2000000000000        -2.680091062230639E-019
  -25.0100000000000        -4.643355675411158E-019
  -24.8200000000000        -3.025426966708693E-019
  -24.6300000000000         7.595616876874811E-020
  -24.4400000000000         3.349800249994493E-019
  -24.2500000000000         2.585778864390820E-019
  -24.0600000000000        -4.900957263619809E-020
  -23.8700000000000        -2.675914993599631E-019
  -23.6800000000000        -1.691764033405818E-019
  -23.4900000000000         1.632541029886962E-019
  -23.3000000000000         4.137289192445759E-019
  -23.1100000000000         3.335954791197272E-019
  -22.9200000000000        -2.104931067292234E-020
  -22.7300000000000        -3.404427086249987E-019
  -22.5400000000000        -3.522304470949276E-019
  -22.3500000000000        -7.544014645856167E-020
  -22.1600000000000         2.039439696629173E-019
  -21.9700000000000         2.106657349696470E-019
  -21.7800000000000        -5.556755566419249E-020
  -21.5900000000000        -3.217750514951257E-019
  -21.4000000000000        -3.067287326834294E-019
  -21.2100000000000         5.089050355665328E-021
  -21.0200000000000         3.437249848286643E-019
  -20.8300000000000         4.082254146003495E-019
  -20.6400000000000         1.520664407527589E-019
  -20.4500000000000        -1.742493244886743E-019
  -20.2600000000000        -2.642587742000123E-019
  -20.0700000000000        -4.863217085471057E-020
  -19.8800000000000         2.408428634920486E-019
  -19.6900000000000         2.973698658245302E-019
  -19.5000000000000         3.846382073921219E-020
  -19.3100000000000        -3.087762500090074E-019
  -19.1200000000000        -4.199127173902741E-019
  -18.9300000000000        -1.820724391941128E-019
  -18.7400000000000         1.951690472629537E-019
  -18.5500000000000         3.739899664665550E-019
  -18.3600000000000         2.040250757646363E-019
  -18.1700000000000        -1.396451262412940E-019
  -17.9800000000000        -3.260136733713092E-019
  -17.7900000000000        -1.831440708268241E-019
  -17.6000000000000         1.403515193424202E-019
  -17.4100000000000         3.199194152702606E-019
  -17.2200000000000         1.676314283903286E-019
  -17.0300000000000        -1.852500028319595E-019
  -16.8400000000000        -4.102129100303028E-019
  -16.6500000000000        -2.920836655538442E-019
  -16.4600000000000         6.765518921194447E-020
  -16.2700000000000         3.479161628347048E-019
  -16.0800000000000         3.117802925079086E-019
  -15.8900000000000         2.709301739265966E-020
  -15.7000000000000        -2.054899587925263E-019
  -15.5100000000000        -1.466886995876257E-019
  -15.3200000000000         1.478254389308442E-019
  -15.1300000000000         3.795310995009560E-019
  -14.9400000000000         2.956545113410403E-019
  -14.7500000000000        -6.305981141380820E-020
  -14.5600000000000        -3.944253707825471E-019
  -14.3700000000000        -4.173410731971973E-019
  -14.1800000000000        -1.353130104946074E-019
  -13.9900000000000         1.702740165232260E-019
  -13.8000000000000         2.104414091360172E-019
  -13.6100000000000        -3.555751978565799E-020
  -13.4200000000000        -3.024180974344008E-019
  -13.2300000000000        -2.963625387278979E-019
  -13.0400000000000         1.816393008768853E-020
  -12.8500000000000         3.775407711349913E-019
  -12.6600000000000         4.640536139884228E-019
  -12.4700000000000         2.043832019243718E-019
  -12.2800000000000        -1.617037533924765E-019
  -12.0900000000000        -3.071957752911684E-019
  -11.9000000000000        -1.240067602920265E-019
  -11.7100000000000         1.802733027925017E-019
  -11.5200000000000         2.858140662223967E-019
  -11.3300000000000         6.957134610959636E-020
  -11.1400000000000        -2.751428618468646E-019
  -10.9500000000000        -4.224440812342906E-019
  -10.7600000000000        -2.249898614384542E-019
  -10.5700000000000         1.446982094871818E-019
  -10.3800000000000         3.570622630059667E-019
  -10.1900000000000         2.367516802564470E-019
  -10.0000000000000        -7.449680492977463E-020
  -9.81000000000000        -2.583707602781176E-019
  -9.62000000000000        -1.288957341592204E-019
  -9.42999999999999         1.870353049096728E-019
  -9.23999999999999         3.716597133512193E-019
  -9.05000000000000         2.241871291224892E-019
  -8.86000000000000        -1.414354712585533E-019
  -8.67000000000000        -3.995946763841052E-019
  -8.48000000000000        -3.196357682057250E-019
  -8.28999999999999         1.598085757870130E-020
  -8.09999999999999         2.901121314521532E-019
  -7.91000000000000         2.517401468741163E-019
  -7.72000000000000        -4.727157410067722E-020
  -7.53000000000000        -3.051702556568241E-019
  -7.34000000000000        -2.619152330897575E-019
  -7.15000000000001         4.994046536228159E-020
  -6.95999999999999         3.350377172940640E-019
  -6.77000000000000         3.171170871025573E-019
  -6.58000000000000         4.278712058622337E-021
  -6.39000000000000        -3.150739829760725E-019
  -6.20000000000000        -3.425729471343097E-019
  -6.01000000000001        -5.073712914088505E-020
  -5.81999999999999         2.918261460895510E-019
  -5.63000000000000         3.744165137304952E-019
  -5.44000000000000         1.355619748550726E-019
  -5.25000000000000        -1.848622929443089E-019
  -5.06000000000000        -2.800568047212620E-019
  -4.87000000000000        -7.146263346223299E-020
  -4.67999999999999         2.176035193019420E-019
  -4.48999999999999         2.795732881850286E-019
  -4.30000000000000         2.275959593208478E-020
  -4.11000000000000        -3.342945658557535E-019
  -3.92000000000000        -4.665256007732796E-019
  -3.73000000000000        -2.506173726489969E-019
  -3.53999999999999         1.172107805353284E-019
  -3.34999999999999         3.072137698710776E-019
  -3.16000000000000         1.683296893236785E-019
  -2.97000000000000        -1.315354624114977E-019
  -2.78000000000000        -2.705454153746439E-019
  -2.59000000000000        -8.508423043627056E-020
  -2.40000000000001         2.696596749135352E-019
  -2.20999999999999         4.649868716076441E-019
  -2.02000000000000         3.118475893428059E-019
  -1.83000000000000        -5.745240759636521E-020
  -1.64000000000000        -3.131822157491447E-019
  -1.45000000000000        -2.396455906115426E-019
  -1.26000000000001         6.286189188300856E-020
  -1.06999999999999         2.774615004561121E-019
 -0.879999999999995         1.760448885278820E-019
 -0.689999999999998        -1.603702420370083E-019
 -0.500000000000000        -4.162556782744560E-019
 -0.310000000000002        -3.407753215370892E-019
 -0.120000000000005         1.280308143129498E-020
  7.000000000000739E-002    3.354119514871114E-019
  0.260000000000005         3.520665976342350E-019
  0.450000000000003         7.730587052534259E-020
  0.640000000000001        -2.057766350791119E-019
  0.829999999999998        -2.206166084089748E-019
   1.02000000000000         3.746064255180659E-020
   1.21000000000001         2.990637808499692E-019
   1.40000000000001         2.835404344736340E-019
   1.59000000000000        -2.528057590192923E-020
   1.78000000000000        -3.561577239313568E-019
   1.97000000000000        -4.046761155749901E-019
   2.16000000000000        -1.227323456275959E-019
   2.34999999999999         2.335987925413369E-019
   2.54000000000001         3.441954745100018E-019
   2.73000000000000         1.247642190925656E-019
   2.92000000000000        -1.982474901372329E-019
   3.11000000000000        -3.078279953939936E-019
   3.30000000000000        -1.007400037936586E-019
   3.48999999999999         2.150179779506594E-019
   3.68000000000001         3.226977312869571E-019
   3.87000000000000         1.046445279234821E-019
   4.06000000000000        -2.404369297967765E-019
   4.25000000000000        -3.840360581504878E-019
   4.44000000000000        -1.805504536928260E-019
   4.63000000000000         1.919203677613456E-019
   4.82000000000001         3.970837233405182E-019
   5.01000000000001         2.557035285335457E-019
   5.20000000000000        -8.811316414699147E-020
   5.39000000000000        -3.068392634731889E-019
   5.58000000000000        -2.016264045855508E-019
   5.77000000000000         1.111454128827096E-019
   5.96000000000001         3.157891217720859E-019
   6.15000000000001         2.031132512092332E-019
   6.34000000000000        -1.271855859440278E-019
   6.53000000000000        -3.609522222340181E-019