  -105.000000000000         0.000000000000000E+000
  -104.810000000000         1.436862705140322E-020
  -104.620000000000         3.962051816330836E-020
  -104.430000000000         6.995650675772937E-020
  -104.240000000000         9.888862448438777E-020
  -104.050000000000         1.210462924640802E-019
  -103.860000000000         1.336434960711124E-019
  -103.670000000000         1.371853577516837E-019
  -103.480000000000         1.352137034816392E-019
  -103.290000000000         1.331706606639017E-019
  -103.100000000000         1.367154243839801E-019
  -102.910000000000         1.499872775727037E-019
  -102.720000000000         1.743219833063220E-019
  -102.530000000000         2.077954203964198E-019
  -102.340000000000         2.457272519216410E-019
  -102.150000000000         2.819986072032657E-019
  -101.960000000000         3.108015552515296E-019
  -101.770000000000         3.283124078163008E-019
  -101.580000000000         3.338019597292509E-019
  -101.390000000000         3.298580618370645E-019
  -101.200000000000         3.216530533665375E-019
  -101.010000000000         3.154661991174418E-019
  -100.820000000000         3.168883258184939E-019
  -100.630000000000         3.292285051430919E-019
  -100.440000000000         3.525836154489253E-019
  -100.250000000000         3.838385121734436E-019
  -100.060000000000         4.175942391874961E-019
  -99.8700000000000         4.477531112456271E-019
  -99.6800000000000         4.693002034490976E-019
  -99.4900000000000         4.797649134247369E-019
  -99.3000000000000         4.799394152248569E-019
  -99.1100000000000         4.736460691378651E-019
  -98.9200000000000         4.666214290814908E-019
  -98.7300000000000         4.648410398872325E-019
  -98.5400000000000         4.727722018842351E-019
  -98.3500000000000         4.920633316873627E-019
  -98.1600000000000         5.210516830179461E-019
  -97.9700000000000         5.552329006630555E-019
  -97.7800000000000         5.885559149535455E-019
  -97.5900000000000         6.151668693678946E-019
  -97.4000000000000         6.310957757108619E-019
  -97.2100000000000         6.353966617804857E-019
  -97.0200000000000         6.304106285699451E-019
  -96.8300000000000         6.210754032963100E-019
  -96.6400000000000         6.134814156040973E-019
  -96.4500000000000         6.130933930394823E-019
  -96.2600000000000         6.231543335998135E-019
  -96.0700000000000         6.437364771541088E-019
  -95.8800000000000         6.717161680234506E-019
  -95.6900000000000         7.016807157377359E-019
  -95.5000000000000         7.275040255818948E-019
  -95.3100000000000         7.441332286232634E-019
  -95.1200000000000         7.490673725948926E-019
  -94.9300000000000         7.430987091100851E-019
  -94.7400000000000         7.301007049180685E-019
  -94.5500000000000         7.159226439102696E-019
  -94.3600000000000         7.067091899931504E-019
  -94.1700000000000         7.071302097565524E-019
  -93.9800000000000         7.190331729124614E-019
  -93.7900000000000         7.409091438363648E-019
  -93.6000000000000         7.683281571373840E-019
  -93.4100000000000         7.952185539929046E-019
  -93.2200000000000         8.156196746051909E-019
  -93.0300000000000         8.254000664164744E-019
  -92.8400000000000         8.234441980047073E-019
  -92.6500000000000         8.119659034051876E-019
  -92.4600000000000         7.958605052590258E-019
  -92.2700000000000         7.812857118740839E-019
  -92.0800000000000         7.738836039895249E-019
  -91.8900000000000         7.771587132938288E-019
  -91.7000000000000         7.914812375218129E-019
  -91.5100000000000         8.140031216913275E-019
  -91.3200000000000         8.395099956825050E-019
  -91.1300000000000         8.619600297523672E-019
  -90.9400000000000         8.762606757889660E-019
  -90.7500000000000         8.797647427448349E-019
  -90.5600000000000         8.730490257517869E-019
  -90.3700000000000         8.597479432895044E-019
  -90.1800000000000         8.454899866163871E-019
  -89.9900000000000         8.362457383670205E-019
  -89.8000000000000         8.365669931771395E-019
  -89.6100000000000         8.482280987991438E-019
  -89.4200000000000         8.696644639648307E-019
  -89.2300000000000         8.963729945754621E-019
  -89.0400000000000         9.221612606571318E-019
  -88.8500000000000         9.408865498781593E-019
  -88.6600000000000         9.481838454827634E-019
  -88.4700000000000         9.426848164260976E-019
  -88.2800000000000         9.263776426485601E-019
  -88.0900000000000         9.040070270445589E-019
  -87.9000000000000         8.816921732010698E-019
  -87.7100000000000         8.651665156016236E-019
  -87.5200000000000         8.581509905060971E-019
  -87.3300000000000         8.613319160134407E-019
  -87.1400000000000         8.722376429297940E-019
  -86.9500000000000         8.860465582541713E-019
  -86.7600000000000         8.970882444144892E-019
  -86.5700000000000         9.005976617559580E-019
  -86.3800000000000         8.942076671514915E-019
  -86.1900000000000         8.787402068430904E-019
  -86.0000000000000         8.580601207053129E-019
  -85.8100000000000         8.380288411339436E-019
  -85.6200000000000         8.248584429233263E-019
  -85.4300000000000         8.233421456841862E-019
  -85.2400000000000         8.354740154234428E-019
  -85.0500000000000         8.598579842774062E-019
  -84.8600000000000         8.920778544651358E-019
  -84.6700000000000         9.259223583946953E-019
  -84.4800000000000         9.551128092741587E-019
  -84.2900000000000         9.750361397864981E-019
  -84.1000000000000         9.839846658471617E-019
  -83.9100000000000         9.835464064728004E-019
  -83.7200000000000         9.780357073053273E-019
  -83.5300000000000         9.731324978072035E-019
  -83.3400000000000         9.741287688112495E-019
  -83.1500000000000         9.842952848860487E-019
  -82.9600000000000         1.003846393468324E-018
  -82.7700000000000         1.029806309664144E-018
  -82.5800000000000         1.056817635525406E-018
  -82.3900000000000         1.078658905217440E-018
  -82.2000000000000         1.090032210771741E-018
  -82.0100000000000         1.088103634124374E-018
  -81.8200000000000         1.073350389872134E-018
  -81.6300000000000         1.049468504982742E-018
  -81.4400000000000         1.022366013572442E-018
  -81.2500000000000         9.985309464050867E-019
  -81.0600000000000         9.832443184019780E-019
  -80.8700000000000         9.791530274276375E-019
  -80.6800000000000         9.856126644001172E-019
  -80.4900000000000         9.989861119776270E-019
  -80.3000000000000         1.013806019656209E-018
  -80.1100000000000         1.024458971673058E-018
  -79.9200000000000         1.026899016507737E-018
  -79.7300000000000         1.019891062298908E-018
  -79.5400000000000         1.005421785426415E-018
  -79.3500000000000         9.881572588260835E-019
  -79.1600000000000         9.741029879334651E-019
  -78.9700000000000         9.688539239581966E-019
  -78.7800000000000         9.759422111362821E-019
  -78.5900000000000         9.957635731805907E-019
  -78.4000000000000         1.025396459608390E-018
  -78.2100000000000         1.059369505218989E-018
  -78.0200000000000         1.091157960096049E-018
  -77.8300000000000         1.114978905740052E-018
  -77.6400000000000         1.127369570029436E-018
  -77.4500000000000         1.128097107476742E-018
  -77.2600000000000         1.120142417827967E-018
  -77.0700000000000         1.108768197224239E-018
  -76.8800000000000         1.099945168249480E-018
  -76.6900000000000         1.098594670609172E-018
  -76.5000000000000         1.107157757520145E-018
  -76.3100000000000         1.124905480713007E-018
  -76.1200000000000         1.148189123324310E-018
  -75.9300000000000         1.171554800157857E-018
  -75.7400000000000         1.189393876246763E-018
  -75.5500000000000         1.197643329976928E-018
  -75.3600000000000         1.195035009511089E-018
  -75.1700000000000         1.183524306079654E-018
  -74.9800000000000         1.167768400905212E-018
  -74.7900000000000         1.153801698014736E-018
  -74.6000000000000         1.147290578227652E-018
  -74.4100000000000         1.151873457485906E-018
  -74.2200000000000         1.168069656842997E-018
  -74.0300000000000         1.193078005501354E-018
  -73.8400000000000         1.221529786783505E-018
  -73.6500000000000         1.246984350699350E-018
  -73.4600000000000         1.263739662652799E-018
  -73.2700000000000         1.268437538527092E-018
  -73.0800000000000         1.261001850844752E-018
  -72.8900000000000         1.244640810829668E-018
  -72.7000000000000         1.224915238713560E-018
  -72.5100000000000         1.208144471158911E-018
  -72.3200000000000         1.199611912617874E-018
  -72.1300000000000         1.202088474347960E-018
  -71.9400000000000         1.215098497052416E-018
  -71.7500000000000         1.235136517732052E-018
  -71.5600000000000         1.256766819587418E-018
  -71.3700000000000         1.274280887467710E-018
  -71.1800000000000         1.283425188245635E-018
  -70.9900000000000         1.282690874656908E-018
  -70.8000000000000         1.273784842063977E-018
  -70.6100000000000         1.261141140810621E-018
  -70.4200000000000         1.250612879942919E-018
  -70.2300000000000         1.247724880823579E-018
  -70.0400000000000         1.255996303510247E-018
  -69.8500000000000         1.275823232968611E-018
  -69.6600000000000         1.304250128629988E-018
  -69.4700000000000         1.335703220107654E-018
  -69.2800000000000         1.363482114896416E-018
  -69.0900000000000         1.381587323613519E-018
  -68.9000000000000         1.386363716829526E-018
  -68.7100000000000         1.377491564390123E-018
  -68.5200000000000         1.358043635902134E-018
  -68.3300000000000         1.333595419938379E-018
  -68.1400000000000         1.310648047434356E-018
  -67.9500000000000         1.294820551339983E-018
  -67.7600000000000         1.289332228353478E-018
  -67.5700000000000         1.294208745481942E-018
  -67.3800000000000         1.306433254686134E-018
  -67.1900000000000         1.320988423709120E-018
  -67.0000000000000         1.332476905282844E-018
  -66.8100000000000         1.336840755755634E-018
  -66.6200000000000         1.332672544055850E-018
  -66.4300000000000         1.321730357297309E-018
  -66.2400000000000         1.308501352054655E-018
  -66.0500000000000         1.298936799081223E-018
  -65.8600000000000         1.298724744534278E-018
  -65.6700000000000         1.311603126492520E-018
  -65.4800000000000         1.338205946198855E-018
  -65.2900000000000         1.375780649250499E-018
  -65.1000000000000         1.418861655001166E-018
  -64.9100000000000         1.460707421425734E-018
  -64.7200000000000         1.495087615504157E-018
  -64.5300000000000         1.517906753688001E-018
  -64.3400000000000         1.528199610844062E-018
  -64.1500000000000         1.528217205249677E-018
  -63.9600000000000         1.522587002251239E-018
  -63.7700000000000         1.516800403727722E-018
  -63.5800000000000         1.515476243372679E-018
  -63.3900000000000         1.520913526438686E-018
  -63.2000000000000         1.532360762568449E-018
  -63.0100000000000         1.546218016018042E-018
  -62.8200000000000         1.557113521808864E-018
  -62.6300000000000         1.559540138687304E-018
  -62.4400000000000         1.549572957312426E-018
  -62.2500000000000         1.526165157024787E-018
  -62.0600000000000         1.491640804412140E-018
  -61.8700000000000         1.451234820021534E-018
  -61.6800000000000         1.411804822889535E-018
  -61.4900000000000         1.380078156888769E-018
  -61.3000000000000         1.360931562730306E-018
  -61.1100000000000         1.356191773541772E-018
  -60.9200000000000         1.364294971400409E-018
  -60.7300000000000         1.380894832964084E-018
  -60.5400000000000         1.400234977889691E-018
  -60.3500000000000         1.416881868746986E-018
  -60.1600000000000         1.427312457499048E-018
  -59.9700000000000         1.430896173110385E-018
  -59.7800000000000         1.429989205740325E-018
  -59.5900000000000         1.429118165754836E-018
  -59.4000000000000         1.433495228933975E-018
  -59.2100000000000         1.447301975375117E-018
  -59.0200000000000         1.472248553316389E-018
  -58.8300000000000         1.506838264413534E-018
  -58.6400000000000         1.546566194346843E-018
  -58.4500000000000         1.585011075607967E-018
  -58.2600000000000         1.615519480185476E-018
  -58.0700000000000         1.633006369270524E-018
  -57.8800000000000         1.635357735249489E-018
  -57.6900000000000         1.624031604309762E-018
  -57.5000000000000         1.603681360497943E-018
  -57.3100000000000         1.580904238526511E-018
  -57.1200000000000         1.562467315359674E-018
  -56.9300000000000         1.553511676812395E-018
  -56.7400000000000         1.556240184180914E-018
  -56.5500000000000         1.569454127910873E-018
  -56.3600000000000         1.589059267145066E-018
  -56.1700000000000         1.609382777554152E-018
  -55.9800000000000         1.624910161460595E-018
  -55.7900000000000         1.631932833044952E-018
  -55.6000000000000         1.629627362644171E-018
  -55.4100000000000         1.620257029099679E-018
  -55.2200000000000         1.608445120131595E-018
  -55.0300000000000         1.599741235820421E-018
  -54.8400000000000         1.598907511048774E-018
  -54.6500000000000         1.608432042140454E-018
  -54.4600000000000         1.627709506909590E-018
  -54.2700000000000         1.653134204307079E-018
  -54.0800000000000         1.679084970267649E-018
  -53.8900000000000         1.699521176317532E-018
  -53.7000000000000         1.709729390611993E-018
  -53.5100000000000         1.707713699875799E-018
  -53.3200000000000         1.694823456218706E-018
  -53.1300000000000         1.675431628937269E-018
  -52.9400000000000         1.655751189511798E-018
  -52.7500000000000         1.642125851169623E-018
  -52.5600000000000         1.639282428717792E-018
  -52.3700000000000         1.649041698421766E-018
  -52.1800000000000         1.669851202036586E-018
  -51.9900000000000         1.697266540899029E-018
  -51.8000000000000         1.725235924009261E-018
  -51.6100000000000         1.747813787819884E-018
  -51.4200000000000         1.760808394912074E-018
  -51.2300000000000         1.762890052214874E-018
  -51.0400000000000         1.755845037714932E-018
  -50.8500000000000         1.743910171995094E-018
  -50.6600000000000         1.732391973315493E-018
  -50.4700000000000         1.725983977511253E-018
  -50.2800000000000         1.727284378235648E-018
  -50.0900000000000         1.735957279538781E-018
  -49.9000000000000         1.748791539545233E-018
  -49.7100000000000         1.760646677513032E-018
  -49.5200000000000         1.766012791317698E-018
  -49.3300000000000         1.760727556165162E-018
  -49.1400000000000         1.743342254674749E-018
  -48.9500000000000         1.715726327697494E-018
  -48.7600000000000         1.682718950223671E-018
  -48.5700000000000         1.650913689580386E-018
  -48.3800000000000         1.626917421768779E-018
  -48.1900000000000         1.615581843128770E-018
  -48.0000000000000         1.618717747341287E-018
  -47.8100000000000         1.634664337006535E-018
  -47.6200000000000         1.658838469698046E-018
  -47.4300000000000         1.685104621898786E-018
  -47.2400000000000         1.707568654125722E-018
  -47.0500000000000         1.722276130844649E-018
  -46.8600000000000         1.728323934854613E-018
  -46.6700000000000         1.728063716423788E-018
  -46.4800000000000         1.726338388924085E-018
  -46.2900000000000         1.728973036531911E-018
  -46.1000000000000         1.740958502674682E-018
  -45.9100000000000         1.764856425858716E-018
  -45.7200000000000         1.799891628752833E-018
  -45.5300000000000         1.841999325404177E-018
  -45.3400000000000         1.884818330768237E-018
  -45.1500000000000         1.921348057869164E-018
  -44.9600000000000         1.945796242263280E-018
  -44.7700000000000         1.955091038695876E-018
  -44.5800000000000         1.949629830559522E-018
  -44.3900000000000         1.933058180210329E-018
  -44.2000000000000         1.911151520500514E-018
  -44.0100000000000         1.890129161890523E-018
  -43.8200000000000         1.874891403333547E-018
  -43.6300000000000         1.867689847113630E-018
  -43.4400000000000         1.867612894547983E-018
  -43.2500000000000         1.871029781231643E-018
  -43.0600000000000         1.872856522559447E-018
  -42.8700000000000         1.868267229614606E-018
  -42.6800000000000         1.854344274734132E-018
  -42.4900000000000         1.831178265823170E-018
  -42.3000000000000         1.802088049576007E-018
  -42.1100000000000         1.772885362345413E-018
  -41.9200000000000         1.750384769005710E-018
  -41.7300000000000         1.740578025796656E-018
  -41.5400000000000         1.746990496050053E-018
  -41.3500000000000         1.769687408600069E-018
  -41.1600000000000         1.805213465970931E-018
  -40.9700000000000         1.847483143468070E-018
  -40.7800000000000         1.889367691708631E-018
  -40.5900000000000         1.924527260436216E-018
  -40.4000000000000         1.948970360405254E-018
  -40.2100000000000         1.961906988766294E-018
  -40.0200000000000         1.965670644451512E-018
  -39.8300000000000         1.964756168115572E-018
  -39.6400000000000         1.964275199284116E-018
  -39.4500000000000         1.968295307341925E-018
  -39.2600000000000         1.978555934775034E-018
  -39.0700000000000         1.993937613629552E-018
  -38.8800000000000         2.010835195086893E-018
  -38.6900000000000         2.024316979838002E-018
  -38.5000000000000         2.029718123125878E-018
  -38.3100000000000         2.024187056622745E-018
  -38.1200000000000         2.007716312429206E-018
  -37.9300000000000         1.983340539874268E-018
  -37.7400000000000         1.956429996061044E-018
  -37.5500000000000         1.933274817412966E-018
  -37.3600000000000         1.919365325040818E-018
  -37.1700000000000         1.917865242080962E-018
  -36.9800000000000         1.928721845793899E-018
  -36.7900000000000         1.948675485993848E-018
  -36.6000000000000         1.972172970509061E-018
  -36.4100000000000         1.992929009245168E-018
  -36.2200000000000         2.005692039340701E-018
  -36.0300000000000         2.007709912698380E-018
  -35.8400000000000         1.999475622546746E-018
  -35.6500000000000         1.984539963848598E-018
  -35.4600000000000         1.968447345959785E-018
  -35.2700000000000         1.957104544842880E-018
  -35.0800000000000         1.955055844726733E-018
  -34.8900000000000         1.964164042139388E-018
  -34.7000000000000         1.983077934556553E-018
  -34.5100000000000         2.007638132486087E-018
  -34.3200000000000         2.032100760617097E-018
  -34.1300000000000         2.050821420414287E-018
  -33.9400000000000         2.059907956490712E-018
  -33.7500000000000         2.058358824699709E-018
  -33.5600000000000         2.048352376696072E-018
  -33.3700000000000         2.034598957527557E-018
  -33.1800000000000         2.022941291362720E-018
  -32.9900000000000         2.018609471756187E-018
  -32.8000000000000         2.024640049644371E-018
  -32.6100000000000         2.040923605844170E-018
  -32.4200000000000         2.064164662948169E-018
  -32.2300000000000         2.088774192487693E-018
  -32.0400000000000         2.108444593765498E-018
  -31.8500000000000         2.117957847541489E-018
  -31.6600000000000         2.114706992196383E-018
  -31.4700000000000         2.099489878613879E-018
  -31.2800000000000         2.076340591730753E-018
  -31.0900000000000         2.051439504013791E-018
  -30.9000000000000         2.031408511403209E-018
  -30.7100000000000         2.021476381952671E-018
  -30.5200000000000         2.024037861290966E-018
  -30.3300000000000         2.038017470620687E-018
  -30.1400000000000         2.059217553997802E-018
  -29.9500000000000         2.081547624802935E-018
  -29.7600000000000         2.098780496384078E-018
  -29.5700000000000         2.106332282321516E-018
  -29.3800000000000         2.102559717634803E-018
  -29.1900000000000         2.089209202380730E-018
  -29.0000000000000         2.070896429259577E-018
  -28.8100000000000         2.053773383468254E-018
  -28.6200000000000         2.043771477170535E-018
  -28.4300000000000         2.044929069308115E-018
  -28.2400000000000         2.058284017845488E-018
  -28.0500000000000         2.081644971710749E-018
  -27.8600000000000         2.110297390203308E-018
  -27.6700000000000         2.138427329177087E-018
  -27.4800000000000         2.160837975058154E-018
  -27.2900000000000         2.174451382960503E-018
  -27.1000000000000         2.179154209404645E-018
  -26.9100000000000         2.177741147109707E-018
  -26.7200000000000         2.174975910552771E-018
  -26.5300000000000         2.176049433757322E-018
  -26.3400000000000         2.184892977105447E-018
  -26.1500000000000         2.202848268428848E-018
  -25.9600000000000         2.228094305690175E-018
  -25.7700000000000         2.256010400493289E-018
  -25.5800000000000         2.280381489968132E-018
  -25.3900000000000         2.295104862693565E-018
  -25.2000000000000         2.295909687055510E-018
  -25.0100000000000         2.281595183896488E-018
  -24.8200000000000         2.254431092062264E-018
  -24.6300000000000         2.219604579289577E-018
  -24.4400000000000         2.183870908142725E-018
  -24.2500000000000         2.153792189428653E-018
  -24.0600000000000         2.134064510632249E-018
  -23.8700000000000         2.126405669009544E-018
  -23.6800000000000         2.129311774763022E-018
  -23.4900000000000         2.138738186443096E-018
  -23.3000000000000         2.149491696659592E-018
  -23.1100000000000         2.156914922007815E-018
  -22.9200000000000         2.158360986371556E-018
  -22.7300000000000         2.154021292894320E-018
  -22.5400000000000         2.146862273377266E-018
  -22.3500000000000         2.141691321404652E-018
  -22.1600000000000         2.143629828736584E-018
  -21.9700000000000         2.156447174347793E-018
  -21.7800000000000         2.181252927234350E-018
  -21.5900000000000         2.215943104378565E-018
  -21.4000000000000         2.255579139599563E-018
  -21.2100000000000         2.293607441594702E-018
  -21.0200000000000         2.323581006695047E-018
  -20.8300000000000         2.340894218152044E-018
  -20.6400000000000         2.344032397344098E-018
  -20.4500000000000         2.334972994505804E-018
  -20.2600000000000         2.318617123220097E-018
  -20.0700000000000         2.301408403989820E-018
  -19.8800000000000         2.289529825461969E-018
  -19.6900000000000         2.287190744471514E-018
  -19.5000000000000         2.295490303691298E-018
  -19.3100000000000         2.312178124436573E-018
  -19.1200000000000         2.332375796169060E-018
  -18.9300000000000         2.350047261347245E-018
  -18.7400000000000         2.359791658229812E-018
  -18.5500000000000         2.358440304798971E-018
  -18.3600000000000         2.345997190956353E-018
  -18.1700000000000         2.325653444354673E-018
  -17.9800000000000         2.302875511164930E-018
  -17.7900000000000         2.283835678968140E-018
  -17.6000000000000         2.273643433338887E-018
  -17.4100000000000         2.274891798314354E-018
  -17.2200000000000         2.286938797467828E-018
  -17.0300000000000         2.306128850298594E-018
  -16.8400000000000         2.326885516736688E-018
  -16.6500000000000         2.343354739584173E-018
  -16.4600000000000         2.351119026705264E-018
  -16.2700000000000         2.348483249540528E-018
  -16.0800000000000         2.336957661656916E-018
  -15.8900000000000         2.320797556999038E-018
  -15.7000000000000         2.305734051595365E-018
  -15.5100000000000         2.297266619074640E-018
  -15.3200000000000         2.299016108710147E-018
  -15.1300000000000         2.311619547506853E-018
  -14.9400000000000         2.332490454935059E-018
  -14.7500000000000         2.356517131929952E-018
  -14.5600000000000         2.377499783965113E-018
  -14.3700000000000         2.389913859623110E-018
  -14.1800000000000         2.390492662356876E-018
  -13.9900000000000         2.379173822426911E-018
  -13.8000000000000         2.359136778312474E-018
  -13.6100000000000         2.335919827717742E-018
  -13.4200000000000         2.315870539996831E-018
  -13.2300000000000         2.304375682288260E-018
  -13.0400000000000         2.304380054365020E-018
  -12.8500000000000         2.315618750357862E-018
  -12.6600000000000         2.334778870961242E-018
  -12.4700000000000         2.356535752999178E-018
  -12.2800000000000         2.375154889490482E-018
  -12.0900000000000         2.386187940585482E-018
  -11.9000000000000         2.387766454941923E-018
  -11.7100000000000         2.381116611974670E-018
  -11.5200000000000         2.370147229632710E-018
  -11.3300000000000         2.360235000451412E-018
  -11.1400000000000         2.356566744894640E-018
  -10.9500000000000         2.362529769563371E-018
  -10.7600000000000         2.378629271178719E-018
  -10.5700000000000         2.402258734000326E-018
  -10.3800000000000         2.428399576370732E-018
  -10.1900000000000         2.451053023560334E-018
  -10.0000000000000         2.464990662383847E-018
  -9.81000000000000         2.467313949335817E-018
  -9.62000000000000         2.458365191160598E-018
  -9.42999999999999         2.441717882834312E-018
  -9.23999999999999         2.423239002896699E-018
  -9.05000000000000         2.409483610457151E-018
  -8.86000000000000         2.405875857279928E-018
  -8.67000000000000         2.415194323062342E-018
  -8.48000000000000         2.436794359054739E-018
  -8.28999999999999         2.466789723770574E-018
  -8.09999999999999         2.499140660703143E-018
  -7.91000000000000         2.527335476493459E-018
  -7.72000000000000         2.546183327021128E-018
  -7.53000000000000         2.553206449883565E-018
  -7.34000000000000         2.549238465876466E-018
  -7.15000000000001         2.538066321515082E-018
  -6.95999999999999         2.525229431888090E-018
  -6.77000000000000         2.516331054756694E-018
  -6.58000000000000         2.515355136657044E-018
  -6.39000000000000         2.523477900052834E-018
  -6.20000000000000         2.538718738270288E-018
  -6.01000000000001         2.556530948581111E-018
  -5.81999999999999         2.571159426858560E-018
  -5.63000000000000         2.577368660169940E-018
  -5.44000000000000         2.572035563872822E-018
  -5.25000000000000         2.555140218984502E-018
  -5.06000000000000         2.529862431675545E-018
  -4.87000000000000         2.501752020910051E-018
  -4.67999999999999         2.477209740970313E-018
  -4.48999999999999         2.461715557018972E-018
  -4.30000000000000         2.458314098085533E-018
  -4.11000000000000         2.466792918755360E-018
  -3.92000000000000         2.483789452364992E-018
  -3.73000000000000         2.503794786641927E-018
  -3.53999999999999         2.520763632522235E-018
  -3.34999999999999         2.529864827435213E-018
  -3.16000000000000         2.528866494468087E-018
  -2.97000000000000         2.518756738878519E-018
  -2.78000000000000         2.503423590245485E-018
  -2.59000000000000         2.488491623447079E-018
  -2.40000000000001         2.479657234077422E-018
  -2.20999999999999         2.481008687728474E-018
  -2.02000000000000         2.493819359462003E-018
  -1.83000000000000         2.516163161226475E-018
  -1.64000000000000         2.543461134070584E-018
  -1.45000000000000         2.569797291351353E-018
  -1.26000000000001         2.589618328718914E-018
  -1.06999999999999         2.599320482179612E-018
 -0.879999999999995         2.598260256393847E-018
 -0.689999999999998         2.588894695421410E-018
 -0.500000000000000         2.576012264010751E-018
 -0.310000000000002         2.565282381538804E-018
 -0.120000000000005         2.561551564022516E-018
  7.000000000000739E-002    2.567388104980201E-018
  0.260000000000005         2.582303845717910E-018
  0.450000000000003         2.602883003936644E-018
  0.640000000000001         2.623782725275571E-018
  0.829999999999998         2.639315133528864E-018
   1.02000000000000         2.645149745484984E-018
   1.21000000000001         2.639637565097175E-018
   1.40000000000001         2.624365349787988E-018
   1.59000000000000         2.603770338994551E-018
   1.78000000000000         2.583918614543979E-018
   1.97000000000000         2.570795025381246E-018
   2.16000000000000         2.568597308553544E-018
   2.34999999999999         2.578528551480715E-018
   2.54000000000001         2.598439509686894E-018
   2.73000000000000         2.623427142239233E-018
   2.92000000000000         2.647219602299464E-018
   3.11000000000000         2.663950954654121E-018
   3.30000000000000         2.669816488593265E-018
   3.48999999999999         2.664133740682274E-018
   3.68000000000001         2.649505215010948E-018
   3.87000000000000         2.631037309061421E-018
   4.06000000000000         2.614842059982266E-018
   4.25000000000000         2.606255640579829E-018
   4.44000000000000         2.608289708319640E-018
   4.63000000000000         2.620764276915774E-018
   4.82000000000001         2.640372903582839E-018
   5.01000000000001         2.661660195736393E-018
   5.20000000000000         2.678626902987444E-018
   5.39000000000000         2.686496171444633E-018
   5.58000000000000         2.683128265419768E-018
   5.77000000000000         2.669672955411342E-018
   5.96000000000001         2.650268931822404E-018
   6.15000000000001         2.630874615552434E-018
   6.34000000000000         2.617565720892088E-018
   6.53000000000000         2.614789626407493E-018