  -105.000000000000         3.980229100111695E-019
  -104.810000000000         3.014754587396657E-019
  -104.620000000000         1.408337252774474E-019
  -104.430000000000        -3.888838968871426E-020
  -104.240000000000        -1.876578877275904E-019
  -104.050000000000        -2.648328081069289E-019
  -103.860000000000        -2.508404965778675E-019
  -103.670000000000        -1.527289737012666E-019
  -103.480000000000        -1.977522096759621E-021
  -103.290000000000         1.547868847040419E-019
  -103.100000000000         2.694484617353232E-019
  -102.910000000000         3.064502089998538E-019
  -102.720000000000         2.531504530880763E-019
  -102.530000000000         1.235012308898411E-019
  -102.340000000000        -4.599657184477657E-020
  -102.150000000000        -2.068810867966964E-019
  -101.960000000000        -3.128004289056167E-019
  -101.770000000000        -3.330000180559861E-019
  -101.580000000000        -2.613143990342523E-019
  -101.390000000000        -1.180363041091568E-019
  -101.200000000000         5.590454907012047E-020
  -101.010000000000         2.107750955719582E-019
  -100.820000000000         3.024391308461480E-019
  -100.630000000000         3.051227418624759E-019
  -100.440000000000         2.188306487170392E-019
  -100.250000000000         6.927507727240855E-020
  -100.060000000000        -9.963587135516364E-020
  -99.8700000000000        -2.385534585778594E-019
  -99.6800000000000        -3.069911974468405E-019
  -99.4900000000000        -2.850473178814233E-019
  -99.3000000000000        -1.791647614158419E-019
  -99.1100000000000        -2.025745067540822E-020
  -98.9200000000000         1.452701069838213E-019
  -98.7300000000000         2.690180385390793E-019
  -98.5400000000000         3.146805486461279E-019
  -98.3500000000000         2.686210949433660E-019
  -98.1600000000000         1.438467123137462E-019
  -97.9700000000000        -2.377294611134211E-020
  -97.7800000000000        -1.859296364581989E-019
  -97.5900000000000        -2.959016086255359E-019
  -97.4000000000000        -3.221058247463521E-019
  -97.2100000000000        -2.572553817220124E-019
  -97.0200000000000        -1.204762344347489E-019
  -96.8300000000000         4.823372801724394E-020
  -96.6400000000000         1.996112223711269E-019
  -96.4500000000000         2.894449619098619E-019
  -96.2600000000000         2.914460663148018E-019
  -96.0700000000000         2.049182081730309E-019
  -95.8800000000000         5.498218407046044E-020
  -95.6900000000000        -1.147157304744127E-019
  -95.5000000000000        -2.546843989692713E-019
  -95.3100000000000        -3.239628551174232E-019
  -95.1200000000000        -3.020168270481245E-019
  -94.9300000000000        -1.947185791470595E-019
  -94.7400000000000        -3.268855445379460E-020
  -94.5500000000000         1.375237421240815E-019
  -94.3600000000000         2.668829274382660E-019
  -94.1700000000000         3.180593737536588E-019
  -93.9800000000000         2.762606029915160E-019
  -93.7900000000000         1.535468802525342E-019
  -93.6000000000000        -1.464311483376001E-020
  -93.4100000000000        -1.797583446879281E-019
  -93.2200000000000        -2.942030138781901E-019
  -93.0300000000000        -3.251041613033531E-019
  -92.8400000000000        -2.637791187743093E-019
  -92.6500000000000        -1.281746134803877E-019
  -92.4600000000000         4.239902385651633E-020
  -92.2700000000000         1.986893490410704E-019
  -92.0800000000000         2.957677891651720E-019
  -91.8900000000000         3.060225740631696E-019
  -91.7000000000000         2.271290842529208E-019
  -91.5100000000000         8.268669866101730E-020
  -91.3200000000000        -8.467700613061026E-020
  -91.1300000000000        -2.257448208660312E-019
  -90.9400000000000        -2.990742127625974E-019
  -90.7500000000000        -2.830965082802457E-019
  -90.5600000000000        -1.824200961006761E-019
  -90.3700000000000        -2.650621082644702E-020
  -90.1800000000000         1.388838898545870E-019
  -89.9900000000000         2.649723839192712E-019
  -89.8000000000000         3.141232911879585E-019
  -89.6100000000000         2.707828128443842E-019
  -89.4200000000000         1.460433641259037E-019
  -89.2300000000000        -2.549209221501747E-020
  -89.0400000000000        -1.956503285496506E-019
  -88.8500000000000        -3.165649201225258E-019
  -88.6600000000000        -3.544688271819929E-019
  -88.4700000000000        -2.993945906058612E-019
  -88.2800000000000        -1.679623774643661E-019
  -88.0900000000000         1.544647105591386E-021
  -87.9000000000000         1.603655469263925E-019
  -87.7100000000000         2.634385735157936E-019
  -87.5200000000000         2.824501552041524E-019
  -87.3300000000000         2.139834185321173E-019
  -87.1400000000000         8.042073152422229E-020
  -86.9500000000000        -7.665454748087842E-020
  -86.7600000000000        -2.086501057852932E-019
  -86.5700000000000        -2.742219375605242E-019
  -86.3800000000000        -2.514533435993049E-019
  -86.1900000000000        -1.443940672957490E-019
  -86.0000000000000         1.797248106394644E-020
  -85.8100000000000         1.900521152562901E-019
  -85.6200000000000         3.228282817583688E-019
  -85.4300000000000         3.780655672686005E-019
  -85.2400000000000         3.393933272772047E-019
  -85.0500000000000         2.170609787746802E-019
  -84.8600000000000         4.500370475982926E-020
  -84.6700000000000        -1.289211371217614E-019
  -84.4800000000000        -2.567069353774105E-019
  -84.2900000000000        -3.040112036475205E-019
  -84.1000000000000        -2.600217572029088E-019
  -83.9100000000000        -1.405107975931278E-019
  -83.7200000000000         1.682796868003704E-020
  -83.5300000000000         1.634205125254771E-019
  -83.3400000000000         2.540234091621457E-019
  -83.1500000000000         2.599610112874206E-019
  -82.9600000000000         1.775292967740950E-019
  -82.7700000000000         2.912492148037866E-020
  -82.5800000000000        -1.432148523331738E-019
  -82.3900000000000        -2.899713057543569E-019
  -82.2000000000000        -3.684731911819895E-019
  -82.0100000000000        -3.552539502734444E-019
  -81.8200000000000        -2.528709317770813E-019
  -81.6300000000000        -8.921347703346610E-020
  -81.4400000000000         9.051036684057325E-020
  -81.2500000000000         2.367988688157003E-019
  -81.0600000000000         3.101201393010487E-019
  -80.8700000000000         2.922694722110927E-019
  -80.6800000000000         1.915182993083083E-019
  -80.4900000000000         4.006814684410017E-020
  -80.3000000000000        -1.154281346740112E-019
  -80.1100000000000        -2.275043540767606E-019
  -79.9200000000000        -2.617174250279287E-019
  -79.7300000000000        -2.066848383286293E-019
  -79.5400000000000        -7.743074038333184E-020
  -79.3500000000000         8.892675090617852E-020
  -79.1600000000000         2.439115489570386E-019
  -78.9700000000000         3.417548795943148E-019
  -78.7800000000000         3.527167552970382E-019
  -78.5900000000000         2.717873790440559E-019
  -78.4000000000000         1.202260161440548E-019
  -78.2100000000000        -6.051497876840706E-020
  -78.0200000000000        -2.207066269544976E-019
  -77.8300000000000        -3.166282923717212E-019
  -77.6400000000000        -3.230783058747192E-019
  -77.4500000000000        -2.405049057086142E-019
  -77.2600000000000        -9.472384916768069E-020
  -77.0700000000000         7.067012822630017E-020
  -76.8800000000000         2.069953278241096E-019
  -76.6900000000000         2.746145305064114E-019
  -76.5000000000000         2.544220576700517E-019
  -76.3100000000000         1.533495683778418E-019
  -76.1200000000000         2.272416128677419E-021
  -75.9300000000000        -1.530914333695418E-019
  -75.7400000000000        -2.656405085524273E-019
  -75.5500000000000        -3.007693683103362E-019
  -75.3600000000000        -2.466034062491899E-019
  -75.1700000000000        -1.175956161497832E-019
  -74.9800000000000         4.956239013754810E-020
  -74.7900000000000         2.065258477393943E-019
  -74.6000000000000         3.073129929456434E-019
  -74.4100000000000         3.216986176963385E-019
  -74.2200000000000         2.441038587608249E-019
  -74.0300000000000         9.538594525746097E-020
  -73.8400000000000        -8.302541180904666E-020
  -73.6500000000000        -2.409765086536394E-019
  -73.4600000000000        -3.340009994226007E-019
  -73.2700000000000        -3.361097938125170E-019
  -73.0800000000000        -2.472396768073366E-019
  -72.8900000000000        -9.320033520843417E-020
  -72.7000000000000         8.185054186869404E-020
  -72.5100000000000         2.282052358341226E-019
  -72.3200000000000         3.049617803635235E-019
  -72.1300000000000         2.917856225586897E-019
  -71.9400000000000         1.946813843540466E-019
  -71.7500000000000         4.410751179307134E-020
  -71.5600000000000        -1.140231018025948E-019
  -71.3700000000000        -2.318495042207158E-019
  -71.1800000000000        -2.736458273310477E-019
  -70.9900000000000        -2.263634073187006E-019
  -70.8000000000000        -1.035365279895867E-019
  -70.6100000000000         5.859945666630227E-020
  -70.4200000000000         2.116415996776145E-019
  -70.2300000000000         3.091252577841619E-019
  -70.0400000000000         3.200971404901963E-019
  -69.8500000000000         2.382262106097502E-019
  -69.6600000000000         8.382813895539203E-020
  -69.4700000000000        -1.017783016316703E-019
  -69.2800000000000        -2.679691432592701E-019
  -69.0900000000000        -3.692192659583420E-019
  -68.9000000000000        -3.780760569365295E-019
  -68.7100000000000        -2.929577852794399E-019
  -68.5200000000000        -1.385121184422467E-019
  -68.3300000000000         4.157461107290755E-020
  -68.1400000000000         1.972264933420887E-019
  -67.9500000000000         2.864036871985670E-019
  -67.7600000000000         2.871146846251767E-019
  -67.5700000000000         2.035454868622919E-019
  -67.3800000000000         6.456121381699918E-020
  -67.1900000000000        -8.494979083828993E-020
  -67.0000000000000        -1.973582022419515E-019
  -66.8100000000000        -2.363452125366462E-019
  -66.6200000000000        -1.876447384697422E-019
  -66.4300000000000        -6.334677241307744E-020
  -66.2400000000000         1.015083731086167E-019
  -66.0500000000000         2.590719785730632E-019
  -65.8600000000000         3.626159696727719E-019
  -65.6700000000000         3.801783309720983E-019
  -65.4800000000000         3.039302865736450E-019
  -65.2900000000000         1.525291606377492E-019
  -65.1000000000000        -3.421715584760414E-020
  -64.9100000000000        -2.068025580649516E-019
  -64.7200000000000        -3.202508558055377E-019
  -64.5300000000000        -3.469883941213656E-019
  -64.3400000000000        -2.846333171868955E-019
  -64.1500000000000        -1.564486815527338E-019
  -63.9600000000000        -4.332286013247470E-021
  -63.7700000000000         1.236132456640917E-019
  -63.5800000000000         1.872976016911595E-019
  -63.3900000000000         1.664806942868359E-019
  -63.2000000000000         6.675948254378297E-020
  -63.0100000000000        -8.204287143410824E-020
  -62.8200000000000        -2.345952607307868E-019
  -62.6300000000000        -3.433185111722629E-019
  -62.4400000000000        -3.723163133728452E-019
  -62.2500000000000        -3.079377375348824E-019
  -62.0600000000000        -1.629260880320926E-019
  -61.8700000000000         2.703565813313721E-020
  -61.6800000000000         2.133886739953955E-019
  -61.4900000000000         3.484784443851232E-019
  -61.3000000000000         3.990804700811395E-019
  -61.1100000000000         3.557614140490408E-019
  -60.9200000000000         2.353646455689382E-019
  -60.7300000000000         7.590812636927485E-020
  -60.5400000000000        -7.460537585346647E-020
  -60.3500000000000        -1.721967342170067E-019
  -60.1600000000000        -1.896640759203704E-019
  -59.9700000000000        -1.243956504542147E-019
  -59.7800000000000         9.952184091733919E-022
  -59.5900000000000         1.453768189648000E-019
  -59.4000000000000         2.612100626593235E-019
  -59.2100000000000         3.085825900313153E-019
  -59.0200000000000         2.671228021017639E-019
  -58.8300000000000         1.423329317496628E-019
  -58.6400000000000        -3.554151446493027E-020
  -58.4500000000000        -2.198469995461492E-019
  -58.2600000000000        -3.607068003451724E-019
  -58.0700000000000        -4.192665680355195E-019
  -57.8800000000000        -3.788780309887160E-019
  -57.6900000000000        -2.499754258197324E-019
  -57.5000000000000        -6.722654181752221E-020
  -57.3100000000000         1.202271137006951E-019
  -57.1200000000000         2.626394631456436E-019
  -56.9300000000000         3.236605516841719E-019
  -56.7400000000000         2.904553008709083E-019
  -56.5500000000000         1.770414267100722E-019
  -56.3600000000000         1.989947852888685E-020
  -56.1700000000000        -1.328566898238846E-019
  -55.9800000000000        -2.355875989497630E-019
  -55.7900000000000        -2.583972849068735E-019
  -55.6000000000000        -1.957025801581993E-019
  -55.4100000000000        -6.763366824353208E-020
  -55.2200000000000         8.609486584235311E-020
  -55.0300000000000         2.180099595437312E-019
  -54.8400000000000         2.869322953829764E-019
  -54.6500000000000         2.701643677965548E-019
  -54.4600000000000         1.702834523089923E-019
  -54.2700000000000         1.457253637342927E-020
  -54.0800000000000        -1.527578922628436E-019
  -53.8900000000000        -2.833238713412872E-019
  -53.7000000000000        -3.386123277189800E-019
  -53.5100000000000        -3.012341529334747E-019
  -53.3200000000000        -1.800992693724434E-019
  -53.1300000000000        -7.994796233594505E-021
  -52.9400000000000         1.677313319472188E-019
  -52.7500000000000         2.986680302034784E-019
  -52.5600000000000         3.491050458671148E-019
  -52.3700000000000         3.061006623503433E-019
  -52.1800000000000         1.829871259729343E-019
  -51.9900000000000         1.534748608833895E-020
  -51.8000000000000        -1.493495650861270E-019
  -51.6100000000000        -2.654641750258514E-019
  -51.4200000000000        -3.022977780994481E-019
  -51.2300000000000        -2.528163934277309E-019
  -51.0400000000000        -1.354529423794044E-019
  -50.8500000000000         1.154202327526137E-020
  -50.6600000000000         1.415568663535094E-019
  -50.4700000000000         2.135289897128583E-019
  -50.2800000000000         2.042243927628069E-019
  -50.0900000000000         1.152730942747861E-019
  -49.9000000000000        -2.712249414550743E-020
  -49.7100000000000        -1.797513618596452E-019
  -49.5200000000000        -2.950512176510216E-019
  -49.3300000000000        -3.351818930159941E-019
  -49.1400000000000        -2.833968278903392E-019
  -48.9500000000000        -1.493476591847347E-019
  -48.7600000000000         3.329963519499021E-020
  -48.5700000000000         2.163155909051705E-019
  -48.3800000000000         3.507116114016151E-019
  -48.1900000000000         4.008721011780498E-019
  -48.0000000000000         3.548666330395971E-019
  -47.8100000000000         2.279097791208660E-019
  -47.6200000000000         5.795067892601518E-020
  -47.4300000000000        -1.053218829308853E-019
  -47.2400000000000        -2.148630334627933E-019
  -47.0500000000000        -2.398801304422496E-019
  -46.8600000000000        -1.747374637337247E-019
  -46.6700000000000        -4.058473875012476E-020
  -46.4800000000000         1.207749337265958E-019
  -46.2900000000000         2.590254441812913E-019
  -46.1000000000000         3.299849595917865E-019
  -45.9100000000000         3.085119033263688E-019
  -45.7200000000000         1.959139544938718E-019
  -45.5300000000000         1.970384245746098E-020
  -45.3400000000000        -1.742182344358229E-019
  -45.1500000000000        -3.346687730418251E-019
  -44.9600000000000        -4.197614393773142E-019
  -44.7700000000000        -4.087535891675687E-019
  -44.5800000000000        -3.077684823501038E-019
  -44.3900000000000        -1.477841928150489E-019
  -44.2000000000000         2.449587534141881E-020
  -44.0100000000000         1.602382286153658E-019
  -43.8200000000000         2.226094830210429E-019
  -43.6300000000000         1.973574419465363E-019
  -43.4400000000000         9.678225067331092E-020
  -43.2500000000000        -4.404834780765508E-020
  -43.0600000000000        -1.777294812366969E-019
  -42.8700000000000        -2.585501921227888E-019
  -42.6800000000000        -2.560402778528525E-019
  -42.4900000000000        -1.641054663767876E-019
  -42.3000000000000        -3.115539707198839E-021
  -42.1100000000000         1.856535703847836E-019
  -41.9200000000000         3.516301975248893E-019
  -41.7300000000000         4.492856914806566E-019
  -41.5400000000000         4.510925843938745E-019
  -41.3500000000000         3.553779728766267E-019
  -41.1600000000000         1.868038816142782E-019
  -40.9700000000000        -1.066840045917202E-020
  -40.7800000000000        -1.862875211351007E-019
  -40.5900000000000        -2.968550902644404E-019
  -40.4000000000000        -3.187388257063291E-019
  -40.2100000000000        -2.540989660892245E-019
  -40.0200000000000        -1.295881446304299E-019
  -39.8300000000000         1.200851812970767E-020
  -39.6400000000000         1.246835703398058E-019
  -39.4500000000000         1.728675727229611E-019
  -39.2600000000000         1.418573800944566E-019
  -39.0700000000000         4.199176185102586E-020
  -38.8800000000000        -9.462040737485348E-020
  -38.6900000000000        -2.238404837460151E-019
  -38.5000000000000        -3.028312961498604E-019
  -38.3100000000000        -3.030381631691750E-019
  -38.1200000000000        -2.189758548863511E-019
  -37.9300000000000        -7.021527031263235E-020
  -37.7400000000000         1.040267358765609E-019
  -37.5500000000000         2.561131932391147E-019
  -37.3600000000000         3.437509532490947E-019
  -37.1700000000000         3.422904895510200E-019
  -36.9800000000000         2.519954705543344E-019
  -36.7900000000000         9.816743255582005E-020
  -36.6000000000000        -7.594032629103931E-020
  -36.4100000000000        -2.214129817333412E-019
  -36.2200000000000        -2.976497711316933E-019
  -36.0300000000000        -2.839934490114303E-019
  -35.8400000000000        -1.856334777427788E-019
  -35.6500000000000        -3.204873104335554E-020
  -35.4600000000000         1.315738717979911E-019
  -35.2700000000000         2.574543213506850E-019
  -35.0800000000000         3.090553332077501E-019
  -34.8900000000000         2.716259004019913E-019
  -34.7000000000000         1.564073549132182E-019
  -34.5100000000000        -2.702764502012298E-021
  -34.3200000000000        -1.590572945656447E-019
  -34.1300000000000        -2.668732332622252E-019
  -33.9400000000000        -2.946168384328943E-019
  -33.7500000000000        -2.342746873305940E-019
  -33.5600000000000        -1.037942150935367E-019
  -33.3700000000000         5.805409982484970E-020
  -33.1800000000000         2.029320376261738E-019
  -32.9900000000000         2.870470220142907E-019
  -32.8000000000000         2.840160197123434E-019
  -32.6100000000000         1.927285569030504E-019
  -32.4200000000000         3.790782369874745E-020
  -32.2300000000000        -1.368179573883397E-019
  -32.0400000000000        -2.813614266430303E-019
  -31.8500000000000        -3.535764299473056E-019
  -31.6600000000000        -3.314752974348494E-019
  -31.4700000000000        -2.197277922609864E-019
  -31.2800000000000        -4.852633888741658E-020
  -31.0900000000000         1.349056816171766E-019
  -30.9000000000000         2.797469019402464E-019
  -30.7100000000000         3.460833459510535E-019
  -30.5200000000000         3.162916895132090E-019
  -30.3300000000000         2.000131315067665E-019
  -30.1400000000000         3.130159080377854E-020
  -29.9500000000000        -1.411966544041099E-019
  -29.7600000000000        -2.681741175541905E-019
  -29.5700000000000        -3.136939231066500E-019
  -29.3800000000000        -2.653171902315715E-019
  -29.1900000000000        -1.374586666781262E-019
  -29.0000000000000         3.295643572934838E-020
  -28.8100000000000         1.972614818172891E-019
  -28.6200000000000         3.091273804792149E-019
  -28.4300000000000         3.378769085815151E-019
  -28.2400000000000         2.771746628223737E-019
  -28.0500000000000         1.465779675151919E-019
  -27.8600000000000        -1.447311686372647E-020
  -27.6700000000000        -1.584291715432530E-019
  -27.4800000000000        -2.436908027345628E-019
  -27.2900000000000        -2.468305113077074E-019
  -27.1000000000000        -1.694152005284914E-019
  -26.9100000000000        -3.745635074789730E-020
  -26.7200000000000         1.063368354982642E-019
  -26.5300000000000         2.152360150574381E-019
  -26.3400000000000         2.524029910048873E-019
  -26.1500000000000         2.019597212722110E-019
  -25.9600000000000         7.396281279184089E-020
  -25.7700000000000        -9.819959358088556E-020
  -25.5800000000000        -2.672497714518076E-019
  -25.3900000000000        -3.855553563293058E-019
  -25.2000000000000        -4.188179368689025E-019
  -25.0100000000000        -3.559442846316063E-019
  -24.8200000000000        -2.122554276582793E-019
  -24.6300000000000        -2.512904083559476E-020
  -24.4400000000000         1.566468817944538E-019
  -24.2500000000000         2.867324076916498E-019
  -24.0600000000000         3.343168192160449E-019
  -23.8700000000000         2.926578220549213E-019
  -23.6800000000000         1.806178927035009E-019
  -23.4900000000000         3.676173231082517E-020
  -23.3000000000000        -9.225165840092218E-020
  -23.1100000000000        -1.655723264399021E-019
  -22.9200000000000        -1.602703003040926E-019
  -22.7300000000000        -7.809767423316676E-020
  -22.5400000000000         5.507112311468241E-020
  -22.3500000000000         1.969379308738447E-019
  -22.1600000000000         3.013528609217862E-019
  -21.9700000000000         3.320888441924686E-019
  -21.7800000000000         2.738067661401006E-019
  -21.5900000000000         1.370043788582769E-019
  -21.4000000000000        -4.453554642270012E-020
  -21.2100000000000        -2.231229056729623E-019
  -21.0200000000000        -3.507023169902252E-019
  -20.8300000000000        -3.926601735441494E-019
  -20.6400000000000        -3.378831587353845E-019
  -20.4500000000000        -2.021182395405679E-019
  -20.2600000000000        -2.362459680244601E-020
  -20.0700000000000         1.476493269369779E-019
  -19.8800000000000         2.642520093461597E-019
  -19.6900000000000         2.946991747988639E-019
  -19.5000000000000         2.323618151105540E-019
  -19.3100000000000         9.722578911946326E-020
  -19.1200000000000        -6.997802089482703E-020
  -18.9300000000000        -2.195863793799792E-019
  -18.7400000000000        -3.073615045265376E-019
  -18.5500000000000        -3.072509809356683E-019
  -18.3600000000000        -2.188540930487802E-019
  -18.1700000000000        -6.742899135911041E-020
  -17.9800000000000         1.035485039599200E-019
  -17.7900000000000         2.450855004858012E-019
  -17.6000000000000         3.169144211833725E-019
  -17.4100000000000         2.991311406650290E-019
  -17.2200000000000         1.978685229166524E-019
  -17.0300000000000         4.339649881796188E-020
  -16.8400000000000        -1.187657504323862E-019
  -16.6500000000000        -2.411339536397039E-019
  -16.4600000000000        -2.880904234301343E-019
  -16.2700000000000        -2.462551445671855E-019
  -16.0800000000000        -1.283799660461870E-019
  -15.8900000000000         3.037671064286120E-020
  -15.7000000000000         1.827167003586185E-019
  -15.5100000000000         2.830172342446431E-019
  -15.3200000000000         3.006634116676027E-019
  -15.1300000000000         2.290157515651091E-019
  -14.9400000000000         8.741743952037604E-020
  -14.7500000000000        -8.432202104518611E-020
  -14.5600000000000        -2.373566863480688E-019
  -14.3700000000000        -3.278468954080067E-019
  -14.1800000000000        -3.295745890230668E-019
  -13.9900000000000        -2.415015009548543E-019
  -13.8000000000000        -8.808605208577391E-020
  -13.6100000000000         8.774689401168386E-020
  -13.4200000000000         2.369648202864038E-019
  -13.2300000000000         3.185382212003189E-019
  -13.0400000000000         3.112001084787297E-019
  -12.8500000000000         2.194300446132448E-019
  -12.6600000000000         7.193244971067178E-020
  -12.4700000000000        -8.691815918645494E-020
  -12.2800000000000        -2.101408697037223E-019
  -12.0900000000000        -2.618985246138316E-019
  -11.9000000000000        -2.279323358364025E-019
  -11.7100000000000        -1.196548303242802E-019
  -11.5200000000000         2.928402107098313E-020
  -11.3300000000000         1.729632582970741E-019
  -11.1400000000000         2.667944660804544E-019
  -10.9500000000000         2.807888350863219E-019
  -10.7600000000000         2.085861829988807E-019
  -10.5700000000000         6.956730052073681E-020
  -10.3800000000000        -9.660374462059764E-020
  -10.1900000000000        -2.414351347947222E-019
  -10.0000000000000        -3.217271986576938E-019
  -9.81000000000000        -3.122450173736661E-019
  -9.62000000000000        -2.132562368716663E-019
  -9.42999999999999        -5.073605571540774E-020
  -9.23999999999999         1.308445290322923E-019
  -9.05000000000000         2.810980405075719E-019
  -8.86000000000000         3.580670071921757E-019
  -8.67000000000000         3.402097011075599E-019
  -8.48000000000000         2.325575823667028E-019
  -8.28999999999999         6.525130794276810E-020
  -8.09999999999999        -1.151280094806930E-019
  -7.91000000000000        -2.589187053364518E-019
  -7.72000000000000        -3.275547829704511E-019
  -7.53000000000000        -3.044627941699608E-019
  -7.34000000000000        -1.995612286505465E-019
  -7.15000000000001        -4.611482730216865E-020
  -6.95999999999999         1.091000691300856E-019
  -6.77000000000000         2.194586989403163E-019
  -6.58000000000000         2.520410386548791E-019
  -6.39000000000000         1.971765878577105E-019
  -6.20000000000000         7.122914386062841E-020
  -6.01000000000001        -8.819202308515173E-020
  -5.81999999999999        -2.332200821625727E-019
  -5.63000000000000        -3.197321221190385E-019
  -5.44000000000000        -3.202838944931659E-019
  -5.25000000000000        -2.322006210702464E-019
  -5.06000000000000        -7.846602372678807E-020
  -4.87000000000000         9.884018907909416E-020
  -4.67999999999999         2.506397780719446E-019
  -4.48999999999999         3.349785323518479E-019
  -4.30000000000000         3.290936178190410E-019
  -4.11000000000000         2.359477268643924E-019
  -3.92000000000000         8.334627887262238E-020
  -3.73000000000000        -8.411325198411172E-020
  -3.53999999999999        -2.179404700091208E-019
  -3.34999999999999        -2.797653152383516E-019
  -3.16000000000000        -2.523939784610007E-019
  -2.97000000000000        -1.446923280738389E-019
  -2.78000000000000         1.111307021129499E-020
  -2.59000000000000         1.689079620152015E-019
  -2.40000000000001         2.821563163631413E-019
  -2.20999999999999         3.174298637805220E-019
  -2.02000000000000         2.640756241258365E-019
  -1.83000000000000         1.372346559456250E-019
  -1.64000000000000        -2.664309039722039E-020
  -1.45000000000000        -1.804742358229413E-019
  -1.26000000000001        -2.803014932649138E-019
  -1.06999999999999        -2.981268489324801E-019
 -0.879999999999995        -2.300646866113977E-019
 -0.689999999999998        -9.742023374580964E-020
 -0.500000000000000         5.962739442420676E-020
 -0.310000000000002         1.938799156691929E-019
 -0.120000000000005         2.650237804424839E-019
  7.000000000000739E-002    2.515013789480166E-019
  0.260000000000005         1.568813706655357E-019
  0.450000000000003         8.879864825264202E-021
  0.640000000000001        -1.486790328429997E-019
  0.829999999999998        -2.686370165422573E-019
   1.02000000000000        -3.143155773941246E-019
   1.21000000000001        -2.703610781544778E-019
   1.40000000000001        -1.474458582895287E-019
   1.59000000000000         2.058964938686498E-020
   1.78000000000000         1.863749387213191E-019
   1.97000000000000         3.026557433526445E-019
   2.16000000000000         3.359822646779163E-019
   2.34999999999999         2.764464066207055E-019
   2.54000000000001         1.406280982316242E-019
   2.73000000000000        -3.310727124959332E-020
   2.92000000000000        -1.955985514008916E-019
   3.11000000000000        -3.009921998757208E-019
   3.30000000000000        -3.198970041588614E-019
   3.48999999999999        -2.478054781256308E-019
   3.68000000000001        -1.063540243269045E-019
   3.87000000000000         6.295448394384754E-020
   4.06000000000000         2.107709051722187E-019
   4.25000000000000         2.941963197298751E-019
   4.44000000000000         2.892105500366472E-019
   4.63000000000000         1.976193371448811E-019
   4.82000000000001         4.650042898865357E-020
   5.01000000000001        -1.196837923131101E-019
   5.20000000000000        -2.520066147884535E-019
   5.39000000000000        -3.112790715249916E-019
   5.58000000000000        -2.794294732288630E-019
   5.77000000000000        -1.647843097094563E-019
   5.96000000000001         2.689008024111515E-022
   6.15000000000001         1.685712357236521E-019
   6.34000000000000         2.917673178878706E-019
   6.53000000000000         3.342505876861276E-019