  -105.000000000000         3.980229100111381E-019
  -104.810000000000         3.014754623620255E-019
  -104.620000000000         1.408337326741836E-019
  -104.430000000000        -3.888838259227915E-020
  -104.240000000000        -1.876578864241412E-019
  -104.050000000000        -2.648328148585264E-019
  -103.860000000000        -2.508405075382040E-019
  -103.670000000000        -1.527289806438374E-019
  -103.480000000000        -1.977518274678543E-021
  -103.290000000000         1.547868987352886E-019
  -103.100000000000         2.694484774986292E-019
  -102.910000000000         3.064502162397697E-019
  -102.720000000000         2.531504480936531E-019
  -102.530000000000         1.235012195503219E-019
  -102.340000000000        -4.599657950416876E-020
  -102.150000000000        -2.068810859809455E-019
  -101.960000000000        -3.128004246881374E-019
  -101.770000000000        -3.330000204897863E-019
  -101.580000000000        -2.613144125874138E-019
  -101.390000000000        -1.180363213622004E-019
  -101.200000000000         5.590454225833616E-020
  -101.010000000000         2.107751068376220E-019
  -100.820000000000         3.024391523047123E-019
  -100.630000000000         3.051227548862691E-019
  -100.440000000000         2.188306393824096E-019
  -100.250000000000         6.927504892767166E-020
  -100.060000000000        -9.963590000544078E-020
  -99.8700000000000        -2.385534688552266E-019
  -99.6800000000000        -3.069911861921132E-019
  -99.4900000000000        -2.850472988462835E-019
  -99.3000000000000        -1.791647511713967E-019
  -99.1100000000000        -2.025745306427355E-020
  -98.9200000000000         1.452701018740107E-019
  -98.7300000000000         2.690180398156975E-019
  -98.5400000000000         3.146805501201591E-019
  -98.3500000000000         2.686210773990099E-019
  -98.1600000000000         1.438466633067842E-019
  -97.9700000000000        -2.377301212681169E-020
  -97.7800000000000        -1.859296782592949E-019
  -97.5900000000000        -2.959015832893127E-019
  -97.4000000000000        -3.221057196367972E-019
  -97.2100000000000        -2.572552274824912E-019
  -97.0200000000000        -1.204760899026168E-019
  -96.8300000000000         4.823380186810182E-020
  -96.6400000000000         1.996111732473454E-019
  -96.4500000000000         2.894447330183382E-019
  -96.2600000000000         2.914455782292700E-019
  -96.0700000000000         2.049173677967670E-019
  -95.8800000000000         5.498093766668827E-020
  -95.6900000000000        -1.147173179476755E-019
  -95.5000000000000        -2.546860843956930E-019
  -95.3100000000000        -3.239642223379274E-019
  -95.1200000000000        -3.020173715554988E-019
  -94.9300000000000        -1.947178542222892E-019
  -94.7400000000000        -3.268634367248001E-020
  -94.5500000000000         1.375272658890443E-019
  -94.3600000000000         2.668871034417940E-019
  -94.1700000000000         3.180630727827406E-019
  -93.9800000000000         2.762624190438773E-019
  -93.7900000000000         1.535455086734446E-019
  -93.6000000000000        -1.464838110106117E-020
  -93.4100000000000        -1.797671624499010E-019
  -93.2200000000000        -2.942137859482638E-019
  -93.0300000000000        -3.251142352469302E-019
  -92.8400000000000        -2.637854051423620E-019
  -92.6500000000000        -1.281744795544819E-019
  -92.4600000000000         4.240684596257617E-020
  -92.2700000000000         1.987041329672295E-019
  -92.0800000000000         2.957866978212709E-019
  -91.8900000000000         3.060411637421265E-019
  -91.7000000000000         2.271423750344941E-019
  -91.5100000000000         8.269058576842795E-020
  -91.3200000000000        -8.468437564227525E-020
  -91.1300000000000        -2.257621571366742E-019
  -90.9400000000000        -2.990970640955404E-019
  -90.7500000000000        -2.831182710639997E-019
  -90.5600000000000        -1.824338736382855E-019
  -90.3700000000000        -2.650701889979370E-020
  -90.1800000000000         1.388972475895604E-019
  -89.9900000000000         2.649963980746432E-019
  -89.8000000000000         3.141501590502700E-019
  -89.6100000000000         2.708021925316458E-019
  -89.4200000000000         1.460451252797350E-019
  -89.2300000000000        -2.551474696803695E-020
  -89.0400000000000        -1.956981606401444E-019
  -88.8500000000000        -3.166311637651370E-019
  -88.6600000000000        -3.545395074109622E-019
  -88.4700000000000        -2.994508540091846E-019
  -88.2800000000000        -1.679845159157066E-019
  -88.0900000000000         1.572314980419302E-021
  -87.9000000000000         1.604501132162830E-019
  -87.7100000000000         2.635755113877415E-019
  -87.5200000000000         2.826227379692781E-019
  -87.3300000000000         2.141649445480327E-019
  -87.1400000000000         8.057923187988506E-020
  -86.9500000000000        -7.655008225218297E-020
  -86.7600000000000        -2.086233862074325E-019
  -86.5700000000000        -2.742844450618714E-019
  -86.3800000000000        -2.516020569618215E-019
  -86.1900000000000        -1.446124522203465E-019
  -86.0000000000000         1.771048547871579E-020
  -85.8100000000000         1.897762368962465E-019
  -85.6200000000000         3.225658511245022E-019
  -85.4300000000000         3.778369369030449E-019
  -85.2400000000000         3.392099503210975E-019
  -85.0500000000000         2.169264671838724E-019
  -84.8600000000000         4.491727928472777E-020
  -84.6700000000000        -1.289600897446743E-019
  -84.4800000000000        -2.566947977708672E-019
  -84.2900000000000        -3.039380300129698E-019
  -84.1000000000000        -2.598720798483313E-019
  -83.9100000000000        -1.402674331412620E-019
  -83.7200000000000         1.717796197237823E-020
  -83.5300000000000         1.638793314837789E-019
  -83.3400000000000         2.545773579249613E-019
  -83.1500000000000         2.605783278058996E-019
  -82.9600000000000         1.781618033141989E-019
  -82.7700000000000         2.971334654740423E-020
  -82.5800000000000        -1.427329569956616E-019
  -82.3900000000000        -2.896527110476760E-019
  -82.2000000000000        -3.683609707419012E-019
  -82.0100000000000        -3.553717487856853E-019
  -81.8200000000000        -2.532203732310620E-019
  -81.6300000000000        -8.977485174784742E-020
  -81.4400000000000         8.977465937616640E-020
  -81.2500000000000         2.359391174364069E-019
  -81.0600000000000         3.091935404953625E-019
  -80.8700000000000         2.913348129674258E-019
  -80.6800000000000         1.906317361397285E-019
  -80.4900000000000         3.928020334588954E-020
  -80.3000000000000        -1.160746136717768E-019
  -80.1100000000000        -2.279756618956709E-019
  -79.9200000000000        -2.619900999580605E-019
  -79.7300000000000        -2.067464354862915E-019
  -79.5400000000000        -7.728013760303094E-020
  -79.3500000000000         8.927968101101341E-020
  -79.1600000000000         2.444470197112806E-019
  -78.9700000000000         3.424450334002049E-019
  -78.7800000000000         3.535281099142548E-019
  -78.5900000000000         2.726834983225075E-019
  -78.4000000000000         1.211698262979791E-019
  -78.2100000000000        -5.955985108327718E-020
  -78.0200000000000        -2.197758876595991E-019
  -77.8300000000000        -3.157582786715532E-019
  -77.6400000000000        -3.223078453374042E-019
  -77.4500000000000        -2.398765763480550E-019
  -77.2600000000000        -9.428339780478565E-020
  -77.0700000000000         7.087704897936504E-020
  -76.8800000000000         2.069291188339838E-019
  -76.6900000000000         2.742493265003879E-019
  -76.5000000000000         2.537533449819434E-019
  -76.3100000000000         1.523996126413732E-019
  -76.1200000000000         1.091629048763442E-021
  -75.9300000000000        -1.544282166872112E-019
  -75.7400000000000        -2.670425991053042E-019
  -75.5500000000000        -3.021420023800125E-019
  -75.3600000000000        -2.478599988140984E-019
  -75.1700000000000        -1.186673737320347E-019
  -74.9800000000000         4.872202153201844E-020
  -74.7900000000000         2.059429511731976E-019
  -74.6000000000000         3.070003154992774E-019
  -74.4100000000000         3.216655221341155E-019
  -74.2200000000000         2.443655695665962E-019
  -74.0300000000000         9.596857675152755E-020
  -73.8400000000000        -8.208656618386139E-020
  -73.6500000000000        -2.396461774305318E-019
  -73.4600000000000        -3.322592182649959E-019
  -73.2700000000000        -3.339698629638066E-019
  -73.0800000000000        -2.447641058154440E-019
  -72.8900000000000        -9.050999809059934E-020
  -72.7000000000000         8.457758358194838E-020
  -72.5100000000000         2.307464929832401E-019
  -72.3200000000000         3.070732122632536E-019
  -72.1300000000000         2.932307906465150E-019
  -71.9400000000000         1.952616541788043E-019
  -71.7500000000000         4.368797496064438E-020
  -71.5600000000000        -1.154962006237319E-019
  -71.3700000000000        -2.343421241345196E-019
  -71.1800000000000        -2.770403631940617E-019
  -70.9900000000000        -2.304719100462372E-019
  -70.8000000000000        -1.081196353306781E-019
  -70.6100000000000         5.381170038666548E-020
  -70.4200000000000         2.069304347521955E-019
  -70.2300000000000         3.047675529183673E-019
  -70.0400000000000         3.163538434846711E-019
  -69.8500000000000         2.353338065785691E-019
  -69.6600000000000         8.199110431852754E-020
  -69.4700000000000        -1.023960651833450E-019
  -69.2800000000000        -2.672550583602768E-019
  -69.0900000000000        -3.671247754635891E-019
  -68.9000000000000        -3.746294966771503E-019
  -68.7100000000000        -2.882744264376272E-019
  -68.5200000000000        -1.327978352608159E-019
  -68.3300000000000         4.802911076772900E-020
  -68.1400000000000         2.040623658724794E-019
  -67.9500000000000         2.932207094201972E-019
  -67.7600000000000         2.935046847868119E-019
  -67.5700000000000         2.091271804617172E-019
  -67.3800000000000         6.901058315256742E-020
  -67.1900000000000        -8.187845635131150E-020
  -67.0000000000000        -1.958231873681525E-019
  -66.8100000000000        -2.364198107444122E-019
  -66.6200000000000        -1.893281018538548E-019
  -66.4300000000000        -6.657819574855140E-020
  -66.2400000000000         9.683712984340728E-020
  -66.0500000000000         2.531105531177868E-019
  -65.8600000000000         3.555571623255969E-019
  -65.6700000000000         3.722662856316317E-019
  -65.4800000000000         2.954706299619595E-019
  -65.2900000000000         1.438948924137479E-019
  -65.1000000000000        -4.259003597772864E-020
  -64.9100000000000        -2.144334664944237E-019
  -64.7200000000000        -3.266472259287641E-019
  -64.5300000000000        -3.516886918592605E-019
  -64.3400000000000        -2.872537144437730E-019
  -64.1500000000000        -1.567254263138367E-019
  -63.9600000000000        -2.152646798638493E-021
  -63.7700000000000         1.281960682022912E-019
  -63.5800000000000         1.940668182842141E-019
  -63.3900000000000         1.750734469308389E-019
  -63.2000000000000         7.669510292206671E-020
  -63.0100000000000        -7.132914529271260E-020
  -62.8200000000000        -2.237176016037878E-019
  -62.6300000000000        -3.329073614080453E-019
  -62.4400000000000        -3.629869706273443E-019
  -62.2500000000000        -3.002591561096608E-019
  -62.0600000000000        -1.573880244774597E-019
  -61.8700000000000         3.005785545433442E-020
  -61.6800000000000         2.136700192679614E-019
  -61.4900000000000         3.459767482059097E-019
  -61.3000000000000         3.939589110864682E-019
  -61.1100000000000         3.483941972401668E-019
  -60.9200000000000         2.263198879903833E-019
  -60.7300000000000         6.590532042657088E-020
  -60.5400000000000        -8.476121630567098E-020
  -60.3500000000000        -1.816969181403293E-019
  -60.1600000000000        -1.977824870015328E-019
  -59.9700000000000        -1.305658777773232E-019
  -59.7800000000000        -2.875735096971704E-021
  -59.5900000000000         1.439151328786148E-019
  -59.4000000000000         2.620330023360497E-019
  -59.2100000000000         3.113658091585964E-019
  -59.0200000000000         2.713970696424613E-019
  -58.8300000000000         1.475478690052480E-019
  -58.6400000000000        -2.995541882920061E-020
  -58.4500000000000        -2.144261285542850E-019
  -58.2600000000000        -3.559160344801945E-019
  -58.0700000000000        -4.154749272110675E-019
  -57.8800000000000        -3.763454667545456E-019
  -57.6900000000000        -2.488467035373606E-019
  -57.5000000000000        -6.752896692515691E-020
  -57.3100000000000         1.185831112148698E-019
  -57.1200000000000         2.598553532546558E-019
  -56.9300000000000         3.200373246715078E-019
  -56.7400000000000         2.863710392718884E-019
  -56.5500000000000         1.729183765973303E-019
  -56.3600000000000         1.616335541527888E-020
  -56.1700000000000        -1.358194949461879E-019
  -55.9800000000000        -2.374677298178825E-019
  -55.7900000000000        -2.589884041890219E-019
  -55.6000000000000        -1.949115600648084E-019
  -55.4100000000000        -6.547484393908435E-020
  -55.2200000000000         8.951744516879489E-020
  -55.0300000000000         2.225254804518122E-019
  -54.8400000000000         2.923239146214621E-019
  -54.6500000000000         2.761822428220475E-019
  -54.4600000000000         1.766484473435982E-019
  -54.2700000000000         2.097345978067899E-020
  -54.0800000000000        -1.466672239529925E-019
  -53.8900000000000        -2.779204014728608E-019
  -53.7000000000000        -3.342868709288175E-019
  -53.5100000000000        -2.983605442163448E-019
  -53.3200000000000        -1.789933491252851E-019
  -53.1300000000000        -8.871331998140086E-021
  -52.9400000000000         1.647936373356368E-019
  -52.7500000000000         2.937442328964905E-019
  -52.5600000000000         3.424189119248153E-019
  -52.3700000000000         2.979970523531965E-019
  -52.1800000000000         1.738879218639255E-019
  -51.9900000000000         5.701620179603128E-021
  -51.8000000000000        -1.591099517882658E-019
  -51.6100000000000        -2.749515492406929E-019
  -51.4200000000000        -3.111762407725029E-019
  -51.2300000000000        -2.607896796425812E-019
  -51.0400000000000        -1.422410709413661E-019
  -50.8500000000000         6.226238625344212E-021
  -50.6600000000000         1.380200893819581E-019
  -50.4700000000000         2.120903442015732E-019
  -50.2800000000000         2.051868727928903E-019
  -50.0900000000000         1.188778104778009E-019
  -49.9000000000000        -2.074916599991677E-020
  -49.7100000000000        -1.706447797811338E-019
  -49.5200000000000        -2.834375271458632E-019
  -49.3300000000000        -3.214814265793091E-019
  -49.1400000000000        -2.682006811243963E-019
  -48.9500000000000        -1.333729030277679E-019
  -48.7600000000000         4.926599496547101E-020
  -48.5700000000000         2.314724576091393E-019
  -48.3800000000000         3.642900962315884E-019
  -48.1900000000000         4.121674274131804E-019
  -48.0000000000000         3.632560492584749E-019
  -47.8100000000000         2.328613244273874E-019
  -47.6200000000000         5.903019092929546E-020
  -47.4300000000000        -1.084379727818187E-019
  -47.2400000000000        -2.223638017257784E-019
  -47.0500000000000        -2.517839909394442E-019
  -46.8600000000000        -1.908477014472053E-019
  -46.6700000000000        -6.044556305192054E-020
  -46.4800000000000         9.790990162949112E-020
  -46.2900000000000         2.342000143898258E-019
  -46.1000000000000         3.045130158970315E-019
  -45.9100000000000         2.839114608745658E-019
  -45.7200000000000         1.738047290728684E-019
  -45.5300000000000         1.676948670335610E-021
  -45.3400000000000        -1.867444760209945E-019
  -45.1500000000000        -3.405896356976982E-019
  -44.9600000000000        -4.184051720413682E-019
  -44.7700000000000        -3.999633013484893E-019
  -44.5800000000000        -2.919348618092643E-019
  -44.3900000000000        -1.258236798988354E-019
  -44.2000000000000         5.121555126317847E-020
  -44.0100000000000         1.900160818616924E-019
  -43.8200000000000         2.535579257819895E-019
  -43.6300000000000         2.275590733182541E-019
  -43.4400000000000         1.244378175153319E-019
  -43.2500000000000        -2.049701564094703E-020
  -43.0600000000000        -1.595122165196185E-019
  -42.8700000000000        -2.465203663624734E-019
  -42.6800000000000        -2.506620460703063E-019
  -42.4900000000000        -1.654672485341808E-019
  -42.3000000000000        -1.095848128324612E-020
  -42.1100000000000         1.719019209800925E-019
  -41.9200000000000         3.328224321079030E-019
  -41.7300000000000         4.265211973868374E-019
  -41.5400000000000         4.256792935578545E-019
  -41.3500000000000         3.287814903667619E-019
  -41.1600000000000         1.605767470525567E-019
  -40.9700000000000        -3.498076493712214E-020
  -40.7800000000000        -2.072611534305532E-019
  -40.5900000000000        -3.133114650457868E-019
  -40.4000000000000        -3.298611767729222E-019
  -40.2100000000000        -2.595203080265042E-019
  -40.0200000000000        -1.294318594759628E-019
  -39.8300000000000         1.714799229573324E-020
  -39.6400000000000         1.338218034929496E-019
  -39.4500000000000         1.847627446267382E-019
  -39.2600000000000         1.551737278878814E-019
  -39.0700000000000         5.546699994972836E-020
  -38.8800000000000        -8.203091934245233E-020
  -38.6900000000000        -2.128645673295757E-019
  -38.5000000000000        -2.938376421281094E-019
  -38.3100000000000        -2.960509642838276E-019
  -38.1200000000000        -2.137356851892050E-019
  -37.9300000000000        -6.626831205444792E-020
  -37.7400000000000         1.072311232235948E-019
  -37.5500000000000         2.591335898927679E-019
  -37.3600000000000         3.470842010962890E-019
  -37.1700000000000         3.463242314847150E-019
  -36.9800000000000         2.569799137286847E-019
  -36.7900000000000         1.042003445245343E-019
  -36.6000000000000        -6.892119863126671E-020
  -36.4100000000000        -2.136333740114472E-019
  -36.2200000000000        -2.894980377932201E-019
  -36.0300000000000        -2.760119972215010E-019
  -35.8400000000000        -1.784973711349985E-019
  -35.6500000000000        -2.652665209989627E-020
  -35.4600000000000         1.346786073064206E-019
  -35.2700000000000         2.573807872783301E-019
  -35.0800000000000         3.051732724546252E-019
  -34.8900000000000         2.635243520615944E-019
  -34.7000000000000         1.439705876690543E-019
  -34.5100000000000        -1.924453133002345E-020
  -34.3200000000000        -1.791118414958980E-019
  -34.1300000000000        -2.895096206212856E-019
  -33.9400000000000        -3.186272624221823E-019
  -33.7500000000000        -2.582691393203673E-019
  -33.5600000000000        -1.263180953138906E-019
  -33.3700000000000         3.839222411631396E-020
  -33.1800000000000         1.873370656081208E-019
  -32.9900000000000         2.764330991633483E-019
  -32.8000000000000         2.789345858551370E-019
  -32.6100000000000         1.933380992481963E-019
  -32.4200000000000         4.398917456450308E-020
  -32.2300000000000        -1.258038332263448E-019
  -32.0400000000000        -2.661832985028373E-019
  -31.8500000000000        -3.351263051337084E-019
  -31.6600000000000        -3.106646489221744E-019
  -31.4700000000000        -1.974048430227953E-019
  -31.2800000000000        -2.542787588324064E-020
  -31.0900000000000         1.581625049564641E-019
  -30.9000000000000         3.026365197889190E-019
  -30.7100000000000         3.681193443806030E-019
  -30.5200000000000         3.369669892252538E-019
  -30.3300000000000         2.187509871292387E-019
  -30.1400000000000         4.743275312686947E-020
  -29.9500000000000        -1.284214159473446E-019
  -29.7600000000000        -2.595350361513812E-019
  -29.5700000000000        -3.099240521568338E-019
  -29.3800000000000        -2.670090297195156E-019
  -29.1900000000000        -1.449731478460022E-019
  -29.0000000000000         1.956167829715911E-020
  -28.8100000000000         1.782722003506370E-019
  -28.6200000000000         2.851759687197233E-019
  -28.4300000000000         3.099111950471753E-019
  -28.2400000000000         2.464004209330841E-019
  -28.0500000000000         1.143859475389995E-019
  -27.8600000000000        -4.658551753373572E-020
  -27.6700000000000        -1.889344937491642E-019
  -27.4800000000000        -2.711031217168001E-019
  -27.2900000000000        -2.697721892031337E-019
  -27.1000000000000        -1.866809408722885E-019
  -26.9100000000000        -4.807679829695074E-020
  -26.7200000000000         1.030315965708243E-019
  -26.5300000000000         2.195561588039080E-019
  -26.3400000000000         2.642489407308768E-019
  -26.1500000000000         2.207926522349236E-019
  -25.9600000000000         9.880667698880063E-020
  -25.7700000000000        -6.871589574114535E-020
  -25.5800000000000        -2.348068735102169E-019
  -25.3900000000000        -3.520187775827257E-019
  -25.2000000000000        -3.860863227495275E-019
  -25.0100000000000        -3.257889738507286E-019
  -24.8200000000000        -1.861732139509891E-019
  -24.6300000000000        -4.229365517537084E-021
  -24.4400000000000         1.717040091683706E-019
  -24.2500000000000         2.957400077828525E-019
  -24.0600000000000         3.374688481384336E-019
  -23.8700000000000         2.904544311746392E-019
  -23.6800000000000         1.737486594005428E-019
  -23.4900000000000         2.599050823859199E-020
  -23.3000000000000        -1.061788837968290E-019
  -23.1100000000000        -1.819821227418765E-019
  -22.9200000000000        -1.785746280176578E-019
  -22.7300000000000        -9.777104091506582E-020
  -22.5400000000000         3.453528109720958E-020
  -22.3500000000000         1.760720085168140E-019
  -22.1600000000000         2.807418796107547E-019
  -21.9700000000000         3.123661129576224E-019
  -21.7800000000000         2.556153324238538E-019
  -21.5900000000000         1.209327918639281E-019
  -21.4000000000000        -5.802492793354269E-020
  -21.2100000000000        -2.337501150620779E-019
  -21.0200000000000        -3.583896296376854E-019
  -20.8300000000000        -3.975035216768841E-019
  -20.6400000000000        -3.400764347197118E-019
  -20.4500000000000        -2.018463499714356E-019
  -20.2600000000000        -2.095276293098335E-020
  -20.0700000000000         1.528573954441159E-019
  -19.8800000000000         2.723579974913288E-019
  -19.6900000000000         3.062392072058577E-019
  -19.5000000000000         2.479218972242742E-019
  -19.3100000000000         1.172642921554100E-019
  -19.1200000000000        -4.532477676437609E-020
  -18.9300000000000        -1.906722835912932E-019
  -18.7400000000000        -2.751326156495850E-019
  -18.5500000000000        -2.732540676989755E-019
  -18.3600000000000        -1.851434268392816E-019
  -18.1700000000000        -3.638338517983635E-020
  -17.9800000000000         1.294694074792805E-019
  -17.7900000000000         2.636066247581945E-019
  -17.6000000000000         3.261918965360524E-019
  -17.4100000000000         2.979466354087684E-019
  -17.2200000000000         1.857504205116565E-019
  -17.0300000000000         2.066190177546561E-020
  -16.8400000000000        -1.510412345837469E-019
  -16.6500000000000        -2.812035975940838E-019
  -16.4600000000000        -3.336637621072510E-019
  -16.2700000000000        -2.946508220806963E-019
  -16.0800000000000        -1.766942018306890E-019
  -15.8900000000000        -1.490800898206826E-020
  -15.7000000000000         1.432706489074329E-019
  -15.5100000000000         2.518976621741918E-019
  -15.3200000000000         2.798639714721611E-019
  -15.1300000000000         2.198845115886205E-019
  -14.9400000000000         9.054039605817240E-020
  -14.7500000000000        -6.918915924915616E-020
  -14.5600000000000        -2.112974709074195E-019
  -14.3700000000000        -2.927272116231473E-019
  -14.1800000000000        -2.879189134891286E-019
  -13.9900000000000        -1.963078861232128E-019
  -13.8000000000000        -4.259186673285226E-020
  -13.6100000000000         1.303304976546503E-019
  -13.4200000000000         2.737268540762249E-019
  -13.2300000000000         3.471240492972715E-019
  -13.0400000000000         3.300225213334603E-019
  -12.8500000000000         2.278094660162473E-019
  -12.6600000000000         7.014558764002292E-020
  -12.4700000000000        -9.769299162680830E-020
  -12.2800000000000        -2.279811129270255E-019
  -12.0900000000000        -2.843821726076300E-019
  -11.9000000000000        -2.524404841969487E-019
  -11.7100000000000        -1.436908690377152E-019
  -11.5200000000000         7.805116325402193E-021
  -11.3300000000000         1.554994203853120E-019
  -11.1400000000000         2.540673077606091E-019
  -10.9500000000000         2.727944283217344E-019
  -10.7600000000000         2.047169116197145E-019
  -10.5700000000000         6.881436298477037E-020
  -10.3800000000000        -9.541251222125991E-020
  -10.1900000000000        -2.394118133750505E-019
  -10.0000000000000        -3.197571351519641E-019
  -9.81000000000000        -3.109025545493876E-019
  -9.62000000000000        -2.128066373521152E-019
  -9.42999999999999        -5.120642007703193E-020
  -9.23999999999999         1.295576154589724E-019
  -9.05000000000000         2.791221082460343E-019
  -8.86000000000000         3.554818951319803E-019
  -8.67000000000000         3.370302480301168E-019
  -8.48000000000000         2.287722603682867E-019
  -8.28999999999999         6.089997367154012E-020
  -8.09999999999999        -1.198668501910877E-019
  -7.91000000000000        -2.636642580574189E-019
  -7.72000000000000        -3.317103750960015E-019
  -7.53000000000000        -3.072639770766632E-019
  -7.34000000000000        -2.001790975562807E-019
  -7.15000000000001        -4.379230558656639E-020
  -6.95999999999999         1.149100692068473E-019
  -6.77000000000000         2.289841157302212E-019
  -6.58000000000000         2.651328999477222E-019
  -6.39000000000000         2.133114107310192E-019
  -6.20000000000000         8.956575751965252E-020
  -6.01000000000001        -6.871822089132208E-020
  -5.81999999999999        -2.137877067839996E-019
  -5.63000000000000        -3.015301224080539E-019
  -5.44000000000000        -3.044278483049804E-019
  -5.25000000000000        -2.196741374403226E-019
  -5.06000000000000        -7.008414143254566E-020
  -4.87000000000000         1.024535950359151E-019
  -4.67999999999999         2.490692336585736E-019
  -4.48999999999999         3.280347459877196E-019
  -4.30000000000000         3.168333177283852E-019
  -4.11000000000000         2.186929110501840E-019
  -3.92000000000000         6.169757460788685E-020
  -3.73000000000000        -1.092752258468884E-019
  -3.53999999999999        -2.454711151511772E-019
  -3.34999999999999        -3.082931176184727E-019
  -3.16000000000000        -2.803801560582576E-019
  -2.97000000000000        -1.705124175580639E-019
  -2.78000000000000        -1.093163737251566E-020
  -2.59000000000000         1.521173862780937E-019
  -2.40000000000001         2.718454378512144E-019
  -2.20999999999999         3.144515889002884E-019
  -2.02000000000000         2.688077261697810E-019
  -1.83000000000000         1.495105309962792E-019
  -1.64000000000000        -7.554547681056291E-021
  -1.45000000000000        -1.558282685660550E-019
  -1.26000000000001        -2.517741765970114E-019
  -1.06999999999999        -2.676581742612885E-019
 -0.879999999999995        -1.996691023831962E-019
 -0.689999999999998        -6.899397743114018E-020
 -0.500000000000000         8.447084044528619E-020
 -0.310000000000002         2.139203959385809E-019
 -0.120000000000005         2.794772556964534E-019
  7.000000000000739E-002    2.599968222283273E-019
  0.260000000000005         1.593889651887449E-019
  0.450000000000003         5.618427761218715E-021
  0.640000000000001        -1.573245577647528E-019
  0.829999999999998        -2.821632782490505E-019
   1.02000000000000        -3.321027366772864E-019
   1.21000000000001        -2.916352430752045E-019
   1.40000000000001        -1.712239911692935E-019
   1.59000000000000        -4.458608404891862E-021
   1.78000000000000         1.615390359251237E-019
   1.97000000000000         2.796970571788642E-019
   2.16000000000000         3.166143351497371E-019
   2.34999999999999         2.622460063295456E-019
   2.54000000000001         1.328298919850701E-019
   2.73000000000000        -3.379533042006585E-020
   2.92000000000000        -1.891197071257182E-019
   3.11000000000000        -2.879771609643950E-019
   3.30000000000000        -3.016023679538923E-019
   3.48999999999999        -2.259654038392413E-019
   3.68000000000001        -8.297370730369627E-020
   3.87000000000000         8.582526686283841E-020
   4.06000000000000         2.312459959908827E-019
   4.25000000000000         3.107139549077915E-019
   4.44000000000000         3.006321405326195E-019
   4.63000000000000         2.032673153976740E-019
   4.82000000000001         4.614854956420144E-020
   5.01000000000001        -1.258482313176034E-019
   5.20000000000000        -2.634301413396461E-019
   5.39000000000000        -3.270872324995264E-019
   5.58000000000000        -2.984676962428818E-019
   5.77000000000000        -1.856612559060348E-019
   5.96000000000001        -2.087638014519506E-020
   6.15000000000001         1.488239699947528E-019
   6.34000000000000         2.750675135314453E-019
   6.53000000000000         3.220936874975010E-019