  -105.000000000000         3.781217645105811E-020
  -104.810000000000         1.042645218265086E-019
  -104.620000000000         1.462838953549485E-019
  -104.430000000000         1.559687036127294E-019
  -104.240000000000         1.344468080561695E-019
  -104.050000000000         9.146019143431605E-020
  -103.860000000000         4.247122580662665E-020
  -103.670000000000         4.132124429332715E-021
  -103.480000000000        -1.056499296792630E-020
  -103.290000000000         3.951898175831655E-021
  -103.100000000000         4.425425891805387E-020
  -102.910000000000         9.896463482320177E-020
  -102.720000000000         1.521266979348769E-019
  -102.530000000000         1.879086063610545E-019
  -102.340000000000         1.952715471654391E-019
  -102.150000000000         1.712481689443533E-019
  -101.960000000000         1.218784254307904E-019
  -101.770000000000         6.052738313888760E-020
  -101.580000000000         4.067511996553581E-021
  -101.390000000000        -3.197080772865977E-020
  -101.200000000000        -3.787332674352686E-020
  -101.010000000000        -1.253876007941084E-020
  -100.820000000000         3.621659453911091E-020
  -100.630000000000         9.393497572225413E-020
  -100.440000000000         1.437105481777786E-019
  -100.250000000000         1.710805885672363E-019
  -100.060000000000         1.681963077148483E-019
  -99.8700000000000         1.360683176730848E-019
  -99.6800000000000         8.424157544358760E-020
  -99.4900000000000         2.799791936493989E-020
  -99.3000000000000        -1.610222538673974E-020
  -99.1100000000000        -3.504733478912841E-020
  -98.9200000000000        -2.317113315220340E-020
  -98.7300000000000         1.618624030831888E-020
  -98.5400000000000         7.163760635222526E-020
  -98.3500000000000         1.270512609665463E-019
  -98.1600000000000         1.662356963335967E-019
  -97.9700000000000         1.776426931956941E-019
  -97.7800000000000         1.577209376090140E-019
  -97.5900000000000         1.119469677618962E-019
  -97.4000000000000         5.323627398391579E-020
  -97.2100000000000        -1.803015992416609E-021
  -97.0200000000000        -3.768749114400187E-020
  -96.8300000000000        -4.455050850728080E-020
  -96.6400000000000        -2.100523587131332E-020
  -96.4500000000000         2.545507522392662E-020
  -96.2600000000000         8.063965479244940E-020
  -96.0700000000000         1.277941346649229E-019
  -95.8800000000000         1.524844736839512E-019
  -95.6900000000000         1.468095175572574E-019
  -95.5000000000000         1.117161943346374E-019
  -95.3100000000000         5.674441519494340E-020
  -95.1200000000000        -2.723836224932084E-021
  -94.9300000000000        -4.991368267382193E-020
  -94.7400000000000        -7.151708147382500E-020
  -94.5500000000000        -6.155719386325140E-020
  -94.3600000000000        -2.313782877682176E-020
  -94.1700000000000         3.243243796450901E-020
  -93.9800000000000         8.889335968803770E-020
  -93.7900000000000         1.297251128211833E-019
  -93.6000000000000         1.429203399405597E-019
  -93.4100000000000         1.244508633032183E-019
  -93.2200000000000         7.942267320539268E-020
  -93.0300000000000         2.058651119184924E-020
  -92.8400000000000        -3.535895464513351E-020
  -92.6500000000000        -7.259514369133367E-020
  -92.4600000000000        -8.074306888256471E-020
  -92.2700000000000        -5.783752588423317E-020
  -92.0800000000000        -1.086089695932563E-020
  -91.8900000000000         4.631274988919712E-020
  -91.7000000000000         9.696518607297607E-020
  -91.5100000000000         1.263993173492537E-019
  -91.3200000000000         1.262099073112382E-019
  -91.1300000000000         9.671748669723797E-020
  -90.9400000000000         4.685586068017757E-020
  -90.7500000000000        -8.454596159978731E-021
  -90.5600000000000        -5.268204990669581E-020
  -90.3700000000000        -7.253143469781333E-020
  -90.1800000000000        -6.185436297228551E-020
  -89.9900000000000        -2.348446663418614E-020
  -89.8000000000000         3.153445629268060E-020
  -89.6100000000000         8.710492969296260E-020
  -89.4200000000000         1.267054248850438E-019
  -89.2300000000000         1.381558108246551E-019
  -89.0400000000000         1.171405846018779E-019
  -88.8500000000000         6.846929878337614E-020
  -88.6600000000000         4.708085021646733E-021
  -88.4700000000000        -5.742099931326722E-020
  -88.2800000000000        -1.018273594561319E-019
  -88.0900000000000        -1.176365185449842E-019
  -87.9000000000000        -1.022443878662975E-019
  -87.7100000000000        -6.196195352891514E-020
  -87.5200000000000        -1.007311983999828E-020
  -87.3300000000000         3.712170999914626E-020
  -87.1400000000000         6.512240675979843E-020
  -86.9500000000000         6.550517597443014E-020
  -86.7600000000000         3.841369647076668E-020
  -86.5700000000000        -7.462547499817187E-021
  -86.3800000000000        -5.742176519206801E-020
  -86.1900000000000        -9.506214356437401E-020
  -86.0000000000000        -1.071178304048289E-019
  -85.8100000000000        -8.740659177920750E-020
  -85.6200000000000        -3.873409341723634E-020
  -85.4300000000000         2.780417144538062E-020
  -85.2400000000000         9.592362573167414E-020
  -85.0500000000000         1.487565853946463E-019
  -84.8600000000000         1.736317413091633E-019
  -84.6700000000000         1.656476743154684E-019
  -84.4800000000000         1.290104600014920E-019
  -84.2900000000000         7.575034136202747E-020
  -84.1000000000000         2.218838092520388E-020
  -83.9100000000000        -1.582487280880749E-020
  -83.7200000000000        -2.751837256985144E-020
  -83.5300000000000        -1.031792969151653E-020
  -83.3400000000000         2.943545580231379E-020
  -83.1500000000000         7.837524594674558E-020
  -82.9600000000000         1.200555584031550E-019
  -82.7700000000000         1.398036976400073E-019
  -82.5800000000000         1.290668346474228E-019
  -82.3900000000000         8.799019618330577E-020
  -82.2000000000000         2.547889641329592E-020
  -82.0100000000000        -4.327571194182480E-020
  -81.8200000000000        -1.010919635334158E-019
  -81.6300000000000        -1.336765099064122E-019
  -81.4400000000000        -1.336765281817219E-019
  -81.2500000000000        -1.027337193845274E-019
  -81.0600000000000        -5.094611688100936E-020
  -80.8700000000000         6.104076697955519E-021
  -80.6800000000000         5.189089886313517E-020
  -80.4900000000000         7.373253311426888E-020
  -80.3000000000000         6.643706413330960E-020
  -80.1100000000000         3.375228795440205E-020
  -79.9200000000000        -1.279445942170243E-020
  -79.7300000000000        -5.732443028891588E-020
  -79.5400000000000        -8.430695473240154E-020
  -79.3500000000000        -8.316699810864318E-020
  -79.1600000000000        -5.146296154002524E-020
  -78.9700000000000         4.291783505565883E-021
  -78.7800000000000         7.040923212043954E-020
  -78.5900000000000         1.298993349029320E-019
  -78.4000000000000         1.673154007418782E-019
  -78.2100000000000         1.731683483872749E-019
  -78.0200000000000         1.466314532067016E-019
  -77.8300000000000         9.575570740524214E-020
  -77.6400000000000         3.513942562439121E-020
  -77.4500000000000        -1.826809443572740E-020
  -77.2600000000000        -5.001329198024725E-020
  -77.0700000000000        -5.223689511866221E-020
  -76.8800000000000        -2.584530917639407E-020
  -76.6900000000000         1.986664313037124E-020
  -76.5000000000000         7.002689692119270E-020
  -76.3100000000000         1.086114278954078E-019
  -76.1200000000000         1.231930958559708E-019
  -75.9300000000000         1.086261200303182E-019
  -75.7400000000000         6.858639253002927E-020
  -75.5500000000000         1.451385538892420E-020
  -75.3600000000000        -3.773633472451633E-020
  -75.1700000000000        -7.255643511639898E-020
  -74.9800000000000        -7.920124357540052E-020
  -74.7900000000000        -5.500807116840500E-020
  -74.6000000000000        -6.278460834519856E-021
  -74.4100000000000         5.344479374065246E-020
  -74.2200000000000         1.072177474522201E-019
  -74.0300000000000         1.395494913524418E-019
  -73.8400000000000         1.408682823563701E-019
  -73.6500000000000         1.103036717130028E-019
  -73.4600000000000         5.597265912192762E-020
  -73.2700000000000        -7.319103594808609E-021
  -73.0800000000000        -6.229883062883743E-020
  -72.8900000000000        -9.414987049991153E-020
  -72.7000000000000        -9.471344987823337E-020
  -72.5100000000000        -6.475766260454045E-020
  -72.3200000000000        -1.366479060612353E-020
  -72.1300000000000         4.336408967030449E-020
  -71.9400000000000         8.977087192870984E-020
  -71.7500000000000         1.124710866969575E-019
  -71.5600000000000         1.056493052589641E-019
  -71.3700000000000         7.241466440693024E-020
  -71.1800000000000         2.383332811071502E-020
  -70.9900000000000        -2.438033784711337E-020
  -70.8000000000000        -5.654653465792031E-020
  -70.6100000000000        -6.170578847760153E-020
  -70.4200000000000        -3.693528563940974E-020
  -70.2300000000000         1.167602318929372E-020
  -70.0400000000000         7.068255584758237E-020
  -69.8500000000000         1.230928826035902E-019
  -69.6600000000000         1.532387491388144E-019
  -69.4700000000000         1.513002778566567E-019
  -69.2800000000000         1.161834211200126E-019
  -69.0900000000000         5.591733690674542E-020
  -68.9000000000000        -1.454931894662483E-020
  -68.7100000000000        -7.752519164252869E-020
  -68.5200000000000        -1.175270565038808E-019
  -68.3300000000000        -1.255800853307241E-019
  -68.1400000000000        -1.016313950499043E-019
  -67.9500000000000        -5.438950289710000E-020
  -67.7600000000000         1.349409552565846E-021
  -67.5700000000000         4.909943675117611E-020
  -67.3800000000000         7.552252429453315E-020
  -67.1900000000000         7.430007634065246E-020
  -67.0000000000000         4.791842018730339E-020
  -66.8100000000000         6.855335366609740E-021
  -66.6200000000000        -3.359071633022562E-020
  -66.4300000000000        -5.790181460245419E-020
  -66.2400000000000        -5.502721586344291E-020
  -66.0500000000000        -2.178218598212945E-020
  -65.8600000000000         3.604124698499200E-020
  -65.6700000000000         1.051844745409287E-019
  -65.4800000000000         1.686194815223199E-019
  -65.2900000000000         2.103592061480120E-019
  -65.1000000000000         2.199831675094339E-019
  -64.9100000000000         1.955659347745794E-019
  -64.7200000000000         1.441632689943766E-019
  -64.5300000000000         7.972135680451428E-020
  -64.3400000000000         1.902182820572608E-020
  -64.1500000000000        -2.315619016624684E-020
  -63.9600000000000        -3.824960711193199E-020
  -63.7700000000000        -2.627548207858498E-020
  -63.5800000000000         4.339492137633018E-021
  -63.3900000000000         3.940781733306305E-020
  -63.2000000000000         6.332582956908909E-020
  -63.0100000000000         6.383559554387774E-020
  -62.8200000000000         3.580615458871019E-020
  -62.6300000000000        -1.707321689741396E-020
  -62.4400000000000        -8.318317844077598E-020
  -62.2500000000000        -1.461915604807915E-019
  -62.0600000000000        -1.896680426365679E-019
  -61.8700000000000        -2.017644086937648E-019
  -61.6800000000000        -1.786102605951467E-019
  -61.4900000000000        -1.254438176851289E-019
  -61.3000000000000        -5.514993005235303E-020
  -61.1100000000000         1.537361523867729E-020
  -60.9200000000000         6.997145333557953E-020
  -60.7300000000000         9.773284813519016E-020
  -60.5400000000000         9.594153802667567E-020
  -60.3500000000000         7.062801525430564E-020
  -60.1600000000000         3.457747176582874E-020
  -59.9700000000000         3.384377111837425E-021
  -59.7800000000000        -9.292576111220593E-021
  -59.5900000000000         4.106166678035503E-021
  -59.4000000000000         4.267123952342863E-020
  -59.2100000000000         9.714412661541999E-020
  -59.0200000000000         1.525066001015205E-019
  -58.8300000000000         1.923063692730528E-019
  -58.6400000000000         2.034776520397774E-019
  -58.4500000000000         1.802614050383463E-019
  -58.2600000000000         1.260788995500707E-019
  -58.0700000000000         5.279675818940085E-020
  -57.8800000000000        -2.242617923733241E-020
  -57.6900000000000        -8.181943541506351E-020
  -57.5000000000000        -1.118751241090027E-019
  -57.3100000000000        -1.070249804014799E-019
  -57.1200000000000        -7.107332627687504E-020
  -56.9300000000000        -1.598352187388949E-020
  -56.7400000000000         4.162527270073316E-020
  -56.5500000000000         8.525776720830894E-020
  -56.3600000000000         1.032205317495068E-019
  -56.1700000000000         9.185319849407049E-020
  -55.9800000000000         5.639091214148375E-020
  -55.7900000000000         9.227579410827846E-021
  -55.6000000000000        -3.389291719328603E-020
  -55.4100000000000        -5.862962557365585E-020
  -55.2200000000000        -5.634557845683332E-020
  -55.0300000000000        -2.670150052287566E-020
  -54.8400000000000         2.220919200908540E-020
  -54.6500000000000         7.621727696621880E-020
  -54.4600000000000         1.192361925319552E-019
  -54.2700000000000         1.380102737087615E-019
  -54.0800000000000         1.260693661123917E-019
  -53.8900000000000         8.573354169693566E-020
  -53.7000000000000         2.757385081877621E-020
  -53.5100000000000        -3.252765362001421E-020
  -53.3200000000000        -7.787627348746906E-020
  -53.1300000000000        -9.572341819419447E-020
  -52.9400000000000        -8.091079918713229E-020
  -52.7500000000000        -3.734970151508016E-020
  -52.5600000000000         2.308579724294390E-020
  -52.3700000000000         8.392531384935501E-020
  -52.1800000000000         1.287543863999816E-019
  -51.9900000000000         1.458153928941168E-019
  -51.8000000000000         1.312416013912939E-019
  -51.6100000000000         9.000575879354282E-020
  -51.4200000000000         3.432361874228918E-020
  -51.2300000000000        -2.001314369714380E-020
  -51.0400000000000        -5.830106500261880E-020
  -50.8500000000000        -7.122247407264087E-020
  -50.6600000000000        -5.751907291194716E-020
  -50.4700000000000        -2.425858172151167E-020
  -50.2800000000000         1.538275389296237E-020
  -50.0900000000000         4.616889880367804E-020
  -49.9000000000000         5.549112002907702E-020
  -49.7100000000000         3.730869517987723E-020
  -49.5200000000000        -5.829123978187484E-021
  -49.3300000000000        -6.329642458207883E-020
  -49.1400000000000        -1.193162248139309E-019
  -48.9500000000000        -1.574657153083865E-019
  -48.7600000000000        -1.654558715743047E-019
  -48.5700000000000        -1.387857185797167E-019
  -48.3800000000000        -8.218827596484754E-020
  -48.1900000000000        -8.424811218594505E-021
  -48.0000000000000         6.524041906521278E-020
  -47.8100000000000         1.218715695653697E-019
  -47.6200000000000         1.496012635242545E-019
  -47.4300000000000         1.449075242482648E-019
  -47.2400000000000         1.134813556700431E-019
  -47.0500000000000         6.843731536684692E-020
  -46.8600000000000         2.638730459011521E-020
  -46.6700000000000         2.514444462698260E-021
  -46.4800000000000         6.073556627567462E-021
  -46.2900000000000         3.762399864940257E-020
  -46.1000000000000         8.880173652665403E-020
  -45.9100000000000         1.447020618199558E-019
  -45.7200000000000         1.881850998649621E-019
  -45.5300000000000         2.048558592505664E-019
  -45.3400000000000         1.872744441522538E-019
  -45.1500000000000         1.371777035389780E-019
  -44.9600000000000         6.507319680376668E-020
  -44.7700000000000        -1.267180816826981E-020
  -44.5800000000000        -7.840213366825642E-020
  -44.3900000000000        -1.180891951305259E-019
  -44.2000000000000        -1.251769673509133E-019
  -44.0100000000000        -1.022599622040506E-019
  -43.8200000000000        -6.012043147790085E-020
  -43.6300000000000        -1.441431656337769E-020
  -43.4400000000000         1.902538806581298E-020
  -43.2500000000000         2.889976424387953E-020
  -43.0600000000000         1.179888718862581E-020
  -42.8700000000000        -2.677420818517293E-020
  -42.6800000000000        -7.400653736628700E-020
  -42.4900000000000        -1.135388203537133E-019
  -42.3000000000000        -1.302992646863689E-019
  -42.1100000000000        -1.150096379151684E-019
  -41.9200000000000        -6.706082437180888E-020
  -41.7300000000000         5.076820430191465E-021
  -41.5400000000000         8.603586706993720E-020
  -41.3500000000000         1.577096415427757E-019
  -41.1600000000000         2.041986740976110E-019
  -40.9700000000000         2.161302923985773E-019
  -40.7800000000000         1.931173101536481E-019
  -40.5900000000000         1.436629113983958E-019
  -40.4000000000000         8.256151042561848E-020
  -40.2100000000000         2.657026936967299E-020
  -40.0200000000000        -1.038018654306138E-020
  -39.8300000000000        -2.104715392518319E-020
  -39.6400000000000        -6.705023325258325E-021
  -39.4500000000000         2.356050874611202E-020
  -39.2600000000000         5.585447363500088E-020
  -39.0700000000000         7.586534277957382E-020
  -38.8800000000000         7.334177043726505E-020
  -38.6900000000000         4.532669920342237E-020
  -38.5000000000000        -2.810010695057714E-021
  -38.3100000000000        -5.884942830419172E-020
  -38.1200000000000        -1.072791600041298E-019
  -37.9300000000000        -1.338795397422768E-019
  -37.7400000000000        -1.299880726812079E-019
  -37.5500000000000        -9.518342493515341E-020
  -37.3600000000000        -3.759273479119303E-020
  -37.1700000000000         2.828106630400232E-020
  -36.9800000000000         8.559496009927529E-020
  -36.7900000000000         1.199070846333311E-019
  -36.6000000000000         1.232586034931915E-019
  -36.4100000000000         9.641591909213369E-020
  -36.2200000000000         4.861843497069030E-020
  -36.0300000000000        -5.105018355708216E-021
  -35.8400000000000        -4.828340834957566E-020
  -35.6500000000000        -6.776069055689068E-020
  -35.4600000000000        -5.748625481227088E-020
  -35.2700000000000        -2.024061232671956E-020
  -35.0800000000000         3.320202334791120E-020
  -34.8900000000000         8.722829767695209E-020
  -34.7000000000000         1.259403169513637E-019
  -34.5100000000000         1.377892923035716E-019
  -34.3200000000000         1.189454368851091E-019
  -34.1300000000000         7.442639798397665E-020
  -33.9400000000000         1.665339409484719E-020
  -33.7500000000000        -3.815176407069503E-020
  -33.5600000000000        -7.468755136094951E-020
  -33.3700000000000        -8.304050912471931E-020
  -33.1800000000000        -6.159622660089799E-020
  -32.9900000000000        -1.753806094760844E-020
  -32.8000000000000         3.522186912914767E-020
  -32.6100000000000         8.008777421396433E-020
  -32.4200000000000         1.026338652261708E-019
  -32.2300000000000         9.486147265329580E-020
  -32.0400000000000         5.762269513902350E-020
  -31.8500000000000         4.982827935516591E-022
  -31.6600000000000        -6.085185784175721E-020
  -31.4700000000000        -1.091184595765293E-019
  -31.2800000000000        -1.302875678726027E-019
  -31.0900000000000        -1.176777781106465E-019
  -30.9000000000000        -7.390187075983512E-020
  -30.7100000000000        -1.018006366373053E-020
  -30.5200000000000         5.680313802882587E-020
  -30.3300000000000         1.095963457825027E-019
  -30.1400000000000         1.348838011068330E-019
  -29.9500000000000         1.271898781388878E-019
  -29.7600000000000         9.033401518950887E-020
  -29.5700000000000         3.623540180022846E-020
  -29.3800000000000        -1.857324097802472E-020
  -29.1900000000000        -5.771154784674893E-020
  -29.0000000000000        -6.962563745388902E-020
  -28.8100000000000        -5.083141898234839E-020
  -28.6200000000000        -6.803842920664159E-021
  -28.4300000000000         4.972943763719121E-020
  -28.2400000000000         1.025790411553158E-019
  -28.0500000000000         1.368537461601638E-019
  -27.8600000000000         1.432947870106638E-019
  -27.6700000000000         1.209203859387883E-019
  -27.4800000000000         7.721681246952171E-020
  -27.2900000000000         2.583365793212800E-020
  -27.1000000000000        -1.752938942503711E-020
  -26.9100000000000        -3.983137464611484E-020
  -26.7200000000000        -3.461066881009686E-020
  -26.5300000000000        -3.964832049497279E-021
  -26.3400000000000         4.199665240630728E-020
  -26.1500000000000         8.807560373805833E-020
  -25.9600000000000         1.184375400143121E-019
  -25.7700000000000         1.212961642328393E-019
  -25.5800000000000         9.246150115395993E-020
  -25.3900000000000         3.671306430013041E-020
  -25.2000000000000        -3.340692023143363E-020
  -25.0100000000000        -1.010350734084580E-019
  -24.8200000000000        -1.496714812496211E-019
  -24.6300000000000        -1.677597262991312E-019
  -24.4400000000000        -1.518496351523020E-019
  -24.2500000000000        -1.074424535419358E-019
  -24.0600000000000        -4.728761222941357E-020
  -23.8700000000000         1.236509930532833E-020
  -23.6800000000000         5.646439290997062E-020
  -23.4900000000000         7.543961383568843E-020
  -23.3000000000000         6.782171815765592E-020
  -23.1100000000000         4.044642253647888E-020
  -22.9200000000000         6.193531214323122E-021
  -22.7300000000000        -2.005930733428562E-020
  -22.5400000000000        -2.606670451698197E-020
  -22.3500000000000        -6.059012003649724E-021
  -22.1600000000000         3.733830736846930E-020
  -21.9700000000000         9.368356666246510E-020
  -21.7800000000000         1.476418039737054E-019
  -21.5900000000000         1.834138757810447E-019
  -21.4000000000000         1.893901228544313E-019
  -21.2100000000000         1.616714937698473E-019
  -21.0200000000000         1.054182180233697E-019
  -20.8300000000000         3.360836864848564E-020
  -20.6400000000000        -3.646172720919098E-020
  -20.4500000000000        -8.794439175484997E-020
  -20.2600000000000        -1.091103074805798E-019
  -20.0700000000000        -9.657936739183217E-020
  -19.8800000000000        -5.618390506296490E-020
  -19.6900000000000        -1.217170616732171E-021
  -19.5000000000000         5.142813430413036E-020
  -19.3100000000000         8.612082229520037E-020
  -19.1200000000000         9.295507625734859E-020
  -18.9300000000000         7.053535552356002E-020
  -18.7400000000000         2.628389009567659E-020
  -18.5500000000000        -2.581284482243664E-020
  -18.3600000000000        -6.936060680357109E-020
  -18.1700000000000        -9.040565394538728E-020
  -17.9800000000000        -8.156248182694010E-020
  -17.7900000000000        -4.422025876437996E-020
  -17.6000000000000         1.181060075857350E-020
  -17.4100000000000         7.110376129333148E-020
  -17.2200000000000         1.170549816057719E-019
  -17.0300000000000         1.366641522230485E-019
  -16.8400000000000         1.242781156062617E-019
  -16.6500000000000         8.321485654936784E-020
  -16.4600000000000         2.480245737774101E-020
  -16.2700000000000        -3.488742812011398E-020
  -16.0800000000000        -7.966520539169558E-020
  -15.8900000000000        -9.786741541890755E-020
  -15.7000000000000        -8.567296462599786E-020
  -15.5100000000000        -4.813197507324353E-020
  -15.3200000000000         2.385380123159993E-021
  -15.1300000000000         4.986148601393425E-020
  -14.9400000000000         7.935185224037960E-020
  -14.7500000000000         8.138021973723613E-020
  -14.5600000000000         5.473398987236145E-020
  -14.3700000000000         6.851645031957601E-021
  -14.1800000000000        -4.830973685370862E-020
  -13.9900000000000        -9.431128281688099E-020
  -13.8000000000000        -1.170067593382072E-019
  -13.6100000000000        -1.086715894006364E-019
  -13.4200000000000        -7.028614098620326E-020
  -13.2300000000000        -1.130530516572110E-020
  -13.0400000000000         5.302361904419842E-020
  -12.8500000000000         1.060176578424207E-019
  -12.6600000000000         1.343233879397663E-019
  -12.4700000000000         1.317063845610217E-019
  -12.2800000000000         1.007673446284074E-019
  -12.0900000000000         5.209283250261517E-020
  -11.9000000000000         1.094680106180190E-021
  -11.7100000000000        -3.653779845111287E-020
  -11.5200000000000        -4.944694495878262E-020
  -11.3300000000000        -3.393301397126477E-020
  -11.1400000000000         4.975825202597739E-021
  -10.9500000000000         5.502769013042037E-020
  -10.7600000000000         1.003912674248580E-019
  -10.5700000000000         1.263767385122841E-019
  -10.3800000000000         1.238499143348175E-019
  -10.1900000000000         9.204160340316807E-020
  -10.0000000000000         3.892055329310168E-020
  -9.81000000000000        -2.099211722852673E-020
  -9.62000000000000        -7.074449045916950E-020
  -9.42999999999999        -9.582573091493846E-020
  -9.23999999999999        -8.838236735365412E-020
  -9.05000000000000        -4.955779360167848E-020
  -8.86000000000000         1.072958671923291E-020
  -8.67000000000000         7.651824031963213E-020
  -8.48000000000000         1.302694786174804E-019
  -8.28999999999999         1.577883408512640E-019
  -8.09999999999999         1.521864875819070E-019
  -7.91000000000000         1.157510322982988E-019
  -7.72000000000000         5.919044214872389E-020
  -7.53000000000000        -1.512121307679263E-021
  -7.34000000000000        -4.971921339780895E-020
  -7.15000000000001        -7.289649669637941E-020
  -6.95999999999999        -6.614030915245272E-020
  -6.77000000000000        -3.347036158343123E-020
  -6.58000000000000         1.347075490597339E-020
  -6.39000000000000         5.892296442045380E-020
  -6.20000000000000         8.769629540426762E-020
  -6.01000000000001         8.967681138395902E-020
  -5.81999999999999         6.283874825480346E-020
  -5.63000000000000         1.388355448155837E-020
  -5.44000000000000        -4.368245273617989E-020
  -5.25000000000000        -9.347214138198369E-020
  -5.06000000000000        -1.209991778749062E-019
  -4.87000000000000        -1.179240797825861E-019
  -4.67999999999999        -8.452941105660967E-020
  -4.48999999999999        -2.970453299021179E-020
  -4.30000000000000         3.155793306281818E-020
  -4.11000000000000         8.243292479678225E-020
  -3.92000000000000         1.090700209342990E-019
  -3.73000000000000         1.045501440665939E-019
  -3.53999999999999         7.084924167177763E-020
  -3.34999999999999         1.824163955866091E-020
  -3.16000000000000        -3.768232144062847E-020
  -2.97000000000000        -8.051711593417902E-020
  -2.78000000000000        -9.775430115258405E-020
  -2.59000000000000        -8.434165500655416E-020
  -2.40000000000001        -4.406518671426990E-020
  -2.20999999999999         1.163303082712288E-020
  -2.02000000000000         6.704266575877949E-020
  -1.83000000000000         1.067829001895552E-019
  -1.64000000000000         1.202687186045014E-019
  -1.45000000000000         1.047473510610258E-019
  -1.26000000000001         6.602511877053453E-020
  -1.06999999999999         1.667904543899604E-020
 -0.879999999999995        -2.771704584223000E-020
 -0.689999999999998        -5.324003842459198E-020
 -0.500000000000000        -5.176973643824809E-020
 -0.310000000000002        -2.342256898178072E-020
 -0.120000000000005         2.345020792354754E-020
  7.000000000000739E-002    7.470024532640170E-020
  0.260000000000005         1.145418951310236E-019
  0.450000000000003         1.302175974612701E-019
  0.640000000000001         1.158055151109344E-019
  0.829999999999998         7.405417068962309E-020
   1.02000000000000         1.569889927162108E-020
   1.21000000000001        -4.355620880486556E-020
   1.40000000000001        -8.752783605809285E-020
   1.59000000000000        -1.042176830176405E-019
   1.78000000000000        -8.929504240321846E-020
   1.97000000000000        -4.737761355833957E-020
   2.16000000000000         9.271968712877541E-021
   2.34999999999999         6.426370115340940E-020
   2.54000000000001         1.017959114932979E-019
   2.73000000000000         1.112041948419733E-019
   2.92000000000000         9.002726627512381E-020
   3.11000000000000         4.470306380656307E-020
   3.30000000000000        -1.130699144067424E-020
   3.48999999999999        -6.142592976102194E-020
   3.68000000000001        -9.077514531960102E-020
   3.87000000000000        -9.050424716148251E-020
   4.06000000000000        -6.038247719037896E-020
   4.25000000000000        -8.896281855004910E-021
   4.44000000000000         4.918159721183414E-020
   4.63000000000000         9.705204552521204E-020
   4.82000000000001         1.207465526965902E-019
   5.01000000000001         1.131750829300170E-019
   5.20000000000000         7.619363752757828E-020
   5.39000000000000         2.009448701285690E-020
   5.58000000000000        -3.933323121767189E-020
   5.77000000000000        -8.532548167181898E-020
   5.96000000000001        -1.049465570966858E-019
   6.15000000000001        -9.279153606097781E-020
   6.34000000000000        -5.252184512598899E-020
   6.53000000000000         4.208468971760885E-021