  -105.000000000000         3.781217645105811E-020
  -104.810000000000         8.439295589185007E-020
  -104.620000000000         7.131205626524634E-020
  -104.430000000000         2.332470279113466E-020
  -104.240000000000        -4.460400014054795E-021
  -104.050000000000         2.045581843096331E-020
  -103.860000000000         7.710519452243121E-020
  -103.670000000000         1.116212508007007E-019
  -103.480000000000         8.943657343091357E-020
  -103.290000000000         2.912615511973886E-020
  -103.100000000000        -1.456791426373223E-020
  -102.910000000000        -2.429698692967123E-021
  -102.720000000000         5.215548236744503E-020
  -102.530000000000         9.614827673645268E-020
  -102.340000000000         8.745037282819776E-020
  -102.150000000000         3.487372705368567E-020
  -101.960000000000        -1.057209102524998E-020
  -101.770000000000        -4.666613652427159E-021
  -101.580000000000         4.756063852747087E-020
  -101.390000000000         9.646567009992029E-020
  -101.200000000000         9.513701414835664E-020
  -101.010000000000         4.422651447029789E-020
  -100.820000000000        -8.618114662263451E-021
  -100.630000000000        -1.421965237279056E-020
  -100.440000000000         3.118437529894097E-020
  -100.250000000000         8.235458721319014E-020
  -100.060000000000         8.827447057221841E-020
  -99.8700000000000         4.098462610350043E-020
  -99.6800000000000        -1.657558189789381E-020
  -99.4900000000000        -3.129559830093631E-020
  -99.3000000000000         9.571570098469203E-021
  -99.1100000000000         6.625955275102900E-020
  -98.9200000000000         8.431578086237945E-020
  -98.7300000000000         4.630337266005507E-020
  -98.5400000000000        -1.189695396351486E-020
  -98.3500000000000        -3.559060679303533E-020
  -98.1600000000000        -3.523880885237226E-021
  -97.9700000000000         5.200309033923125E-020
  -97.7800000000000         7.631358144134572E-020
  -97.5900000000000         4.496860597761732E-020
  -97.4000000000000        -1.255724096160367E-020
  -97.2100000000000        -4.088308614492576E-020
  -97.0200000000000        -1.171607665442894E-020
  -96.8300000000000         4.879284687129479E-020
  -96.6400000000000         8.447687689998779E-020
  -96.4500000000000         6.210156744831041E-020
  -96.2600000000000         2.434036097009298E-021
  -96.0700000000000        -4.004516753245573E-020
  -95.8800000000000        -2.929203926803322E-020
  -95.6900000000000         1.815707626433464E-020
  -95.5000000000000         4.969124421181872E-020
  -95.3100000000000         2.795546457015092E-020
  -95.1200000000000        -3.221296964110799E-020
  -94.9300000000000        -7.677339076399976E-020
  -94.7400000000000        -6.323769014701562E-020
  -94.5500000000000        -9.430932601377229E-022
  -94.3600000000000         5.749829390680237E-020
  -94.1700000000000         6.549639028360753E-020
  -93.9800000000000         2.570136905100492E-020
  -93.7900000000000        -1.387532081639146E-020
  -93.6000000000000        -6.943130507798275E-021
  -93.4100000000000         4.590258382059271E-020
  -93.2200000000000         9.716580058776342E-020
  -93.0300000000000         9.759863075422992E-020
  -92.8400000000000         4.335119016207714E-020
  -92.6500000000000        -1.992557778217604E-020
  -92.4600000000000        -3.997722009917895E-020
  -92.2700000000000        -6.970463747105500E-021
  -92.0800000000000         3.807622120475610E-020
  -91.8900000000000         4.344299937037701E-020
  -91.7000000000000        -2.994595522709202E-021
  -91.5100000000000        -6.148328847323319E-020
  -91.3200000000000        -7.792954615162314E-020
  -91.1300000000000        -3.541336079470114E-020
  -90.9400000000000         2.950402147300242E-020
  -90.7500000000000         6.122512336587363E-020
  -90.5600000000000         3.745983646330827E-020
  -90.3700000000000        -1.041224653848334E-020
  -90.1800000000000        -2.830503737688530E-020
  -89.9900000000000         7.958940998002610E-021
  -89.8000000000000         6.878674304219682E-020
  -89.6100000000000         9.865669814135958E-020
  -89.4200000000000         6.915297149327361E-020
  -89.2300000000000         6.538084784444880E-021
  -89.0400000000000        -3.255081877660626E-020
  -88.8500000000000        -1.428128078306713E-020
  -88.6600000000000         4.080128252354397E-020
  -88.4700000000000         7.773785139605378E-020
  -88.2800000000000         5.957277029989047E-020
  -88.0900000000000         2.285035579402555E-021
  -87.9000000000000        -4.095405665727160E-020
  -87.7100000000000        -3.095382460390715E-020
  -87.5200000000000         1.995469710788965E-020
  -87.3300000000000         5.993072667604115E-020
  -87.1400000000000         4.765528312716766E-020
  -86.9500000000000        -7.515745092113365E-021
  -86.7600000000000        -5.378488540527880E-020
  -86.5700000000000        -4.588891805088500E-020
  -86.3800000000000         1.176759164740978E-020
  -86.1900000000000         6.895820868287945E-020
  -86.0000000000000         7.683002285129387E-020
  -85.8100000000000         3.345977454576011E-020
  -85.6200000000000        -1.556109156685818E-020
  -85.4300000000000        -2.177295937990287E-020
  -85.2400000000000         1.921864165712257E-020
  -85.0500000000000         6.353494588988244E-020
  -84.8600000000000         6.161887310318005E-020
  -84.6700000000000         6.874504459694801E-021
  -84.4800000000000        -5.636493765363872E-020
  -84.2900000000000        -7.354483612327788E-020
  -84.1000000000000        -3.075520425417380E-020
  -83.9100000000000         3.259794503240801E-020
  -83.7200000000000         6.132818613256153E-020
  -83.5300000000000         3.643673583166964E-020
  -83.3400000000000        -7.879349169212440E-021
  -83.1500000000000        -1.815805445752484E-020
  -82.9600000000000         2.599872994874577E-020
  -82.7700000000000         9.121579363454902E-020
  -82.5800000000000         1.211027117969210E-019
  -82.3900000000000         8.921117290612351E-020
  -82.2000000000000         2.370675555120136E-020
  -82.0100000000000        -1.971552532979531E-020
  -81.8200000000000        -1.070295722315502E-020
  -81.6300000000000         2.763658973511917E-020
  -81.4400000000000         4.218481833129366E-020
  -81.2500000000000         2.356899872713546E-021
  -81.0600000000000        -6.858206184177452E-020
  -80.8700000000000        -1.136216321640762E-019
  -80.6800000000000        -9.472315030170605E-020
  -80.4900000000000        -2.814448569129998E-020
  -80.3000000000000         3.114554629079847E-020
  -80.1100000000000         4.096713804051695E-020
  -79.9200000000000         1.021329156594187E-020
  -79.7300000000000        -1.233886684945989E-020
  -79.5400000000000         1.249577178649590E-020
  -79.3500000000000         7.433480132403291E-020
  -79.1600000000000         1.214103675410775E-019
  -78.9700000000000         1.094419538297460E-019
  -78.7800000000000         4.461048319660762E-020
  -78.5900000000000        -2.064381753305071E-020
  -78.4000000000000        -3.544061715301254E-020
  -78.2100000000000         3.234503112084222E-021
  -78.0200000000000         4.942384511659975E-020
  -77.8300000000000         5.296418512768568E-020
  -77.6400000000000         7.333604605735552E-021
  -77.4500000000000        -4.481306702255292E-020
  -77.2600000000000        -5.327900541511593E-020
  -77.0700000000000        -9.004402495858754E-021
  -76.8800000000000         4.693830391225361E-020
  -76.6900000000000         6.268141084405290E-020
  -76.5000000000000         2.549827272096938E-020
  -76.3100000000000        -2.564794828068599E-020
  -76.1200000000000        -3.719887972415938E-020
  -75.9300000000000         7.511130948093699E-021
  -75.7400000000000         7.149595879655732E-020
  -75.5500000000000         9.823727344380688E-020
  -75.3600000000000         6.441813938994099E-020
  -75.1700000000000         1.236453435798286E-021
  -74.9800000000000        -3.584316925616344E-020
  -74.7900000000000        -1.987381889156186E-020
  -74.6000000000000         2.274283644096852E-020
  -74.4100000000000         3.901035228348926E-020
  -74.2200000000000         1.830291095255196E-021
  -74.0300000000000        -6.230011318820420E-020
  -73.8400000000000        -9.722094812351563E-020
  -73.6500000000000        -7.009790098800189E-020
  -73.4600000000000        -2.928062814615156E-021
  -73.2700000000000         4.773560637051715E-020
  -73.0800000000000         4.383488765651817E-020
  -72.8900000000000         1.252374155307547E-021
  -72.7000000000000        -2.608443646939453E-020
  -72.5100000000000         1.684132448618023E-021
  -72.3200000000000         7.156418494340938E-020
  -72.1300000000000         1.289989905011200E-019
  -71.9400000000000         1.283513238639221E-019
  -71.7500000000000         7.462165499881910E-020
  -71.5600000000000         1.706400155760203E-020
  -71.3700000000000         1.319215152572184E-021
  -71.1800000000000         2.617287017851985E-020
  -70.9900000000000         4.639485842507806E-020
  -70.8000000000000         1.878680481228005E-020
  -70.6100000000000        -5.299173991429741E-020
  -70.4200000000000        -1.182417234501657E-019
  -70.2300000000000        -1.245510426798924E-019
  -70.0400000000000        -6.602978253078704E-020
  -69.8500000000000         1.113328716155065E-020
  -69.6600000000000         5.104939984454845E-020
  -69.4700000000000         3.834633815041503E-020
  -69.2800000000000         8.906049363998271E-021
  -69.0900000000000         1.165824589275076E-020
  -68.9000000000000         5.873649793198712E-020
  -68.7100000000000         1.122111492255758E-019
  -68.5200000000000         1.202645462177278E-019
  -68.3300000000000         6.803052851179188E-020
  -68.1400000000000        -5.983115421731652E-021
  -67.9500000000000        -4.424662356541850E-020
  -67.7600000000000        -2.313047846495200E-020
  -67.5700000000000         2.583481745337226E-020
  -67.3800000000000         4.668411934750183E-020
  -67.1900000000000         1.258791784595180E-020
  -67.0000000000000        -4.861504539798307E-020
  -66.8100000000000        -8.100529649604669E-020
  -66.6200000000000        -5.371879784296936E-020
  -66.4300000000000         1.001033784429711E-020
  -66.2400000000000         5.530099282345573E-020
  -66.0500000000000         4.778454625042419E-020
  -65.8600000000000         5.466595733975874E-021
  -65.6700000000000        -2.011995919824286E-020
  -65.4800000000000         4.802816270286385E-021
  -65.2900000000000         6.201172464702696E-020
  -65.1000000000000         9.731588274047819E-020
  -64.9100000000000         7.195377779132777E-020
  -64.7200000000000         4.408906338502701E-022
  -64.5300000000000        -6.140066371024069E-020
  -64.3400000000000        -6.726752770481375E-020
  -64.1500000000000        -2.218073315362379E-020
  -63.9600000000000         2.410170881451016E-020
  -63.7700000000000         2.549990196604072E-020
  -63.5800000000000        -1.643797379885899E-020
  -63.3900000000000        -5.492076669923152E-020
  -63.2000000000000        -4.407481654798664E-020
  -63.0100000000000         1.561938407029213E-020
  -62.8200000000000         7.642129722329006E-020
  -62.6300000000000         8.812698850946236E-020
  -62.4400000000000         4.589870413728686E-020
  -62.2500000000000        -4.732378381129134E-021
  -62.0600000000000        -1.090710596235661E-020
  -61.8700000000000         3.713150929998355E-020
  -61.6800000000000         9.615895333230904E-020
  -61.4900000000000         1.101383247943671E-019
  -61.3000000000000         6.240192441542483E-020
  -61.1100000000000        -9.429100660136761E-021
  -60.9200000000000        -4.943046721067553E-020
  -60.7300000000000        -3.558700339026443E-020
  -60.5400000000000         1.461544434674047E-021
  -60.3500000000000         1.050044137588589E-020
  -60.1600000000000        -2.867702349053651E-020
  -59.9700000000000        -8.407411319149795E-020
  -59.7800000000000        -1.013154563471379E-019
  -59.5900000000000        -5.606664616856651E-020
  -59.4000000000000         2.121603392204697E-020
  -59.2100000000000         7.219182396847477E-020
  -59.0200000000000         6.397633940216021E-020
  -58.8300000000000         1.851509484504704E-020
  -58.6400000000000        -9.672871099477388E-021
  -58.4500000000000         1.394617854258820E-020
  -58.2600000000000         7.107797303406414E-020
  -58.0700000000000         1.085675252455620E-019
  -57.8800000000000         8.970782895025453E-020
  -57.6900000000000         2.960121573506696E-020
  -57.5000000000000        -1.931743868673566E-020
  -57.3100000000000        -1.763714120623143E-020
  -57.1200000000000         2.319859163581254E-020
  -56.9300000000000         5.208353685324805E-020
  -56.7400000000000         2.805494748874450E-020
  -56.5500000000000        -3.884473535360064E-020
  -56.3600000000000        -9.503126666257580E-020
  -56.1700000000000        -9.259595494808303E-020
  -55.9800000000000        -3.377155897573899E-020
  -55.7900000000000         3.147496084339304E-020
  -55.6000000000000         5.223631272071455E-020
  -55.4100000000000         2.322281717439367E-020
  -55.2200000000000        -1.296941276102879E-020
  -55.0300000000000        -9.401731346495210E-021
  -54.8400000000000         3.809682837283924E-020
  -54.6500000000000         8.575961492639909E-020
  -54.4600000000000         8.384008378900045E-020
  -54.2700000000000         2.550637391085009E-020
  -54.0800000000000        -4.447140851710856E-020
  -53.8900000000000        -7.012092305429971E-020
  -53.7000000000000        -3.571910654155686E-020
  -53.5100000000000         2.043893143455873E-020
  -53.3200000000000         4.298519043834492E-020
  -53.1300000000000         1.208285256319205E-020
  -52.9400000000000        -3.817900225209894E-020
  -52.7500000000000        -5.296185883055356E-020
  -52.5600000000000        -9.763872812440436E-021
  -52.3700000000000         5.920759887506517E-020
  -52.1800000000000         9.675684646519708E-020
  -51.9900000000000         7.424846723007012E-020
  -51.8000000000000         1.803828465111085E-020
  -51.6100000000000        -1.626686814371081E-020
  -51.4200000000000         2.925851608316333E-021
  -51.2300000000000         5.321385136313927E-020
  -51.0400000000000         8.008245078652378E-020
  -50.8500000000000         4.976252804371243E-020
  -50.6600000000000        -1.744398588222746E-020
  -50.4700000000000        -6.530746069819082E-020
  -50.2800000000000        -5.410742647956834E-020
  -50.0900000000000         2.490872041877894E-021
  -49.9000000000000         5.097677115425802E-020
  -49.7100000000000         4.865728842025428E-020
  -49.5200000000000         2.989486355579607E-021
  -49.3300000000000        -3.761301186426415E-020
  -49.1400000000000        -3.203859851978559E-020
  -48.9500000000000         1.302297806933948E-020
  -48.7600000000000         4.951726076904332E-020
  -48.5700000000000         3.526714455102408E-020
  -48.3800000000000        -2.356766185515198E-020
  -48.1900000000000        -7.605083131295290E-020
  -48.0000000000000        -7.327590366451294E-020
  -47.8100000000000        -1.417895492048333E-020
  -47.6200000000000         5.316691589886597E-020
  -47.4300000000000         7.611489372594573E-020
  -47.2400000000000         4.568845070328643E-020
  -47.0500000000000         2.865689144158827E-021
  -46.8600000000000        -2.748585962847978E-021
  -46.6700000000000         3.792955532143594E-020
  -46.4800000000000         8.378319250181920E-020
  -46.2900000000000         8.282792884254731E-020
  -46.1000000000000         2.313297292140919E-020
  -45.9100000000000        -5.342923044292190E-020
  -45.7200000000000        -8.821189695566828E-020
  -45.5300000000000        -5.896988758275741E-020
  -45.3400000000000         9.239040741097271E-022
  -45.1500000000000         3.520974436923714E-020
  -44.9600000000000         1.810203466752207E-020
  -44.7700000000000        -2.254092299282095E-020
  -44.5800000000000        -3.403849623768504E-020
  -44.3900000000000         8.303526694429821E-021
  -44.2000000000000         7.528879215154189E-020
  -44.0100000000000         1.098737207902202E-019
  -43.8200000000000         8.047131877372425E-020
  -43.6300000000000         1.074304825853540E-020
  -43.4400000000000        -4.249669072107819E-020
  -43.2500000000000        -4.215632538873777E-020
  -43.0600000000000        -4.114854097149761E-021
  -42.8700000000000         2.063075381426849E-020
  -42.6800000000000        -2.642521575725201E-021
  -42.4900000000000        -5.711181263886388E-020
  -42.3000000000000        -8.937454130171390E-020
  -42.1100000000000        -6.059643637474786E-020
  -41.9200000000000         1.496013814198217E-020
  -41.7300000000000         8.107408311550157E-020
  -41.5400000000000         9.033406553033900E-020
  -41.3500000000000         4.679766278776687E-020
  -41.1600000000000         3.747057591185606E-022
  -40.9700000000000        -1.461014027577311E-021
  -40.7800000000000         4.139700593187445E-020
  -40.5900000000000         8.270845998644639E-020
  -40.4000000000000         7.552580289091187E-020
  -40.2100000000000         1.862069550650086E-020
  -40.0200000000000        -4.081913491402023E-020
  -39.8300000000000        -5.104757782479366E-020
  -39.6400000000000        -4.577158053027970E-021
  -39.4500000000000         5.449870567599955E-020
  -39.2600000000000         7.168300985585984E-020
  -39.0700000000000         3.258536123754772E-020
  -38.8800000000000        -2.512052023042981E-020
  -38.6900000000000        -4.913604295162254E-020
  -38.5000000000000        -2.301602450507122E-020
  -38.3100000000000         1.883944617994257E-020
  -38.1200000000000         2.587406184570954E-020
  -37.9300000000000        -1.789337318606066E-020
  -37.7400000000000        -7.625518545428930E-020
  -37.5500000000000        -9.376243574758533E-020
  -37.3600000000000        -4.805298943503860E-020
  -37.1700000000000         2.844619406011738E-020
  -36.9800000000000         7.828618365632375E-020
  -36.7900000000000         7.189467660384850E-020
  -36.6000000000000         3.323748784250533E-020
  -36.4100000000000         1.400931925248618E-020
  -36.2200000000000         4.137367142501735E-020
  -36.0300000000000         8.966054003477744E-020
  -35.8400000000000         1.037008439923132E-019
  -35.6500000000000         5.211577237363149E-020
  -35.4600000000000        -4.012220322418786E-020
  -35.2700000000000        -1.113405466190603E-019
  -35.0800000000000        -1.171865531053681E-019
  -34.8900000000000        -6.861942222841811E-020
  -34.7000000000000        -1.863288330391255E-020
  -34.5100000000000        -1.087867356953057E-020
  -34.3200000000000        -3.912789950470939E-020
  -34.1300000000000        -5.581987152829157E-020
  -33.9400000000000        -2.099578037546585E-020
  -33.7500000000000         5.568407790926832E-020
  -33.5600000000000         1.205583670142342E-019
  -33.3700000000000         1.243691730482413E-019
  -33.1800000000000         6.761711891802317E-020
  -32.9900000000000        -1.525827269133174E-022
  -32.8000000000000        -2.631339104788527E-020
  -32.6100000000000        -2.646330404739502E-021
  -32.4200000000000         3.046609779127761E-020
  -32.2300000000000         2.635817672288683E-020
  -32.0400000000000        -2.036860836980295E-020
  -31.8500000000000        -6.715544306546294E-020
  -31.6600000000000        -6.425510265336519E-020
  -31.4700000000000        -3.713409113996373E-021
  -31.2800000000000         7.076904679367790E-020
  -31.0900000000000         1.030145114370846E-019
  -30.9000000000000         7.555851272066817E-020
  -30.7100000000000         2.427184656159739E-020
  -30.5200000000000         2.634060245300700E-021
  -30.3300000000000         2.984685650482641E-020
  -30.1400000000000         7.241188910624130E-020
  -29.9500000000000         7.688950041410059E-020
  -29.7600000000000         2.261662941593773E-020
  -29.5700000000000        -5.608954258599543E-020
  -29.3800000000000        -9.982901121597989E-020
  -29.1900000000000        -7.820398674748418E-020
  -29.0000000000000        -1.717240115229207E-020
  -28.8100000000000         2.598216009970104E-020
  -28.6200000000000         1.620624342317785E-020
  -28.4300000000000        -2.792775566067648E-020
  -28.2400000000000        -5.437059515382218E-020
  -28.0500000000000        -2.946576113807546E-020
  -27.8600000000000         2.848350156025863E-020
  -27.6700000000000         6.626090683036756E-020
  -27.4800000000000         4.705898455070391E-020
  -27.2900000000000        -1.320714584437601E-020
  -27.1000000000000        -5.960711633737757E-020
  -26.9100000000000        -4.916442056388878E-020
  -26.7200000000000         9.295934350357494E-021
  -26.5300000000000         6.424588953659083E-020
  -26.3400000000000         7.059461976435122E-020
  -26.1500000000000         3.174046065696344E-020
  -25.9600000000000        -5.617485803605976E-021
  -25.7700000000000         1.460898186474952E-021
  -25.5800000000000         4.888337055052937E-020
  -25.3900000000000         8.805990066783636E-020
  -25.2000000000000         7.227170496045410E-020
  -25.0100000000000         2.698960952857020E-021
  -24.8200000000000        -7.015447414728157E-020
  -24.6300000000000        -9.168019429798311E-020
  -24.4400000000000        -5.264125589000435E-020
  -24.2500000000000         3.746745696656122E-021
  -24.0600000000000         2.365573550793009E-020
  -23.8700000000000        -6.421366331705213E-021
  -23.6800000000000        -4.791431708825698E-020
  -23.4900000000000        -4.847693562168612E-020
  -23.3000000000000         6.336451490474734E-021
  -23.1100000000000         7.733226933508350E-020
  -22.9200000000000         1.070241553375300E-019
  -22.7300000000000         7.268241350422749E-020
  -22.5400000000000         6.878463710834473E-021
  -22.3500000000000        -3.375024267674702E-020
  -22.1600000000000        -2.154237947233323E-020
  -21.9700000000000         1.784554246776039E-020
  -21.7800000000000         3.257986950177857E-020
  -21.5900000000000        -3.267678178356649E-021
  -21.4000000000000        -6.297553767531937E-020
  -21.2100000000000        -9.163130749645697E-020
  -21.0200000000000        -5.849397415394566E-020
  -20.8300000000000         1.294131379181065E-020
  -20.6400000000000         6.616904005035596E-020
  -20.4500000000000         6.406166609544400E-020
  -20.2600000000000         2.240339672001877E-020
  -20.0700000000000        -7.321243060179905E-021
  -19.8800000000000         1.093877274036720E-020
  -19.6900000000000         6.206898202544218E-020
  -19.5000000000000         9.397318224899768E-020
  -19.3100000000000         6.829350146836713E-020
  -19.1200000000000        -9.319504345646138E-022
  -18.9300000000000        -5.812054031008137E-020
  -18.7400000000000        -5.687636254354147E-020
  -18.5500000000000        -2.806256239238149E-021
  -18.3600000000000         5.210517277272502E-020
  -18.1700000000000         5.822126797744254E-020
  -17.9800000000000         1.398368201424523E-020
  -17.7900000000000        -3.438630368457742E-020
  -17.6000000000000        -3.845159607559580E-020
  -17.4100000000000         5.274142712608878E-021
  -17.2200000000000         5.159147286036487E-020
  -17.0300000000000         4.991770828840991E-020
  -16.8400000000000        -6.651268433504989E-021
  -16.6500000000000        -7.336944311399892E-020
  -16.4600000000000        -9.469014836647940E-020
  -16.2700000000000        -5.521086992204772E-020
  -16.0800000000000         7.460293335500551E-021
  -15.8900000000000         3.965325777605453E-020
  -15.7000000000000         2.270554834306722E-020
  -15.5100000000000        -1.075142420304722E-020
  -15.3200000000000        -1.064343396544146E-020
  -15.1300000000000         3.945543718557956E-020
  -14.9400000000000         1.035980702155692E-019
  -14.7500000000000         1.256945667086562E-019
  -14.5600000000000         8.223347440000251E-020
  -14.3700000000000         5.115662221926753E-021
  -14.1800000000000        -4.738647572879470E-020
  -13.9900000000000        -4.406518015607595E-020
  -13.8000000000000        -7.897214718447848E-021
  -13.6100000000000         8.716754769836274E-021
  -13.4200000000000        -2.339092886606931E-020
  -13.2300000000000        -8.027508930148770E-020
  -13.0400000000000        -1.067039571223076E-019
  -12.8500000000000        -6.911201050615300E-020
  -12.6600000000000         1.083945608057133E-020
  -12.4700000000000         7.434095359228682E-020
  -12.2800000000000         7.839550120281685E-020
  -12.0900000000000         3.385004597787059E-020
  -11.9000000000000        -7.114194902532927E-021
  -11.7100000000000        -1.768873364987782E-021
  -11.5200000000000         4.250942669142756E-020
  -11.3300000000000         7.627104086296690E-020
  -11.1400000000000         5.674174686792642E-020
  -10.9500000000000        -9.529012724783315E-021
  -10.7600000000000        -7.103523727869406E-020
  -10.5700000000000        -7.866294421406493E-020
  -10.3800000000000        -3.099569932721582E-020
  -10.1900000000000         2.541662528271348E-020
  -10.0000000000000         4.083083843874735E-020
  -9.81000000000000         9.208419743997586E-021
  -9.62000000000000        -2.758189722754952E-020
  -9.42999999999999        -2.205863800625655E-020
  -9.23999999999999         3.101738872852820E-020
  -9.05000000000000         8.762283876353052E-020
  -8.86000000000000         9.548424626060443E-020
  -8.67000000000000         4.408638223455188E-020
  -8.48000000000000        -2.424051000148198E-020
  -8.28999999999999        -5.308772651104921E-020
  -8.09999999999999        -2.400889255311805E-020
  -7.91000000000000         2.746707388787756E-020
  -7.72000000000000         4.689158830135426E-020
  -7.53000000000000         1.340961447439163E-020
  -7.34000000000000        -4.046350695653363E-020
  -7.15000000000001        -6.060110989064384E-020
  -6.95999999999999        -2.402818253829101E-020
  -6.77000000000000         3.792652387938801E-020
  -6.58000000000000         6.845912479970008E-020
  -6.39000000000000         3.893357406254230E-020
  -6.20000000000000        -2.354288429794400E-020
  -6.01000000000001        -6.090734154408749E-020
  -5.81999999999999        -3.800388493396423E-020
  -5.63000000000000         2.528916774894016E-020
  -5.44000000000000         7.373712416456909E-020
  -5.25000000000000         6.905359394609163E-020
  -5.06000000000000         2.488627966786239E-020
  -4.87000000000000        -8.508066959569636E-021
  -4.67999999999999         5.375317195202719E-021
  -4.48999999999999         5.260711390646492E-020
  -4.30000000000000         8.132873789759070E-020
  -4.11000000000000         5.173291575484216E-020
  -3.92000000000000        -2.434500007491598E-020
  -3.73000000000000        -9.247358255003221E-020
  -3.53999999999999        -1.051472088008307E-019
  -3.34999999999999        -6.482687651222217E-020
  -3.16000000000000        -1.965024788872034E-020
  -2.97000000000000        -1.615479633206317E-020
  -2.78000000000000        -5.435247972174662E-020
  -2.59000000000000        -8.813729607378350E-020
  -2.40000000000001        -7.060262884844335E-020
  -2.20999999999999        -8.112069289313116E-022
  -2.02000000000000         7.298806686136144E-020
  -1.83000000000000         9.715560912727329E-020
  -1.64000000000000         6.194531990944985E-020
  -1.45000000000000         9.426678305184546E-021
  -1.26000000000001        -7.367773074026198E-021
  -1.06999999999999         2.496294919819026E-020
 -0.879999999999995         6.804605615166970E-020
 -0.689999999999998         6.953514756830268E-020
 -0.500000000000000         1.475568513871357E-020
 -0.310000000000002        -5.716225984338323E-020
 -0.120000000000005        -8.831962265343367E-020
  7.000000000000739E-002   -5.523919452618507E-020
  0.260000000000005         1.007126764034285E-020
  0.450000000000003         5.086165211550275E-020
  0.640000000000001         3.865692948289466E-020
  0.829999999999998        -1.850428648473581E-021
   1.02000000000000        -1.925024540490457E-020
   1.21000000000001         1.271957481826413E-020
   1.40000000000001         6.806697527400642E-020
   1.59000000000000         9.260166183831836E-020
   1.78000000000000         5.636502335415619E-020
   1.97000000000000        -1.591419139894674E-020
   2.16000000000000        -6.601799521319241E-020
   2.34999999999999        -5.548568275638702E-020
   2.54000000000001        -5.952273865098462E-022
   2.73000000000000         4.395594350573405E-020
   2.92000000000000         3.697503275649064E-020
   3.11000000000000        -1.110213836897588E-020
   3.30000000000000        -4.991609829180283E-020
   3.48999999999999        -3.905969074688775E-020
   3.68000000000001         1.202330163068582E-020
   3.87000000000000         5.262081625567753E-020
   4.06000000000000         3.972053807771456E-020
   4.25000000000000        -1.960439577727554E-020
   4.44000000000000        -7.324011440239034E-020
   4.63000000000000        -7.215997256588099E-020
   4.82000000000001        -1.620458391120392E-020
   5.01000000000001         4.581020501683217E-020
   5.20000000000000         6.173128963355481E-020
   5.39000000000000         2.421080900963768E-020
   5.58000000000000        -2.409342945594260E-020
   5.77000000000000        -3.268912366771252E-020
   5.96000000000001         7.869657124493054E-021
   6.15000000000001         5.716538255771836E-020
   6.34000000000000         6.437851075791287E-020
   6.53000000000000         1.800541898099853E-020