  -105.000000000000         0.000000000000000E+000
  -104.810000000000         1.924340268852558E-010
  -104.620000000000         4.212432456804496E-010
  -104.430000000000         6.567602107308163E-010
  -104.240000000000         1.006543613939662E-009
  -104.050000000000         1.475220840852735E-009
  -103.860000000000         1.876342422374887E-009
  -103.670000000000         2.120347155920856E-009
  -103.480000000000         2.242801531309269E-009
  -103.290000000000         2.714297082613975E-009
  -103.100000000000         3.349398513554478E-009
  -102.910000000000         4.260904860225933E-009
  -102.720000000000         5.173242737844352E-009
  -102.530000000000         5.951194510051342E-009
  -102.340000000000         6.570827935832263E-009
  -102.150000000000         7.109338013728038E-009
  -101.960000000000         7.473829409092354E-009
  -101.770000000000         7.466709427199394E-009
  -101.580000000000         7.618387883317177E-009
  -101.390000000000         7.927110816161405E-009
  -101.200000000000         8.050169511814414E-009
  -101.010000000000         8.118001673543787E-009
  -100.820000000000         7.918834191549025E-009
  -100.630000000000         7.503463286972269E-009
  -100.440000000000         7.185929519341934E-009
  -100.250000000000         6.941109290125035E-009
  -100.060000000000         6.691227811412565E-009
  -99.8700000000000         6.563436487207801E-009
  -99.6800000000000         6.457994779736915E-009
  -99.4900000000000         6.059707545385760E-009
  -99.3000000000000         5.219990489619443E-009
  -99.1100000000000         4.416302184255564E-009
  -98.9200000000000         3.565397095568765E-009
  -98.7300000000000         2.847824261225042E-009
  -98.5400000000000         2.697898675757150E-009
  -98.3500000000000         2.063342866991711E-009
  -98.1600000000000         1.871977265717423E-009
  -97.9700000000000         1.696025513097251E-009
  -97.7800000000000         1.639599591046880E-009
  -97.5900000000000         1.576347100878304E-009
  -97.4000000000000         1.462517135802114E-009
  -97.2100000000000         1.362114912937011E-009
  -97.0200000000000         1.327244675868375E-009
  -96.8300000000000         1.535975085812514E-009
  -96.6400000000000         1.906139000555931E-009
  -96.4500000000000         2.352959391255721E-009
  -96.2600000000000         3.058479813993334E-009
  -96.0700000000000         3.520163199137807E-009
  -95.8800000000000         3.772745474432235E-009
  -95.6900000000000         3.929624481777011E-009
  -95.5000000000000         4.175262740079761E-009
  -95.3100000000000         4.457692477747380E-009
  -95.1200000000000         4.728703544697553E-009
  -94.9300000000000         5.008444200023624E-009
  -94.7400000000000         5.226273802163515E-009
  -94.5500000000000         5.487888702156018E-009
  -94.3600000000000         5.837909613267431E-009
  -94.1700000000000         6.135289220276452E-009
  -93.9800000000000         6.305348243229148E-009
  -93.7900000000000         6.490567805891022E-009
  -93.6000000000000         6.979251724390688E-009
  -93.4100000000000         7.277683888289479E-009
  -93.2200000000000         7.493773081036335E-009
  -93.0300000000000         7.627814630096542E-009
  -92.8400000000000         7.563795185836036E-009
  -92.6500000000000         7.141745824913984E-009
  -92.4600000000000         6.333083276607701E-009
  -92.2700000000000         5.300825450546107E-009
  -92.0800000000000         4.290235910292087E-009
  -91.8900000000000         3.442271470168521E-009
  -91.7000000000000         3.098960926650482E-009
  -91.5100000000000         2.795828419518835E-009
  -91.3200000000000         2.616410754574539E-009
  -91.1300000000000         2.202435037356894E-009
  -90.9400000000000         1.788766474954125E-009
  -90.7500000000000         1.629033374038276E-009
  -90.5600000000000         1.748451569416434E-009
  -90.3700000000000         2.199755157896685E-009
  -90.1800000000000         2.979363736890110E-009
  -89.9900000000000         3.895062740011395E-009
  -89.8000000000000         4.714935915693804E-009
  -89.6100000000000         4.933108344812786E-009
  -89.4200000000000         5.295524585035947E-009
  -89.2300000000000         5.680627140048001E-009
  -89.0400000000000         6.612239376906888E-009
  -88.8500000000000         6.664907903020710E-009
  -88.6600000000000         7.239317074081896E-009
  -88.4700000000000         7.787796546731692E-009
  -88.2800000000000         8.178064613799798E-009
  -88.0900000000000         8.441192230559906E-009
  -87.9000000000000         8.524941868542247E-009
  -87.7100000000000         8.469584806575562E-009
  -87.5200000000000         8.449159393261477E-009
  -87.3300000000000         8.407771403105120E-009
  -87.1400000000000         8.314692062721410E-009
  -86.9500000000000         8.224464762067604E-009
  -86.7600000000000         8.104661922387068E-009
  -86.5700000000000         7.925599799217236E-009
  -86.3800000000000         7.811570447359665E-009
  -86.1900000000000         7.823731550573871E-009
  -86.0000000000000         7.968547664190239E-009
  -85.8100000000000         8.308926900545747E-009
  -85.6200000000000         8.985232035112260E-009
  -85.4300000000000         9.939422948474780E-009
  -85.2400000000000         1.099124332625282E-008
  -85.0500000000000         1.235303226411732E-008
  -84.8600000000000         1.366222986058407E-008
  -84.6700000000000         1.484087021437592E-008
  -84.4800000000000         1.597338748713454E-008
  -84.2900000000000         1.721143357824772E-008
  -84.1000000000000         1.861528024874800E-008
  -83.9100000000000         2.015878844526557E-008
  -83.7200000000000         2.014240895788385E-008
  -83.5300000000000         2.289536542611155E-008
  -83.3400000000000         2.277003135355501E-008
  -83.1500000000000         2.305026173510110E-008
  -82.9600000000000         2.320224454717798E-008
  -82.7700000000000         2.310572650829970E-008
  -82.5800000000000         2.280850671382861E-008
  -82.3900000000000         2.250310404066325E-008
  -82.2000000000000         2.223770260222056E-008
  -82.0100000000000         2.183814071169888E-008
  -81.8200000000000         2.117069770179522E-008
  -81.6300000000000         2.026765130051246E-008
  -81.4400000000000         1.926093070775849E-008
  -81.2500000000000         1.840634231154323E-008
  -81.0600000000000         1.768525366133068E-008
  -80.8700000000000         1.693167802521738E-008
  -80.6800000000000         1.649043618445399E-008
  -80.4900000000000         1.626244553203665E-008
  -80.3000000000000         1.609999655551903E-008
  -80.1100000000000         1.596132151840179E-008
  -79.9200000000000         1.588331171805004E-008
  -79.7300000000000         1.591241925470244E-008
  -79.5400000000000         1.617027943257269E-008
  -79.3500000000000         1.688353608394859E-008
  -79.1600000000000         1.780974666161482E-008
  -78.9700000000000         1.862697420128826E-008
  -78.7800000000000         1.933303045031633E-008
  -78.5900000000000         2.000710875521957E-008
  -78.4000000000000         2.036257447207579E-008
  -78.2100000000000         2.051707040252486E-008
  -78.0200000000000         2.061653627226125E-008
  -77.8300000000000         2.054490110124178E-008
  -77.6400000000000         2.037962514482260E-008
  -77.4500000000000         2.017317055100505E-008
  -77.2600000000000         2.001430477641486E-008
  -77.0700000000000         1.996840365946613E-008
  -76.8800000000000         2.000083824358139E-008
  -76.6900000000000         2.010730078115480E-008
  -76.5000000000000         2.047822106064651E-008
  -76.3100000000000         2.131124427126056E-008
  -76.1200000000000         2.168528750711702E-008
  -75.9300000000000         2.221034678266922E-008
  -75.7400000000000         2.251012225964709E-008
  -75.5500000000000         2.283315016183895E-008
  -75.3600000000000         2.304251450255525E-008
  -75.1700000000000         2.321972328809470E-008
  -74.9800000000000         2.353642422979770E-008
  -74.7900000000000         2.391395657755511E-008
  -74.6000000000000         2.421182201574547E-008
  -74.4100000000000         2.447833824816434E-008
  -74.2200000000000         2.480796794606839E-008
  -74.0300000000000         2.525661332792687E-008
  -73.8400000000000         2.584771259480284E-008
  -73.6500000000000         2.652217551750015E-008
  -73.4600000000000         2.717422846939365E-008
  -73.2700000000000         2.791080820533489E-008
  -73.0800000000000         2.865673387254572E-008
  -72.8900000000000         2.980241870256707E-008
  -72.7000000000000         3.089393540351058E-008
  -72.5100000000000         3.209472909971512E-008
  -72.3200000000000         3.328066186704522E-008
  -72.1300000000000         3.414234280875660E-008
  -71.9400000000000         3.459331557369570E-008
  -71.7500000000000         3.689907617443706E-008
  -71.5600000000000         3.703635283067196E-008
  -71.3700000000000         3.749727209244174E-008
  -71.1800000000000         3.836479881947203E-008
  -70.9900000000000         3.873844837164340E-008
  -70.8000000000000         4.207506585939291E-008
  -70.6100000000000         4.224486766443042E-008
  -70.4200000000000         4.266872482031621E-008
  -70.2300000000000         4.694093387066258E-008
  -70.0400000000000         4.711019445248210E-008
  -69.8500000000000         4.767820551713510E-008
  -69.6600000000000         5.014212241331334E-008
  -69.4700000000000         5.026232641428255E-008
  -69.2800000000000         5.113271721829322E-008
  -69.0900000000000         5.147093897179518E-008
  -68.9000000000000         5.183400467163225E-008
  -68.7100000000000         5.206318922771456E-008
  -68.5200000000000         5.212596454752680E-008
  -68.3300000000000         5.206260246812873E-008
  -68.1400000000000         5.197502863192847E-008
  -67.9500000000000         5.200098866064895E-008
  -67.7600000000000         5.208529199198552E-008
  -67.5700000000000         5.236571935211384E-008
  -67.3800000000000         5.320102948479775E-008
  -67.1900000000000         5.474770629159505E-008
  -67.0000000000000         5.577097758988802E-008
  -66.8100000000000         5.820972640518574E-008
  -66.6200000000000         5.875354457156595E-008
  -66.4300000000000         5.988980997955793E-008
  -66.2400000000000         6.352271457506916E-008
  -66.0500000000000         6.384027921141032E-008
  -65.8600000000000         6.441242682029851E-008
  -65.6700000000000         6.540890740245257E-008
  -65.4800000000000         6.623013424651879E-008
  -65.2900000000000         6.717039478085515E-008
  -65.1000000000000         6.819187517265960E-008
  -64.9100000000000         6.925695208090350E-008
  -64.7200000000000         7.025561890117574E-008
  -64.5300000000000         7.128950950543886E-008
  -64.3400000000000         7.221052375035924E-008
  -64.1500000000000         7.313803511970827E-008
  -63.9600000000000         7.397752296954034E-008
  -63.7700000000000         7.471100743435778E-008
  -63.5800000000000         7.545439100084962E-008
  -63.3900000000000         7.617050556512989E-008
  -63.2000000000000         7.682036784611637E-008
  -63.0100000000000         7.727893744160843E-008
  -62.8200000000000         7.769684075600768E-008
  -62.6300000000000         7.811964187523408E-008
  -62.4400000000000         7.854560104783693E-008
  -62.2500000000000         7.885197829397534E-008
  -62.0600000000000         7.908912835939220E-008
  -61.8700000000000         7.929397021927226E-008
  -61.6800000000000         7.943649478778329E-008
  -61.4900000000000         7.957355734890272E-008
  -61.3000000000000         7.983341843192888E-008
  -61.1100000000000         8.037567686824893E-008
  -60.9200000000000         8.126970718147152E-008
  -60.7300000000000         8.254907064300416E-008
  -60.5400000000000         8.380032042351206E-008
  -60.3500000000000         8.489523243100876E-008
  -60.1600000000000         8.598010446854651E-008
  -59.9700000000000         8.699420550224884E-008
  -59.7800000000000         8.807204900936361E-008
  -59.5900000000000         8.931293335607494E-008
  -59.4000000000000         9.048862006682651E-008
  -59.2100000000000         9.172593554469211E-008
  -59.0200000000000         9.305968453783345E-008
  -58.8300000000000         9.441358855243657E-008
  -58.6400000000000         9.567433629260007E-008
  -58.4500000000000         9.722813952740618E-008
  -58.2600000000000         9.911689356997704E-008
  -58.0700000000000         1.008640459936762E-007
  -57.8800000000000         1.028438713444301E-007
  -57.6900000000000         1.044710501037254E-007
  -57.5000000000000         1.060063145801942E-007
  -57.3100000000000         1.067447410332330E-007
  -57.1200000000000         1.094955400822242E-007
  -56.9300000000000         1.102827916690483E-007
  -56.7400000000000         1.119156718609468E-007
  -56.5500000000000         1.138771335926375E-007
  -56.3600000000000         1.148009735629146E-007
  -56.1700000000000         1.165255815372818E-007
  -55.9800000000000         1.170849325673295E-007
  -55.7900000000000         1.183510063583650E-007
  -55.6000000000000         1.191717126902883E-007
  -55.4100000000000         1.201004104491935E-007
  -55.2200000000000         1.207763178941715E-007
  -55.0300000000000         1.212115517202366E-007
  -54.8400000000000         1.215811961466139E-007
  -54.6500000000000         1.219593919067617E-007
  -54.4600000000000         1.224495880032451E-007
  -54.2700000000000         1.230644954164126E-007
  -54.0800000000000         1.238731003128579E-007
  -53.8900000000000         1.248447939451736E-007
  -53.7000000000000         1.261104347264375E-007
  -53.5100000000000         1.277129012914376E-007
  -53.3200000000000         1.296454109436684E-007
  -53.1300000000000         1.320837789811940E-007
  -52.9400000000000         1.346872437465468E-007
  -52.7500000000000         1.373243724518166E-007
  -52.5600000000000         1.397301002998147E-007
  -52.3700000000000         1.425505845634075E-007
  -52.1800000000000         1.434826383409223E-007
  -51.9900000000000         1.506633471537177E-007
  -51.8000000000000         1.511591302775768E-007
  -51.6100000000000         1.527202632591756E-007
  -51.4200000000000         1.556783872689577E-007
  -51.2300000000000         1.584308458843171E-007
  -51.0400000000000         1.593396377249960E-007
  -50.8500000000000         1.617905505304828E-007
  -50.6600000000000         1.627749790949605E-007
  -50.4700000000000         1.673785290474953E-007
  -50.2800000000000         1.685432360536351E-007
  -50.0900000000000         1.702209805115201E-007
  -49.9000000000000         1.733979305460525E-007
  -49.7100000000000         1.743215982793971E-007
  -49.5200000000000         1.771730301787138E-007
  -49.3300000000000         1.781354492078178E-007
  -49.1400000000000         1.811795323407870E-007
  -48.9500000000000         1.822357982410963E-007
  -48.7600000000000         1.848536222819215E-007
  -48.5700000000000         1.869809655931701E-007
  -48.3800000000000         1.892284618872184E-007
  -48.1900000000000         1.914746880215928E-007
  -48.0000000000000         1.937546021300815E-007
  -47.8100000000000         1.963689244128702E-007
  -47.6200000000000         1.990512487964818E-007
  -47.4300000000000         2.018976695267845E-007
  -47.2400000000000         2.051205557884797E-007
  -47.0500000000000         2.077846441121754E-007
  -46.8600000000000         2.108479096366009E-007
  -46.6700000000000         2.137036498097921E-007
  -46.4800000000000         2.163318544531363E-007
  -46.2900000000000         2.188381692615215E-007
  -46.1000000000000         2.208990849118691E-007
  -45.9100000000000         2.233616824344180E-007
  -45.7200000000000         2.255277145561263E-007
  -45.5300000000000         2.275939501268701E-007
  -45.3400000000000         2.296100259224597E-007
  -45.1500000000000         2.313285167262479E-007
  -44.9600000000000         2.330330464308051E-007
  -44.7700000000000         2.344835885781513E-007
  -44.5800000000000         2.362751575869846E-007
  -44.3900000000000         2.377780106047203E-007
  -44.2000000000000         2.397831344453664E-007
  -44.0100000000000         2.414846115406040E-007
  -43.8200000000000         2.436168860420727E-007
  -43.6300000000000         2.452664871793532E-007
  -43.4400000000000         2.476597795173013E-007
  -43.2500000000000         2.492351675253951E-007
  -43.0600000000000         2.517676940275099E-007
  -42.8700000000000         2.537886423795857E-007
  -42.6800000000000         2.563105366209365E-007
  -42.4900000000000         2.579763392215885E-007
  -42.3000000000000         2.605571278466801E-007
  -42.1100000000000         2.619988876171817E-007
  -41.9200000000000         2.644481397924769E-007
  -41.7300000000000         2.660661576364622E-007
  -41.5400000000000         2.683208230264032E-007
  -41.3500000000000         2.695322399881203E-007
  -41.1600000000000         2.719530114826173E-007
  -40.9700000000000         2.729058791576350E-007
  -40.7800000000000         2.760218746189314E-007
  -40.5900000000000         2.772568835920438E-007
  -40.4000000000000         2.817108734975629E-007
  -40.2100000000000         2.831446036669747E-007
  -40.0200000000000         2.879231666662868E-007
  -39.8300000000000         2.893615776407313E-007
  -39.6400000000000         2.950275486771869E-007
  -39.4500000000000         2.966048694258629E-007
  -39.2600000000000         3.018856650946915E-007
  -39.0700000000000         3.039745738865332E-007
  -38.8800000000000         3.097395462173098E-007
  -38.6900000000000         3.117511625718957E-007
  -38.5000000000000         3.172836904505352E-007
  -38.3100000000000         3.192633927353748E-007
  -38.1200000000000         3.245420972622472E-007
  -37.9300000000000         3.264278436329739E-007
  -37.7400000000000         3.315582361167148E-007
  -37.5500000000000         3.332654085269501E-007
  -37.3600000000000         3.379699842323334E-007
  -37.1700000000000         3.395754613834407E-007
  -36.9800000000000         3.440166455360709E-007
  -36.7900000000000         3.455911282955494E-007
  -36.6000000000000         3.501650076422127E-007
  -36.4100000000000         3.515254116448507E-007
  -36.2200000000000         3.559683988909192E-007
  -36.0300000000000         3.571978449288395E-007
  -35.8400000000000         3.617182016733360E-007
  -35.6500000000000         3.629331964655256E-007
  -35.4600000000000         3.676801178528714E-007
  -35.2700000000000         3.690086060264847E-007
  -35.0800000000000         3.741833048286841E-007
  -34.8900000000000         3.755583100084713E-007
  -34.7000000000000         3.814150381974411E-007
  -34.5100000000000         3.829154560817644E-007
  -34.3200000000000         3.889473502224824E-007
  -34.1300000000000         3.908252840186731E-007
  -33.9400000000000         3.978954045179437E-007
  -33.7500000000000         4.000052558289716E-007
  -33.5600000000000         4.065542214789572E-007
  -33.3700000000000         4.084258438207126E-007
  -33.1800000000000         4.155625435375987E-007
  -32.9900000000000         4.171176044953857E-007
  -32.8000000000000         4.232963260653897E-007
  -32.6100000000000         4.248072905511596E-007
  -32.4200000000000         4.314932076387761E-007
  -32.2300000000000         4.330651726392287E-007
  -32.0400000000000         4.394888796228074E-007
  -31.8500000000000         4.411222294022201E-007
  -31.6600000000000         4.477565607385000E-007
  -31.4700000000000         4.493769657574600E-007
  -31.2800000000000         4.560239418097998E-007
  -31.0900000000000         4.578299509309978E-007
  -30.9000000000000         4.645961136441886E-007
  -30.7100000000000         4.664941367052768E-007
  -30.5200000000000         4.729951687080123E-007
  -30.3300000000000         4.747639855323181E-007
  -30.1400000000000         4.813566004300811E-007
  -29.9500000000000         4.829867216566122E-007
  -29.7600000000000         4.897121820735509E-007
  -29.5700000000000         4.913461834722851E-007
  -29.3800000000000         4.975223004980669E-007
  -29.1900000000000         4.993388806427171E-007
  -29.0000000000000         5.056572088093339E-007
  -28.8100000000000         5.076953284190245E-007
  -28.6200000000000         5.129561137113618E-007
  -28.4300000000000         5.153180353522238E-007
  -28.2400000000000         5.201345734779491E-007
  -28.0500000000000         5.222191368768762E-007
  -27.8600000000000         5.260815709279754E-007
  -27.6700000000000         5.295393232835792E-007
  -27.4800000000000         5.324684101216200E-007
  -27.2900000000000         5.358142410664421E-007
  -27.1000000000000         5.391291104296884E-007
  -26.9100000000000         5.422453223062242E-007
  -26.7200000000000         5.451432662549442E-007
  -26.5300000000000         5.484356524551392E-007
  -26.3400000000000         5.516022335575289E-007
  -26.1500000000000         5.550482872218970E-007
  -25.9600000000000         5.585604148641173E-007
  -25.7700000000000         5.622212931812801E-007
  -25.5800000000000         5.659565644918593E-007
  -25.3900000000000         5.694668015102573E-007
  -25.2000000000000         5.729396362950196E-007
  -25.0100000000000         5.769649197655749E-007
  -24.8200000000000         5.808569156964211E-007
  -24.6300000000000         5.851427532656258E-007
  -24.4400000000000         5.898214843293498E-007
  -24.2500000000000         5.940799611468139E-007
  -24.0600000000000         5.986690780863595E-007
  -23.8700000000000         6.028904396268190E-007
  -23.6800000000000         6.068279233982025E-007
  -23.4900000000000         6.111933914896782E-007
  -23.3000000000000         6.157555848991970E-007
  -23.1100000000000         6.201297538129940E-007
  -22.9200000000000         6.245401368523956E-007
  -22.7300000000000         6.290943382142954E-007
  -22.5400000000000         6.333848433161966E-007
  -22.3500000000000         6.376791940210139E-007
  -22.1600000000000         6.422945398134493E-007
  -21.9700000000000         6.468670840040109E-007
  -21.7800000000000         6.512238480923272E-007
  -21.5900000000000         6.560190357465363E-007
  -21.4000000000000         6.605595637519386E-007
  -21.2100000000000         6.646662053293176E-007
  -21.0200000000000         6.699486290615960E-007
  -20.8300000000000         6.722389377463161E-007
  -20.6400000000000         6.789706210304892E-007
  -20.4500000000000         6.804710138365720E-007
  -20.2600000000000         6.893856113278721E-007
  -20.0700000000000         6.905971131683229E-007
  -19.8800000000000         6.950342352673468E-007
  -19.6900000000000         7.018791208083590E-007
  -19.5000000000000         7.036588985573896E-007
  -19.3100000000000         7.133962226300319E-007
  -19.1200000000000         7.147683894809570E-007
  -18.9300000000000         7.209318076870389E-007
  -18.7400000000000         7.226443292848338E-007
  -18.5500000000000         7.319668774158460E-007
  -18.3600000000000         7.330598470525181E-007
  -18.1700000000000         7.384220960851169E-007
  -17.9800000000000         7.445601318195874E-007
  -17.7900000000000         7.463149330812906E-007
  -17.6000000000000         7.532032616049012E-007
  -17.4100000000000         7.544592364906556E-007
  -17.2200000000000         7.614599235388345E-007
  -17.0300000000000         7.626178939862274E-007
  -16.8400000000000         7.696804778433359E-007
  -16.6500000000000         7.710503492995210E-007
  -16.4600000000000         7.790522354143202E-007
  -16.2700000000000         7.803645217391109E-007
  -16.0800000000000         7.886500645570999E-007
  -15.8900000000000         7.899971399628024E-007
  -15.7000000000000         7.983626110143687E-007
  -15.5100000000000         7.999890027879783E-007
  -15.3200000000000         8.098494577651503E-007
  -15.1300000000000         8.113791679343474E-007
  -14.9400000000000         8.194383105572885E-007
  -14.7500000000000         8.210541664105643E-007
  -14.5600000000000         8.309858057093346E-007
  -14.3700000000000         8.323413746246262E-007
  -14.1800000000000         8.395435806627609E-007
  -13.9900000000000         8.412550698657997E-007
  -13.8000000000000         8.503130218238942E-007
  -13.6100000000000         8.516000925054627E-007
  -13.4200000000000         8.585966029742636E-007
  -13.2300000000000         8.599185866900639E-007
  -13.0400000000000         8.685896348143797E-007
  -12.8500000000000         8.697852131321726E-007
  -12.6600000000000         8.769517474372965E-007
  -12.4700000000000         8.783740794766778E-007
  -12.2800000000000         8.875166704608031E-007
  -12.0900000000000         8.888382762497838E-007
  -11.9000000000000         8.972618925691169E-007
  -11.7100000000000         8.987037290660669E-007
  -11.5200000000000         9.085381227739427E-007
  -11.3300000000000         9.100155178996918E-007
  -11.1400000000000         9.183811453929538E-007
  -10.9500000000000         9.199987493462598E-007
  -10.7600000000000         9.303239289522306E-007
  -10.5700000000000         9.318479499301497E-007
  -10.3800000000000         9.396406514758585E-007
  -10.1900000000000         9.414167212235389E-007
  -10.0000000000000         9.521156860615563E-007
  -9.81000000000000         9.536012887660060E-007
  -9.62000000000000         9.607148646944689E-007
  -9.42999999999999         9.625622092208458E-007
  -9.23999999999999         9.722855311876497E-007
  -9.05000000000000         9.736859322272171E-007
  -8.86000000000000         9.815724942804865E-007
  -8.67000000000000         9.831007420365525E-007
  -8.48000000000000         9.924420646014494E-007
  -8.28999999999999         9.938605849988715E-007
  -8.09999999999999         1.001731176190133E-006
  -7.91000000000000         1.003377924294393E-006
  -7.72000000000000         1.013024826663861E-006
  -7.53000000000000         1.014529567609967E-006
  -7.34000000000000         1.022742228838410E-006
  -7.15000000000001         1.024367878502728E-006
  -6.95999999999999         1.033550560996295E-006
  -6.77000000000000         1.035140598660226E-006
  -6.58000000000000         1.042859445558501E-006
  -6.39000000000000         1.044587989368241E-006
  -6.20000000000000         1.054204466152436E-006
  -6.01000000000001         1.055646583483044E-006
  -5.81999999999999         1.059917961161187E-006
  -5.63000000000000         1.068116281383667E-006
  -5.44000000000000         1.069951277585337E-006
  -5.25000000000000         1.076957524350520E-006
  -5.06000000000000         1.078654101982463E-006
  -4.87000000000000         1.088121706019188E-006
  -4.67999999999999         1.089480778357480E-006
  -4.48999999999999         1.092045611944387E-006
  -4.30000000000000         1.100095610776222E-006
  -4.11000000000000         1.101782398628859E-006
  -3.92000000000000         1.105172104704426E-006
  -3.73000000000000         1.115091662957480E-006
  -3.53999999999999         1.116629800263102E-006
  -3.34999999999999         1.119197457836578E-006
  -3.16000000000000         1.126090875495445E-006
  -2.97000000000000         1.128051977310515E-006
  -2.78000000000000         1.138062756436118E-006
  -2.59000000000000         1.139515596271867E-006
  -2.40000000000001         1.142779855552733E-006
  -2.20999999999999         1.152340435724657E-006
  -2.02000000000000         1.153982735060936E-006
  -1.83000000000000         1.157036589879570E-006
  -1.64000000000000         1.165248222233267E-006
  -1.45000000000000         1.167054917442241E-006
  -1.26000000000001         1.171236608800640E-006
  -1.06999999999999         1.180925386719902E-006
 -0.879999999999995         1.182657895982844E-006
 -0.689999999999998         1.185375592141924E-006
 -0.500000000000000         1.189329030392240E-006
 -0.310000000000002         1.197540259535163E-006
 -0.120000000000005         1.199452446758455E-006
  7.000000000000739E-002    1.202635527555450E-006
  0.260000000000005         1.207960786403918E-006
  0.450000000000003         1.210139029179105E-006
  0.640000000000001         1.221362906500387E-006
  0.829999999999998         1.222616640760902E-006
   1.02000000000000         1.225463514218392E-006
   1.21000000000001         1.229420239400641E-006
   1.40000000000001         1.233117250885462E-006
   1.59000000000000         1.236603994274600E-006
   1.78000000000000         1.239901932801085E-006
   1.97000000000000         1.243152899195447E-006
   2.16000000000000         1.246158856048178E-006
   2.34999999999999         1.259252581369700E-006
   2.54000000000001         1.260778862884397E-006
   2.73000000000000         1.264124292908514E-006
   2.92000000000000         1.268162849057996E-006
   3.11000000000000         1.272376267358016E-006
   3.30000000000000         1.276543823500265E-006
   3.48999999999999         1.280823979667781E-006
   3.68000000000001         1.285081890597795E-006
   3.87000000000000         1.289866582877350E-006
   4.06000000000000         1.293722566106070E-006
   4.25000000000000         1.298415294984912E-006
   4.44000000000000         1.302147941590641E-006
   4.63000000000000         1.306950947809259E-006
   4.82000000000001         1.310785512748452E-006
   5.01000000000001         1.316054846568920E-006
   5.20000000000000         1.319792117720624E-006
   5.39000000000000         1.324600806473905E-006
   5.58000000000000         1.328529198531791E-006
   5.77000000000000         1.332639305094048E-006
   5.96000000000001         1.336861835811342E-006
   6.15000000000001         1.340884738303399E-006
   6.34000000000000         1.345044198667645E-006
   6.53000000000000         1.349026047072847E-006