  -105.000000000000         3.781217645106110E-020
  -104.810000000000         1.042645214823905E-019
  -104.620000000000         1.462838939640162E-019
  -104.430000000000         1.559687008449458E-019
  -104.240000000000         1.344468044903969E-019
  -104.050000000000         9.146018838611754E-020
  -103.860000000000         4.247122444106187E-020
  -103.670000000000         4.132124764544125E-021
  -103.480000000000        -1.056499233626836E-020
  -103.290000000000         3.951897111423459E-021
  -103.100000000000         4.425425502316315E-020
  -102.910000000000         9.896462874300497E-020
  -102.720000000000         1.521266916413583E-019
  -102.530000000000         1.879086016192605E-019
  -102.340000000000         1.952715442285416E-019
  -102.150000000000         1.712481666576016E-019
  -101.960000000000         1.218784226658819E-019
  -101.770000000000         6.052738020452957E-020
  -101.580000000000         4.067510580956911E-021
  -101.390000000000        -3.197080621766696E-020
  -101.200000000000        -3.787332294637540E-020
  -101.010000000000        -1.253875670537793E-020
  -100.820000000000         3.621659480434215E-020
  -100.630000000000         9.393497271166145E-020
  -100.440000000000         1.437105448167154E-019
  -100.250000000000         1.710805887857129E-019
  -100.060000000000         1.681963133478512E-019
  -99.8700000000000         1.360683270042140E-019
  -99.6800000000000         8.424158468186746E-020
  -99.4900000000000         2.799792572568239E-020
  -99.3000000000000        -1.610222180755781E-020
  -99.1100000000000        -3.504733195622658E-020
  -98.9200000000000        -2.317112960692734E-020
  -98.7300000000000         1.618624421774820E-020
  -98.5400000000000         7.163761000034288E-020
  -98.3500000000000         1.270512661413448E-019
  -98.1600000000000         1.662357078307704E-019
  -97.9700000000000         1.776427156199988E-019
  -97.7800000000000         1.577209702758924E-019
  -97.5900000000000         1.119470019929377E-019
  -97.4000000000000         5.323629582260832E-020
  -97.2100000000000        -1.803018791886303E-021
  -97.0200000000000        -3.768752232677862E-020
  -96.8300000000000        -4.455056043644160E-020
  -96.6400000000000        -2.100529014954637E-020
  -96.4500000000000         2.545504735714757E-020
  -96.2600000000000         8.063969503849061E-020
  -96.0700000000000         1.277943011148347E-019
  -95.8800000000000         1.524848383779664E-019
  -95.6900000000000         1.468101514695909E-019
  -95.5000000000000         1.117171391724409E-019
  -95.3100000000000         5.674565003420499E-020
  -95.1200000000000        -2.722419771522050E-021
  -94.9300000000000        -4.991228336006451E-020
  -94.7400000000000        -7.151596105214566E-020
  -94.5500000000000        -6.155661822346837E-020
  -94.3600000000000        -2.313798461504536E-020
  -94.1700000000000         3.243153399818750E-020
  -93.9800000000000         8.889193178897910E-020
  -93.7900000000000         1.297236426971639E-019
  -93.6000000000000         1.429195004119474E-019
  -93.4100000000000         1.244513617573870E-019
  -93.2200000000000         7.942503269360581E-020
  -93.0300000000000         2.059085105135920E-020
  -92.8400000000000        -3.535306055601873E-020
  -92.6500000000000        -7.258866512021495E-020
  -92.4600000000000        -8.073734613448273E-020
  -92.2700000000000        -5.783395070921197E-020
  -92.0800000000000        -1.086052257961894E-020
  -91.8900000000000         4.630956192707352E-020
  -91.7000000000000         9.695896946710210E-020
  -91.5100000000000         1.263914688439262E-019
  -91.3200000000000         1.262023896343149E-019
  -91.1300000000000         9.671231606963393E-020
  -90.9400000000000         4.685450787491421E-020
  -90.7500000000000        -8.451710624155890E-021
  -90.5600000000000        -5.267578804034345E-020
  -90.3700000000000        -7.252378719842015E-020
  -90.1800000000000        -6.184790769074686E-020
  -89.9900000000000        -2.348156168223032E-020
  -89.8000000000000         3.153252745295650E-020
  -89.6100000000000         8.709860733602905E-020
  -89.4200000000000         1.266970941482064E-019
  -89.2300000000000         1.381494649797406E-019
  -89.0400000000000         1.171409350070971E-019
  -88.8500000000000         6.848048638324037E-020
  -88.6600000000000         4.732280389311084E-021
  -88.4700000000000        -5.738474430053505E-020
  -88.2800000000000        -1.017836562672067E-019
  -88.0900000000000        -1.175933406512903E-019
  -87.9000000000000        -1.022118722182518E-019
  -87.7100000000000        -6.195048077624408E-020
  -87.5200000000000        -1.009105154784920E-020
  -87.3300000000000         3.707013795709643E-020
  -87.1400000000000         6.503853221244870E-020
  -86.9500000000000         6.539631969656637E-020
  -86.7600000000000         3.829237763628007E-020
  -86.5700000000000        -7.580466481572574E-021
  -86.3800000000000        -5.751961819175636E-020
  -86.1900000000000        -9.512512222678647E-020
  -86.0000000000000        -1.071351729188077E-019
  -85.8100000000000        -8.737283626838525E-020
  -85.6200000000000        -3.864919855199267E-020
  -85.4300000000000         2.793571710556941E-020
  -85.2400000000000         9.609431208742090E-020
  -85.0500000000000         1.489574711623500E-019
  -84.8600000000000         1.738536160981284E-019
  -84.6700000000000         1.658814600237449E-019
  -84.4800000000000         1.292467931363235E-019
  -84.2900000000000         7.597856992895504E-020
  -84.1000000000000         2.239543864816427E-020
  -83.9100000000000        -1.565515405745920E-020
  -83.7200000000000        -2.740502280420282E-020
  -83.5300000000000        -1.028141708967897E-020
  -83.3400000000000         2.937575547064519E-020
  -83.1500000000000         7.820427541335400E-020
  -82.9600000000000         1.197658546791980E-019
  -82.7700000000000         1.393980054133729E-019
  -82.5800000000000         1.285594619823574E-019
  -82.3900000000000         8.740677696404201E-020
  -82.2000000000000         2.485454975508909E-020
  -82.0100000000000        -4.389952868317715E-020
  -81.8200000000000        -1.016713924779771E-019
  -81.6300000000000        -1.341694113149790E-019
  -81.4400000000000        -1.340462067833039E-019
  -81.2500000000000        -1.029518293959580E-019
  -81.0600000000000        -5.099452362486678E-020
  -80.8700000000000         6.232489468786655E-021
  -80.6800000000000         5.219232776312975E-020
  -80.4900000000000         7.419304014760856E-020
  -80.3000000000000         6.703384130376701E-020
  -80.1100000000000         3.445525487244370E-020
  -79.9200000000000        -1.202081414250179E-020
  -79.7300000000000        -5.651902916137479E-020
  -79.5400000000000        -8.351000913901112E-020
  -79.3500000000000        -8.241788813934067E-020
  -79.1600000000000        -5.079824965233505E-020
  -78.9700000000000         4.840061060043541E-021
  -78.7800000000000         7.081486637472206E-020
  -78.5900000000000         1.301427591371260E-019
  -78.4000000000000         1.673840316799965E-019
  -78.2100000000000         1.730565802306830E-019
  -78.0200000000000         1.463405276870071E-019
  -77.8300000000000         9.529371035101627E-020
  -77.6400000000000         3.452158351760444E-020
  -77.4500000000000        -1.901882158281224E-020
  -77.2600000000000        -5.086555329606025E-020
  -77.0700000000000        -5.315065678549139E-020
  -76.8800000000000        -2.677243846070246E-020
  -76.6900000000000         1.898049808069704E-020
  -76.5000000000000         6.923897395746104E-020
  -76.3100000000000         1.079772784320109E-019
  -76.1200000000000         1.227613669601303E-019
  -75.9300000000000         1.084335603222481E-019
  -75.7400000000000         6.865402583966104E-020
  -75.5500000000000         1.484508753769848E-020
  -75.3600000000000        -3.715532604545650E-020
  -75.1700000000000        -7.175423317335895E-020
  -74.9800000000000        -7.821738964452129E-020
  -74.7900000000000        -5.388900704621175E-020
  -74.6000000000000        -5.074317181133176E-021
  -74.4100000000000         5.468178582985510E-020
  -74.2200000000000         1.084330210932856E-019
  -74.0300000000000         1.406845524750228E-019
  -73.8400000000000         1.418588031526222E-019
  -73.6500000000000         1.110786207086670E-019
  -73.4600000000000         5.645575744142419E-020
  -73.2700000000000        -7.204767915911986E-021
  -73.0800000000000        -6.262296762479807E-020
  -72.8900000000000        -9.496476876629629E-020
  -72.7000000000000        -9.604299913357164E-020
  -72.5100000000000        -6.658770025180405E-020
  -72.3200000000000        -1.593683371302766E-020
  -72.1300000000000         4.075416956458260E-020
  -71.9400000000000         8.696853522129255E-020
  -71.7500000000000         1.096534803552688E-019
  -71.5600000000000         1.030114993043640E-019
  -71.3700000000000         7.015360173214954E-020
  -71.1800000000000         2.213154523473199E-020
  -70.9900000000000        -2.536933205699411E-020
  -70.8000000000000        -5.670982591128141E-020
  -70.6100000000000        -6.097884768699343E-020
  -70.4200000000000        -3.530594733432134E-020
  -70.2300000000000         1.416690412454740E-020
  -70.0400000000000         7.394303196061144E-020
  -69.8500000000000         1.269837503151063E-019
  -69.6600000000000         1.575789135237948E-019
  -69.4700000000000         1.558736480695484E-019
  -69.2800000000000         1.207476408049091E-019
  -69.0900000000000         6.021474192923594E-020
  -68.9000000000000        -1.077831374577685E-020
  -68.7100000000000        -7.452652875629395E-020
  -68.5200000000000        -1.155161696098542E-019
  -68.3300000000000        -1.247252328099414E-019
  -68.1400000000000        -1.020391278905167E-019
  -67.9500000000000        -5.609426073915443E-020
  -67.7600000000000        -1.610015415898771E-021
  -67.5700000000000         4.500270087541076E-020
  -67.3800000000000         7.047283743994343E-020
  -67.1900000000000         6.853592262292079E-020
  -67.0000000000000         4.171666328029786E-020
  -66.8100000000000         5.148388763310729E-022
  -66.6200000000000        -3.976420646927583E-020
  -66.4300000000000        -6.360840000314371E-020
  -66.2400000000000        -5.998304793706748E-020
  -66.0500000000000        -2.572791452730788E-020
  -65.8600000000000         3.333244055604645E-020
  -65.6700000000000         1.038978991173091E-019
  -65.4800000000000         1.688882177841547E-019
  -65.2900000000000         2.122518652692371E-019
  -65.1000000000000         2.234915057243010E-019
  -64.9100000000000         2.005946329026082E-019
  -64.7200000000000         1.505245585849117E-019
  -64.5300000000000         8.713682984185588E-020
  -64.3400000000000         2.713276726757108E-020
  -64.1500000000000        -1.477002261269371E-020
  -63.9600000000000        -3.004421453146195E-020
  -63.7700000000000        -1.871252336463174E-020
  -63.5800000000000         1.082400713411712E-020
  -63.3900000000000         4.443294525202668E-020
  -63.2000000000000         6.659076205093547E-020
  -63.0100000000000         6.513884010635457E-020
  -62.8200000000000         3.505821755068954E-020
  -62.6300000000000        -1.984359078010018E-020
  -62.4400000000000        -8.782889911188544E-020
  -62.2500000000000        -1.524530339481196E-019
  -62.0600000000000        -1.971850973769822E-019
  -61.8700000000000        -2.100946882173829E-019
  -61.6800000000000        -1.872543766651724E-019
  -61.4900000000000        -1.338770004190231E-019
  -61.3000000000000        -6.285890354472811E-020
  -61.1100000000000         8.851075447639013E-021
  -60.9200000000000         6.500805111134704E-020
  -60.7300000000000         9.457896444547729E-020
  -60.5400000000000         9.470272574447907E-020
  -60.3500000000000         7.125652528778412E-020
  -60.1600000000000         3.687974832473329E-020
  -59.9700000000000         7.044074319147704E-021
  -59.7800000000000        -4.678966725131224E-021
  -59.5900000000000         9.226376825396254E-021
  -59.4000000000000         4.785213057968801E-020
  -59.2100000000000         1.019824325852987E-019
  -59.0200000000000         1.566744448379412E-019
  -58.8300000000000         1.955727395538268E-019
  -58.6400000000000         2.057179241958764E-019
  -58.4500000000000         1.814560153648238E-019
  -58.2600000000000         1.263034043751483E-019
  -58.0700000000000         5.220593437898252E-020
  -57.8800000000000        -2.361780252831986E-020
  -57.6900000000000        -8.335888092512244E-020
  -57.5000000000000        -1.134930678506616E-019
  -57.3100000000000        -1.084580135217602E-019
  -57.1200000000000        -7.208568872135804E-020
  -56.9300000000000        -1.638718731252558E-020
  -56.7400000000000         4.195381868020705E-020
  -56.5500000000000         8.636600780040020E-020
  -56.3600000000000         1.050753937981013E-019
  -56.1700000000000         9.434445872507653E-020
  -55.9800000000000         5.934225129158002E-020
  -55.7900000000000         1.241368732519956E-020
  -55.6000000000000        -3.072579985598235E-020
  -55.4100000000000        -5.574274345414683E-020
  -55.2200000000000        -5.398892968225883E-020
  -55.0300000000000        -2.509897127058083E-020
  -54.8400000000000         2.287054294745640E-020
  -54.6500000000000         7.579472594951184E-020
  -54.4600000000000         1.176372688595388E-019
  -54.2700000000000         1.351985877843689E-019
  -54.0800000000000         1.220709789748745E-019
  -53.8900000000000         8.064321143248210E-020
  -53.7000000000000         2.155927252175671E-020
  -53.5100000000000        -3.922614314022648E-020
  -53.3200000000000        -8.495281825928871E-020
  -53.1300000000000        -1.028217544918623E-019
  -52.9400000000000        -8.764678359906796E-020
  -52.7500000000000        -4.333884419475175E-020
  -52.5600000000000         1.819959803195460E-020
  -52.3700000000000         8.044414031261313E-020
  -52.1800000000000         1.269074802033245E-019
  -51.9900000000000         1.457492683491455E-019
  -51.8000000000000         1.330190708443556E-019
  -51.6100000000000         9.361176553371764E-020
  -51.4200000000000         3.967437998681420E-020
  -51.2300000000000        -1.306146630826782E-020
  -51.0400000000000        -4.994705320994568E-020
  -50.8500000000000        -6.171859052483927E-020
  -50.6600000000000        -4.717419601010606E-020
  -50.4700000000000        -1.344103968380112E-020
  -50.2800000000000         2.624553165138707E-020
  -50.0900000000000         5.659779291995841E-020
  -49.9000000000000         6.497209993223986E-020
  -49.7100000000000         4.531908361175037E-020
  -49.5200000000000         2.128385582370318E-022
  -49.3300000000000        -5.965930695512946E-020
  -49.1400000000000        -1.184242854412311E-019
  -48.9500000000000        -1.595350117133631E-019
  -48.7600000000000        -1.705595739923889E-019
  -48.5700000000000        -1.468461275128736E-019
  -48.3800000000000        -9.297854329372901E-020
  -48.1900000000000        -2.157809059866084E-020
  -48.0000000000000         5.021708915201559E-020
  -47.8100000000000         1.055808483072596E-019
  -47.6200000000000         1.327375918217133E-019
  -47.4300000000000         1.282373274412507E-019
  -47.2400000000000         9.781976038385118E-020
  -47.0500000000000         5.461915981287215E-020
  -46.8600000000000         1.523048836615458E-020
  -46.6700000000000        -5.225120869811120E-021
  -46.4800000000000         2.392947652953630E-021
  -46.2900000000000         3.847398355420291E-020
  -46.1000000000000         9.442997191264531E-020
  -45.9100000000000         1.550871738898701E-019
  -45.7200000000000         2.030076303827929E-019
  -45.5300000000000         2.234913210931695E-019
  -45.3400000000000         2.088124538552252E-019
  -45.1500000000000         1.604681881448486E-019
  -44.9600000000000         8.879731796503038E-020
  -44.7700000000000         1.008839025326650E-020
  -44.5800000000000        -5.798120654091240E-020
  -44.3900000000000        -1.012587106816019E-019
  -44.2000000000000        -1.129711008415968E-019
  -44.0100000000000        -9.542136096570224E-020
  -43.8200000000000        -5.905082836024339E-020
  -43.6300000000000        -1.915397048832337E-020
  -43.4400000000000         8.789300310562114E-021
  -43.2500000000000         1.379902108279942E-020
  -43.0600000000000        -7.269872676414021E-021
  -42.8700000000000        -4.871644164556517E-020
  -42.6800000000000        -9.760253629325109E-020
  -42.4900000000000        -1.375163819950669E-019
  -42.3000000000000        -1.534023775730456E-019
  -42.1100000000000        -1.360612646586750E-019
  -41.9200000000000        -8.501930670725612E-020
  -41.7300000000000        -8.932297251729266E-021
  -41.5400000000000         7.660363895635118E-020
  -41.3500000000000         1.532183418970488E-019
  -41.1600000000000         2.047256180736847E-019
  -40.9700000000000         2.214584887834199E-019
  -40.7800000000000         2.027476762319640E-019
  -40.5900000000000         1.568491281490076E-019
  -40.4000000000000         9.836770613178446E-020
  -40.2100000000000         4.394811591120688E-020
  -40.0200000000000         7.497840392839722E-021
  -39.8300000000000        -3.672224124728891E-021
  -39.6400000000000         9.313524279874890E-021
  -39.4500000000000         3.758088287083774E-020
  -39.2600000000000         6.747975338849242E-020
  -39.0700000000000         8.494542187331325E-020
  -38.8800000000000         7.994570054854963E-020
  -38.6900000000000         4.969191589206712E-020
  -38.5000000000000        -3.419031980410448E-022
  -38.3100000000000        -5.789950183334938E-020
  -38.1200000000000        -1.074908335486244E-019
  -37.9300000000000        -1.349639904425278E-019
  -37.7400000000000        -1.317519012139546E-019
  -37.5500000000000        -9.753860794796540E-020
  -37.3600000000000        -4.055151403158551E-020
  -37.1700000000000         2.462242303442540E-020
  -36.9800000000000         8.107958924443405E-020
  -36.7900000000000         1.143450650398987E-019
  -36.6000000000000         1.164566401350529E-019
  -36.4100000000000         8.820807587273677E-020
  -36.2200000000000         3.889711435055851E-020
  -36.0300000000000        -1.635899156303822E-020
  -35.8400000000000        -6.097354960468808E-020
  -35.6500000000000        -8.165335943937085E-020
  -35.4600000000000        -7.219847106768046E-020
  -35.2700000000000        -3.524079271855625E-020
  -35.0800000000000         1.857762446449508E-020
  -34.8900000000000         7.374234165742050E-020
  -34.7000000000000         1.144055009123654E-019
  -34.5100000000000         1.290074370014299E-019
  -34.3200000000000         1.136402313900025E-019
  -34.1300000000000         7.317683124635489E-020
  -33.9400000000000         1.983527443531854E-020
  -33.7500000000000        -3.040942051221283E-020
  -33.5600000000000        -6.252596624250525E-020
  -33.3700000000000        -6.687127719303051E-020
  -33.1800000000000        -4.207759413518328E-020
  -32.9900000000000         4.470416530660849E-021
  -32.8000000000000         5.872140549469110E-020
  -32.6100000000000         1.040121402731535E-019
  -32.4200000000000         1.259225964303243E-019
  -32.2300000000000         1.165261337298131E-019
  -32.0400000000000         7.679909224683294E-020
  -31.8500000000000         1.647999587075101E-020
  -31.6600000000000        -4.859991823055370E-020
  -31.4700000000000        -1.009642117516581E-019
  -31.2800000000000        -1.264483542107564E-019
  -31.0900000000000        -1.182423166514292E-019
  -30.9000000000000        -7.885032121347401E-020
  -30.7100000000000        -1.939644766380053E-020
  -30.5200000000000         4.352918070530442E-020
  -30.3300000000000         9.257813870220206E-020
  -30.1400000000000         1.145530373217039E-019
  -29.9500000000000         1.041130062796724E-019
  -29.7600000000000         6.522278294363385E-020
  -29.5700000000000         9.945319080854001E-021
  -29.3800000000000        -4.506073668627704E-020
  -29.1900000000000        -8.332444309269834E-020
  -29.0000000000000        -9.325215503283221E-020
  -28.8100000000000        -7.138145286590166E-020
  -28.6200000000000        -2.327451094773379E-020
  -28.4300000000000         3.819089651303556E-020
  -28.2400000000000         9.662079579640501E-020
  -28.0500000000000         1.368772956784737E-019
  -27.8600000000000         1.494272564903629E-019
  -27.6700000000000         1.330015390916999E-019
  -27.4800000000000         9.480014153530741E-020
  -27.2900000000000         4.820061670129173E-020
  -27.1000000000000         8.657274076852844E-021
  -26.9100000000000        -1.099552329440408E-020
  -26.7200000000000        -4.451877243119220E-021
  -26.5300000000000         2.609754355967250E-020
  -26.3400000000000         7.052324913559342E-020
  -26.1500000000000         1.136877068019177E-019
  -25.9600000000000         1.399003475380027E-019
  -25.7700000000000         1.375978533630435E-019
  -25.5800000000000         1.028801636849376E-019
  -25.3900000000000         4.086367654573182E-020
  -25.2000000000000        -3.555178630809798E-020
  -25.0100000000000        -1.091541973506463E-019
  -24.8200000000000        -1.631331700181855E-019
  -24.6300000000000        -1.856846945251035E-019
  -24.4400000000000        -1.731904996340119E-019
  -24.2500000000000        -1.310694671328320E-019
  -24.0600000000000        -7.206979057660105E-020
  -23.8700000000000        -1.250719965585927E-020
  -23.6800000000000         3.245399324619084E-020
  -23.4900000000000         5.310505762255184E-020
  -23.3000000000000         4.783351464399261E-020
  -23.1100000000000         2.334023608411431E-020
  -22.9200000000000        -7.614813456565197E-021
  -22.7300000000000        -3.025977103760484E-020
  -22.5400000000000        -3.244729339386085E-020
  -22.3500000000000        -8.506433264950776E-021
  -22.1600000000000         3.883119195563415E-020
  -21.9700000000000         9.900815394148836E-020
  -21.7800000000000         1.565682369230825E-019
  -21.5900000000000         1.955952956979284E-019
  -21.4000000000000         2.043798347793081E-019
  -21.2100000000000         1.789522818302201E-019
  -21.0200000000000         1.244388856772173E-019
  -20.8300000000000         5.381944907645172E-020
  -20.6400000000000        -1.558216749010399E-020
  -20.4500000000000        -6.688230032631947E-020
  -20.2600000000000        -8.832786977890579E-020
  -20.0700000000000        -7.654552041612527E-020
  -19.8800000000000        -3.741489346922719E-020
  -19.6900000000000         1.568546902455004E-020
  -19.5000000000000         6.575626306594474E-020
  -19.3100000000000         9.706708546779634E-020
  -19.1200000000000         9.965562344913681E-020
  -18.9300000000000         7.214700542303021E-020
  -18.7400000000000         2.208695645191111E-020
  -18.5500000000000        -3.630122966699844E-020
  -18.3600000000000        -8.628121169552106E-020
  -18.1700000000000        -1.134781047142707E-019
  -17.9800000000000        -1.100467510171938E-019
  -17.7900000000000        -7.692652059485023E-020
  -17.6000000000000        -2.353652803627873E-020
  -17.4100000000000         3.498780033931940E-020
  -17.2200000000000         8.220276837957914E-020
  -17.0300000000000         1.051229454443675E-019
  -16.8400000000000         9.796286654099716E-020
  -16.6500000000000         6.377239465414860E-020
  -16.4600000000000         1.349607883251396E-020
  -16.2700000000000        -3.726675012723141E-020
  -16.0800000000000        -7.285708563550180E-020
  -15.8900000000000        -8.216739489881777E-020
  -15.7000000000000        -6.192352085367719E-020
  -15.5100000000000        -1.767879706636735E-020
  -15.3200000000000         3.777086429529601E-020
  -15.1300000000000         8.809038480240363E-020
  -14.9400000000000         1.181515379555247E-019
  -14.7500000000000         1.184456027106678E-019
  -14.5600000000000         8.788612550830854E-020
  -14.3700000000000         3.419178524148138E-020
  -14.1800000000000        -2.826325577947060E-020
  -13.9900000000000        -8.251548432737309E-020
  -13.8000000000000        -1.138263018662328E-019
  -13.6100000000000        -1.138585218832713E-019
  -13.4200000000000        -8.301090902495300E-020
  -13.2300000000000        -3.023812008371435E-020
  -13.0400000000000         2.958702123579527E-020
  -12.8500000000000         7.999688577953284E-020
  -12.6600000000000         1.076763227403049E-019
  -12.4700000000000         1.062526803401055E-019
  -12.2800000000000         7.803207259553868E-020
  -12.0900000000000         3.318833013537105E-020
  -11.9000000000000        -1.334560160740119E-020
  -11.7100000000000        -4.636638239266605E-020
  -11.5200000000000        -5.495160927172929E-020
  -11.3300000000000        -3.573811773176386E-020
  -11.1400000000000         6.038866084101338E-021
  -10.9500000000000         5.805927969494507E-020
  -10.7600000000000         1.045499064130393E-019
  -10.5700000000000         1.309744873474030E-019
  -10.3800000000000         1.284060251579162E-019
  -10.1900000000000         9.629233161346086E-020
  -10.0000000000000         4.279190993548134E-020
  -9.81000000000000        -1.743545058749784E-020
  -9.62000000000000        -6.735806974080441E-020
  -9.42999999999999        -9.243733753657643E-020
  -9.23999999999999        -8.482703257147240E-020
  -9.05000000000000        -4.569248846518530E-020
  -8.86000000000000         1.502819106629073E-020
  -8.67000000000000         8.136447835476562E-020
  -8.48000000000000         1.357773702848206E-019
  -8.28999999999999         1.640692148642203E-019
  -8.09999999999999         1.593309282181174E-019
  -7.91000000000000         1.237964903104887E-019
  -7.72000000000000         6.808150892133289E-020
  -7.53000000000000         8.039839092993772E-021
  -7.34000000000000        -3.984244307495442E-020
  -7.15000000000001        -6.318166839046236E-020
  -6.95999999999999        -5.719807041681027E-020
  -6.77000000000000        -2.598498745012209E-020
  -6.58000000000000         1.880748762142147E-020
  -6.39000000000000         6.148316214011749E-020
  -6.20000000000000         8.698170665335968E-020
  -6.01000000000001         8.537023312702997E-020
  -5.81999999999999         5.483608312849616E-020
  -5.63000000000000         2.305623721743094E-021
  -5.44000000000000        -5.849589785641632E-020
  -5.25000000000000        -1.109819268349405E-019
  -5.06000000000000        -1.404952580906588E-019
  -4.87000000000000        -1.385597123821897E-019
  -4.67999999999999        -1.053591155028410E-019
  -4.48999999999999        -4.972537601258068E-020
  -4.30000000000000         1.336147825365376E-020
  -4.11000000000000         6.704040599857993E-020
  -3.92000000000000         9.737333654359633E-020
  -3.73000000000000         9.730047409800484E-020
  -3.53999999999999         6.860537050864775E-020
  -3.34999999999999         2.132332091013788E-020
  -3.16000000000000        -2.923181199130058E-020
  -2.97000000000000        -6.695501111211033E-020
  -2.78000000000000        -7.964504060905202E-020
  -2.59000000000000        -6.254304254753486E-020
  -2.40000000000001        -1.969193610159227E-020
  -2.20999999999999         3.726875101205574E-020
  -2.02000000000000         9.251177236315978E-020
  -1.83000000000000         1.306362489699487E-019
  -1.64000000000000         1.411424476970471E-019
  -1.45000000000000         1.214663017061317E-019
  -1.26000000000001         7.769260744278547E-020
  -1.06999999999999         2.274191493403303E-020
 -0.879999999999995        -2.743628094263536E-020
 -0.689999999999998        -5.854734837657005E-020
 -0.500000000000000        -6.213766811212233E-020
 -0.310000000000002        -3.805447365324935E-020
 -0.120000000000005         5.541377477359940E-021
  7.000000000000739E-002    5.461126761945749E-020
  0.260000000000005         9.340762883274499E-020
  0.450000000000003         1.091549462043710E-019
  0.640000000000001         9.587402524268609E-020
  0.829999999999998         5.622900055108666E-020
   1.02000000000000         8.485041271303736E-022
   1.21000000000001        -5.469577814998685E-020
   1.40000000000001        -9.438743711216744E-020
   1.59000000000000        -1.064387769579205E-019
   1.78000000000000        -8.677714108764301E-020
   1.97000000000000        -4.031922629061646E-020
   2.16000000000000         2.035138447228682E-020
   2.34999999999999         7.853210824565588E-020
   2.54000000000001         1.181541862066272E-019
   2.73000000000000         1.283686647699201E-019
   2.92000000000000         1.066416116181240E-019
   3.11000000000000         5.946549024684584E-020
   3.30000000000000         4.810158635605156E-022
   3.48999999999999        -5.345071995346624E-020
   3.68000000000001        -8.709587268645710E-020
   3.87000000000000        -9.121882902284752E-020
   4.06000000000000        -6.521491705682121E-020
   4.25000000000000        -1.724303069112229E-020
   4.44000000000000         3.818062193669734E-020
   4.63000000000000         8.442946121894252E-020
   4.82000000000001         1.076208390016283E-019
   5.01000000000001         1.006684194858050E-019
   5.20000000000000         6.535783081115642E-020
   5.39000000000000         1.184569061137911E-020
   5.58000000000000        -4.427162114023708E-020
   5.77000000000000        -8.647193051937742E-020
   5.96000000000001        -1.021008943655467E-019
   6.15000000000001        -8.606108139557068E-020
   6.34000000000000        -4.232891880247602E-020
   6.53000000000000         1.714278222705382E-020