  -1.60312500000000         0.000000000000000E+000
  -1.38937500000000         0.000000000000000E+000
  -1.17562500000000         0.000000000000000E+000
 -0.961875000000000         0.000000000000000E+000
 -0.748125000000000         0.000000000000000E+000
 -0.534375000000000         0.000000000000000E+000
 -0.320625000000000         0.000000000000000E+000
 -0.106875000000000         0.000000000000000E+000
  0.106875000000000         0.000000000000000E+000
  0.320625000000000         0.000000000000000E+000
  0.534375000000000         0.000000000000000E+000
  0.748125000000000         0.000000000000000E+000
  0.961875000000000         0.000000000000000E+000
   1.17562500000000         0.000000000000000E+000
   1.38937500000000         0.000000000000000E+000
   1.60312500000000         0.000000000000000E+000
   1.81687500000000         0.000000000000000E+000
   2.03062500000000         0.000000000000000E+000
   2.24437500000000         0.000000000000000E+000
   2.45812500000000         0.000000000000000E+000
   2.67187500000000         0.000000000000000E+000
   2.88562500000000         0.000000000000000E+000
   3.09937500000000         0.000000000000000E+000
   3.31312500000000         0.000000000000000E+000
   3.52687500000000         0.000000000000000E+000
   3.74062500000000         0.000000000000000E+000
   3.95437500000000         0.000000000000000E+000
   4.16812500000000         0.000000000000000E+000
   4.38187500000000         0.000000000000000E+000
   4.59562500000000         0.000000000000000E+000
   4.80937500000000         0.000000000000000E+000
   5.02312500000000         0.000000000000000E+000
   5.23687500000000         0.000000000000000E+000
   5.45062500000000         0.000000000000000E+000
   5.66437500000000         0.000000000000000E+000
   5.87812500000000         0.000000000000000E+000
   6.09187500000000         0.000000000000000E+000
   6.30562500000000         0.000000000000000E+000
   6.51937500000000         0.000000000000000E+000
   6.73312500000000         0.000000000000000E+000
   6.94687500000000         0.000000000000000E+000
   7.16062500000000         0.000000000000000E+000
   7.37437500000000         0.000000000000000E+000
   7.58812500000000         2.261621184840254E-185
   7.80187500000000         4.477565414679825E-178
   8.01562500000000        -7.965364720372352E-161
   8.22937500000000        -3.826657246369882E-159
   8.44312500000000        -7.279860152754253E-158
   8.65687500000000        -2.537392688823947E-157
   8.87062500000000         2.152659517423022E-155
   9.08437500000000         6.791369306625235E-154
   9.29812500000000         1.253594516987414E-152
   9.51187500000000         1.735427383609813E-151
   9.72562500000000         1.950638192656547E-150
   9.93937500000000         1.844169555499814E-149
   10.1531250000000         1.486478619598446E-148
   10.3668750000000         1.015443057378833E-147
   10.5806250000000         5.650673809019020E-147
   10.7943750000000         2.201147260582729E-146
   11.0081250000000         6.651979965352774E-147
   11.2218750000000        -9.250329761626863E-145
   11.4356250000000        -1.142507667457735E-143
   11.6493750000000        -9.589270416560052E-143
   11.8631250000000        -6.483685912656969E-142
   12.0768750000000        -3.639803455201571E-141
   12.2906250000000        -1.630945988322886E-140
   12.5043750000000        -4.653061152182239E-140
   12.7181250000000         8.068589325854828E-140
   12.9318750000000         2.583142567197117E-138
   13.1456250000000         2.586104840996213E-137
   13.3593750000000         1.969710504806867E-136
   13.5731250000000         1.297724160892408E-135
   13.7868750000000         7.745943921061583E-135
   14.0006250000000         4.284721733713161E-134
   14.2143750000000         2.225626166929251E-133
   14.4281250000000         1.094925205972301E-132
   14.6418750000000         5.132572374579878E-132
   14.8556250000000         2.302776050952288E-131
   15.0693750000000         9.923138816362639E-131
   15.2831250000000         4.118562292219292E-130
   15.4968750000000         1.650242666984861E-129
   15.7106250000000         6.395940716429910E-129
   15.9243750000000         2.401837319370572E-128
   16.1381250000000         8.751819270529959E-128
   16.3518750000000         3.098312322717039E-127
   16.5656250000000         1.066885390590007E-126
   16.7793750000000         3.576984777313598E-126
   16.9931250000000         1.168744342068526E-125
   17.2068750000000         3.724628100253725E-125
   17.4206250000000         1.158594642189449E-124
   17.6343750000000         3.520139221021402E-124
   17.8481250000000         1.045287615519243E-123
   18.0618750000000         3.035311291451023E-123
   18.2756250000000         8.623506383741481E-123
   18.4893750000000         2.398164856746050E-122
   18.7031250000000         6.530865110867991E-122
   18.9168750000000         1.742298906777058E-121
   19.1306250000000         4.554922171529089E-121
   19.3443750000000         1.167278240369340E-120
   19.5581250000000         2.933016801528700E-120
   19.7718750000000         7.227626196324053E-120
   19.9856250000000         1.747005192649189E-119
   20.1993750000000         4.142550990054678E-119
   20.4131250000000         9.637283511861671E-119
   20.6268750000000         2.199738166634715E-118
   20.8406250000000         4.926173536671201E-118
   21.0543750000000         1.082273246922006E-117
   21.2681250000000         2.332320609902658E-117
   21.4818750000000         4.929054754064453E-117
   21.6956250000000         1.021222978255651E-116
   21.9093750000000         2.073313079639707E-116
   22.1231250000000         4.122287173224406E-116
   22.3368750000000         8.020487562689374E-116
   22.5506250000000         1.525479299418653E-115
   22.7643750000000         2.832476645814562E-115
   22.9781250000000         5.125017141850758E-115
   23.1918750000000         9.014157395249119E-115
   23.4056250000000         1.535902977328891E-114
   23.6193750000000         2.522598675909354E-114
   23.8331250000000         3.963480808359630E-114
   24.0468750000000         5.883443734160591E-114
   24.2606250000000         8.065259201592670E-114
   24.4743750000000         9.718294803189412E-114
   24.6881250000000         8.874544626962561E-114
   24.9018750000000         1.382715843073257E-114
   25.1156250000000        -2.060241407235185E-113
   25.3293750000000        -7.057497068638981E-113
   25.5431250000000        -1.695423859442811E-112
   25.7568750000000        -3.461573085537539E-112
   25.9706250000000        -6.311858448039818E-112
   26.1843750000000        -1.038034010729061E-111
   26.3981250000000        -1.513364070866113E-111
   26.6118750000000        -1.829100939358096E-111
   26.8256250000000        -1.367465819756434E-111
   27.0393750000000         1.277306058200065E-111
   27.2531250000000         8.992497653955091E-111
   27.4668750000000         2.728493073031048E-110
   27.6806250000000         6.603521443227999E-110
   27.8943750000000         1.420118367959113E-109
   28.1081250000000         2.821421673575583E-109
   28.3218750000000         5.271561772278322E-109
   28.5356250000000         9.344197200604144E-109
   28.7493750000000         1.577294169898257E-108
   28.9631250000000         2.535858040438362E-108
   29.1768750000000         3.869931664866133E-108
   29.3906250000000         5.559775934272235E-108
   29.6043750000000         7.392651619112573E-108
   29.8181250000000         8.765481896717748E-108
   30.0318750000000         8.367521416473903E-108
   30.2456250000000         3.707093041031531E-108
   30.4593750000000        -9.538190642851577E-108
   30.6731250000000        -3.832391415131767E-107
   30.8868750000000        -9.307699302866121E-107
   31.1006250000000        -1.882850151242430E-106
   31.3143750000000        -3.422837031356670E-106
   31.5281250000000        -5.752991923758462E-106
   31.7418750000000        -9.042931297906001E-106
   31.9556250000000        -1.332584939254736E-105
   32.1693750000000        -1.831729378038594E-105
   32.3831250000000        -2.312987665163867E-105
   32.5968750000000        -2.586409736686563E-105
   32.8106250000000        -2.307716700901605E-105
   33.0243750000000        -9.176903325269466E-106
   33.2381250000000         2.413462325839887E-105
   33.4518750000000         8.812666614297095E-105
   33.6656250000000         1.966203257791893E-104
   33.8793750000000         3.643176207800230E-104
   34.0931250000000         6.031659816611554E-104
   34.3068750000000         9.160038621246894E-104
   34.5206250000000         1.286917761239816E-103
   34.7343750000000         1.668301907600255E-103
   34.9481250000000         1.965694466771378E-103
   35.1618750000000         2.023133181940281E-103
   35.3756250000000         1.613887885186585E-103
   35.5893750000000         4.434678558197818E-104
   35.8031250000000        -1.827318727251180E-103
   36.0168750000000        -5.533538471885994E-103
   36.2306250000000        -1.093321169736657E-102
   36.4443750000000        -1.812711812134206E-102
   36.6581250000000        -2.701224005479457E-102
   36.8718750000000        -3.734028905482947E-102
   37.0856250000000        -4.897989766626820E-102
   37.2993750000000        -6.248290161302652E-102
   37.5131250000000        -7.999316705321867E-102
   37.7268750000000        -1.063535725618241E-101
   37.9406250000000        -1.498927884096052E-101
   38.1543750000000        -2.217444925957682E-101
   38.3681250000000        -3.316525755245749E-101
   38.5818750000000        -4.771549385481612E-101
   38.7956250000000        -6.221580864953967E-101
   39.0093750000000        -6.609315634243043E-101
   39.2231250000000        -3.656951616411212E-101
   39.4368750000000         6.779457408883160E-101
   39.6506250000000         3.131170392180218E-100
   39.8643750000000         7.920443132357174E-100
   40.0781250000000         1.614682475809705E-099
   40.2918750000000         2.878086277015155E-099
   40.5056250000000         4.600080342139568E-099
   40.7193750000000         6.601368300435560E-099
   40.9331250000000         8.323178646300903E-099
   41.1468750000000         8.581022807747083E-099
   41.3606250000000         5.284986293232232E-099
   41.5743750000000        -4.789592544481575E-099
   41.7881250000000        -2.601492794073904E-098
   42.0018750000000        -6.343085993361563E-098
   42.2156250000000        -1.213723814144089E-097
   42.4293750000000        -2.007047943570103E-097
   42.6431250000000        -2.941610177120560E-097
   42.8568750000000        -3.794779753171570E-097
   43.0706250000000        -4.105979966060917E-097
   43.2843750000000        -3.083256103446042E-097
   43.4981250000000         4.631431967858729E-098
   43.7118750000000         8.101089066595783E-097
   43.9256250000000         2.157870697795589E-096
   44.1393750000000         4.232298389880151E-096
   44.3531250000000         7.048915141497135E-096
   44.5668750000000         1.034302211773352E-095
   44.7806250000000         1.335399018974318E-095
   44.9943750000000         1.456175497901459E-095
   45.2081250000000         1.142565003268033E-095
   45.4218750000000         2.301078134457735E-097
   45.6356250000000        -2.378506209521885E-095
   45.8493750000000        -6.574806339416031E-095
   46.0631250000000        -1.295959878732487E-094
   46.2768750000000        -2.152706298765828E-094
   46.4906250000000        -3.143890914557844E-094
   46.7043750000000        -4.043834197286479E-094
   46.9181250000000        -4.416679482444909E-094
   47.1318750000000        -3.553392302787808E-094
   47.3456250000000        -4.428675487157032E-095
   47.5593750000000         6.176716713253411E-094
   47.7731250000000         1.762179744839393E-093
   47.9868750000000         3.484432272501584E-093
   48.2006250000000         5.771182306288193E-093
   48.4143750000000         8.393748044065893E-093
   48.6281250000000         1.076857545176296E-092
   48.8418750000000         1.180191315450027E-092
   49.0556250000000         9.757183467398577E-093
   49.2693750000000         2.213841497623123E-093
   49.4831250000000        -1.377763636037801E-092
   49.6968750000000        -4.120543269940203E-092
   49.9106250000000        -8.211137692720754E-092
   50.1243750000000        -1.359667732583745E-091
   50.3381250000000        -1.973427952296644E-091
   50.5518750000000        -2.529840301904624E-091
   50.7656250000000        -2.786972448435786E-091
   50.9793750000000        -2.369180708767058E-091
   51.1931250000000        -7.640250064761990E-092
   51.4068750000000         2.638627600762211E-091
   51.6206250000000         8.438831336476160E-091
   51.8343750000000         1.702171495106494E-090
   52.0481250000000         2.823275662708392E-090
   52.2618750000000         4.092850023040705E-090
   52.4756250000000         5.243404669104041E-090
   52.6893750000000         5.799690099352776E-090
   52.9031250000000         5.040821397814194E-090
   53.1168750000000         2.006146350508548E-090
   53.3306250000000        -4.418112697511294E-090
   53.5443750000000        -1.528735628562683E-089
   53.7581250000000        -3.121889555940808E-089
   53.9718750000000        -5.181571691140211E-089
   54.1856250000000        -7.490227228810953E-089
   54.3993750000000        -9.564655429036045E-089
   54.6131250000000        -1.057411237316703E-088
   54.8268750000000        -9.294365786673093E-089
   55.0406250000000        -4.141985396486913E-089
   55.2543750000000         6.654397727548584E-089
   55.4681250000000         2.468375563504240E-088
   55.6818750000000         5.073027168608619E-088
   55.8956250000000         8.387848964560150E-088
   56.1093750000000         1.203905412700912E-087
   56.3231250000000         1.525033833787639E-087
   56.5368750000000         1.674349930120921E-087
   56.7506250000000         1.470542333294908E-087
   56.9643750000000         6.882933623168968E-088
   57.1781250000000        -9.122708845456131E-088
   57.3918750000000        -3.529266473585192E-087
   57.6056250000000        -7.231464712321124E-087
   57.8193750000000        -1.184063404792255E-086
   58.0331250000000        -1.679440445843913E-086
   58.2468750000000        -2.101345492094937E-086
   58.4606250000000        -2.281279773102930E-086
   58.6743750000000        -1.991309140667887E-086
   58.8881250000000        -9.619835985782480E-087
   59.1018750000000         1.076023993654329E-086
   59.3156250000000         4.321276164400017E-086
   59.5293750000000         8.800818281309460E-086
   59.7431250000000         1.424542430946142E-085
   59.9568750000000         1.995720697896855E-085
   60.1706250000000         2.469842388719779E-085
   60.3843750000000         2.664304602802025E-085
   60.5981250000000         2.344248859788591E-085
   60.8118750000000         1.245958401632715E-085
   61.0256250000000        -8.784383902727608E-086
   61.2393750000000        -4.193029316352669E-085
   61.4531250000000        -8.689440066525913E-085
   61.6668750000000        -1.408610476668765E-084
   61.8806250000000        -1.973153452133954E-084
   62.0943750000000        -2.453498649771826E-084
   62.3081250000000        -2.695357775815227E-084
   62.5218750000000        -2.506680103430771E-084
   62.7356250000000        -1.676565325051233E-084
   62.9493750000000        -7.287192112890820E-087
   63.1631250000000         2.640704845473662E-084
   63.3768750000000         6.293290333742770E-084
   63.5906250000000         1.080179786883539E-083
   63.8043750000000         1.578435353424846E-083
   64.0181250000000         2.057907803729401E-083
   64.2318750000000         2.422005582849948E-083
   64.4456250000000         2.544768709827688E-083
   64.6593750000000         2.276550911520294E-083
   64.8731250000000         1.455636306484333E-083
   65.0868750000000        -7.279334220960654E-085
   65.3006250000000        -2.428835743437309E-083
   65.5143750000000        -5.659909553749925E-083
   65.7281250000000        -9.692426625582371E-083
   65.9418750000000        -1.427542356885570E-082
   66.1556250000000        -1.892323447216167E-082
   66.3693750000000        -2.287146994286531E-082
   66.5831250000000        -2.506935972034732E-082
   66.7968750000000        -2.423932105373596E-082
   67.0106250000000        -1.903652473841194E-082
   67.2243750000000        -8.330104211322667E-083
   67.4381250000000         8.404622229281649E-083
   67.6518750000000         3.065306186030283E-082
   67.8656250000000         5.654336672325306E-082
   68.0793750000000         8.289711467413310E-082
   68.2931250000000         1.059765177412310E-081
   68.5068750000000         1.232474988019654E-081
   68.7206250000000         1.363053731107081E-081
   68.9343750000000         1.546854334070779E-081
   69.1481250000000         1.995424961314017E-081
   69.3618750000000         3.051467790611227E-081
   69.5756250000000         5.149679743718211E-081
   69.7893750000000         8.681778630786144E-081
   70.0031250000000         1.372325257817916E-080
   70.2168750000000         1.959596788266503E-080
   70.4306250000000         2.428456340259959E-080
   70.6443750000000         2.380364995642366E-080
   70.8581250000000         1.172891737682520E-080
   71.0718750000000        -2.075266775298192E-080
   71.2856250000000        -8.378093429986443E-080
   71.4993750000000        -1.861791854615200E-079
   71.7131250000000        -3.307252979775425E-079
   71.9268750000000        -5.071418989742726E-079
   72.1406250000000        -6.832619133544887E-079
   72.3543750000000        -7.958820419617436E-079
   72.5681250000000        -7.442497442039855E-079
   72.7818750000000        -3.907586082379426E-079
   72.9956250000000         4.251409997236100E-079
   73.2093750000000         1.853217457381827E-078
   73.4231250000000         3.973443737785720E-078
   73.6368750000000         6.710051269561316E-078
   73.8506250000000         9.724442125006439E-078
   74.0643750000000         1.230419308784190E-077
   74.2781250000000         1.328028320134020E-077
   74.4918750000000         1.102096079145814E-077
   74.7056250000000         3.564286613339976E-078
   74.9193750000000        -1.104387668503418E-077
   75.1331250000000        -3.415186737907125E-077
   75.3468750000000        -6.562755162793321E-077
   75.5606250000000        -1.027611520553292E-076
   75.7743750000000        -1.391061178499297E-076
   75.9881250000000        -1.635542524447326E-076
   76.2018750000000        -1.600870730336788E-076
   76.4156250000000        -1.087656208995501E-076
   76.6293750000000         1.143709906026528E-077
   76.8431250000000         2.174595198728670E-076
   77.0568750000000         5.144464066578106E-076
   77.2706250000000         8.859185657690476E-076
   77.4843750000000         1.283095688428325E-075
   77.6981250000000         1.615760161683082E-075
   77.9118750000000         1.748240470699662E-075
   78.1256250000000         1.505088610704447E-075
   78.3393750000000         6.914244210503224E-076
   78.5531250000000        -8.677775922007672E-076
   78.7668750000000        -3.267496428197928E-075
   78.9806250000000        -6.443947500124635E-075
   79.1943750000000        -1.008622016405681E-074
   79.4081250000000        -1.355543916517716E-074
   79.6218750000000        -1.583762179358296E-074
   79.8356250000000        -1.556418341917080E-074
   80.0493750000000        -1.113779436632382E-074
   80.2631250000000        -9.975322291040402E-076
   80.4768750000000         1.595763929097343E-074
   80.6906250000000         3.979706467839701E-074
   80.9043750000000         6.889251763331755E-074
   81.1181250000000         9.926983193400468E-074
   81.3318750000000         1.241532462812660E-073
   81.5456250000000         1.339351493999409E-073
   81.7593750000000         1.168370148616668E-073
   81.9731250000000         6.051320598150445E-074
   82.1868750000000        -4.523633347203959E-074
   82.4006250000000        -2.046563128175438E-073
   82.6143750000000        -4.114205845387419E-073
   82.8281250000000        -6.438731332319521E-073
   83.0418750000000        -8.612111082515428E-073
   83.2556250000000        -1.002096708709517E-072
   83.4693750000000        -9.874522965984565E-073
   83.6831250000000        -7.291845121075077E-073
   83.8968750000000        -1.461427635490420E-073
   84.1106250000000         8.123926694001011E-073
   84.3243750000000         2.137053922338966E-072
   84.5381250000000         3.726185069034281E-072
   84.7518750000000         5.357385821167004E-072
   84.9656250000000         6.671727513914447E-072
   85.1793750000000         7.181534642603721E-072
   85.3931250000000         6.313064633395914E-072
   85.6068750000000         3.493380031260671E-072
   85.8206250000000        -1.714687065472499E-072
   86.0343750000000        -9.434878027677434E-072
   86.2481250000000        -1.927566943453877E-071
   86.4618750000000        -3.013862382149930E-071
   86.6756250000000        -4.008759899383135E-071
   86.8893750000000        -4.634255953805573E-071
   87.1031250000000        -4.546671319681667E-071
   87.3168750000000        -3.380703590788899E-071
   87.5306250000000        -8.220719460861444E-072
   87.7443750000000         3.292981297886207E-071
   87.9581250000000         8.860289117605791E-071
   88.1718750000000         1.539032666224192E-070
   88.3856250000000         2.191798318822204E-070
   88.5993750000000         2.697460945061423E-070
   88.8131250000000         2.866104940917483E-070
   89.0268750000000         2.485677367141457E-070
   89.2406250000000         1.358654605507803E-070
   89.4543750000000        -6.459636848867640E-071
   89.6681250000000        -3.529529265097687E-070
   89.8818750000000        -7.098367250175785E-070
   90.0956250000000        -1.090996649386194E-069
   90.3093750000000        -1.424872011527624E-069
   90.5231250000000        -1.615120349570216E-069
   90.7368750000000        -1.549929529433272E-069
   90.9506250000000        -1.119268120744357E-069
   91.1643750000000        -2.399578962059399E-070
   91.3781250000000         1.113394383217902E-069
   91.5918750000000         2.875827440815018E-069
   91.8056250000000         4.864367729052721E-069
   92.0193750000000         6.763708601765497E-069
   92.2331250000000         8.134418799056930E-069
   92.4468750000000         8.451840913999812E-069
   92.6606250000000         7.180441848189910E-069
   92.8743750000000         3.882367020572105E-069
   93.0881250000000        -1.649379745896693E-069
   93.3018750000000        -9.252354284218431E-069
   93.5156250000000        -1.827908518090297E-068
   93.7293750000000        -2.753910992003561E-068
   93.9431250000000        -3.533372943951546E-068
   94.1568750000000        -3.961069489662177E-068
   94.3706250000000        -3.824826503888184E-068
   94.5843750000000        -2.945080796449030E-068
   94.7981250000000        -1.220453281049851E-068
   95.0118750000000         1.329161270150810E-068
   95.2256250000000         4.532905008939456E-068
   95.4393750000000         8.063970233841285E-068
   95.6531250000000         1.146792817435240E-067
   95.8668750000000         1.422658933873584E-067
   96.0806250000000         1.584967253345590E-067
   96.2943750000000         1.597442065191629E-067
   96.5081250000000         1.444170519441966E-067
   96.7218750000000         1.131018438037391E-067
   96.9356250000000         6.772626334787746E-068
   97.1493750000000         9.552769970120120E-069
   97.3631250000000        -6.384926755623688E-068
   97.5768750000000        -1.620018459690715E-067
   97.7906250000000        -3.040326723621122E-067
   98.0043750000000        -5.184821008060852E-067
   98.2181250000000        -8.382499586040806E-067
   98.4318750000000        -1.288699455852986E-066
   98.6456250000000        -1.867872481686063E-066
   98.8593750000000        -2.519679158450033E-066
   99.0731250000000        -3.103848127544861E-066
   99.2868750000000        -3.370137780480782E-066
   99.5006250000000        -2.948223586795978E-066
   99.7143750000000        -1.367789134658793E-066
   99.9281250000000         1.875727229050520E-066
   100.141875000000         7.197156448342297E-066
   100.355625000000         1.473504266693501E-065
   100.569375000000         2.411274411149827E-065
   100.783125000000         3.417831474347153E-065
   100.996875000000         4.277972483256440E-065
   101.210625000000         4.665802636665263E-065
   101.424375000000         4.156139108252524E-065
   101.638125000000         2.268905635600533E-065
   101.851875000000        -1.444360920495198E-065
   102.065625000000        -7.267869667609070E-065
   102.279375000000        -1.514781862067715E-064
   102.493125000000        -2.449553946492309E-064
   102.706875000000        -3.400160301336780E-064
   102.920625000000        -4.151189412100759E-064
   103.134375000000        -4.403103685118724E-064
   103.348125000000        -3.792560094225460E-064
   103.561875000000        -1.939367999941093E-064
   103.775625000000         1.475685999749852E-064
   103.989375000000         6.602620988195744E-064
   104.203125000000         1.329125302019114E-063
   104.416875000000         2.095422797868344E-063
   104.630625000000         2.845133232287929E-063
   104.844375000000         3.403222577396775E-063
   105.058125000000         3.538175126471760E-063
   105.271875000000         2.981310256156650E-063
   105.485625000000         1.464612964197777E-063
   105.699375000000        -1.221199925534512E-063
   105.913125000000        -5.150055846400344E-063
   106.126875000000        -1.017180816983541E-062
   106.340625000000        -1.582376029713709E-062
   106.554375000000        -2.126106449539886E-062
   106.768125000000        -2.523026634507736E-062
   106.981875000000        -2.611377199541823E-062
   107.195625000000        -2.207262061579612E-062
   107.409375000000        -1.130879463393671E-062
   107.623125000000         7.545218336135641E-063
   107.836875000000         3.492372607302631E-062
   108.050625000000         6.975600317743558E-062
   108.264375000000         1.089053479788659E-061
   108.478125000000         1.467370436922174E-061
   108.691875000000         1.749667202249296E-061
   108.905625000000         1.829607249741508E-061
   109.119375000000         1.586562936960111E-061
   109.333125000000         9.023049287850230E-062
   109.546875000000        -3.143658839563151E-062
   109.760625000000        -2.095927740466663E-061
   109.974375000000        -4.380100798955820E-061
   110.188125000000        -6.974377059980505E-061
   110.401875000000        -9.528358168246199E-061
   110.615625000000        -1.152319956708909E-060
   110.829375000000        -1.228871080304795E-060
   111.043125000000        -1.105846289167107E-060
   111.256875000000        -7.070928637042935E-061
   111.470625000000         2.803591907323301E-062
   111.684375000000         1.125274777572902E-060
   111.898125000000         2.553268695494768E-060
   112.111875000000         4.201573149096858E-060
   112.325625000000         5.863185185440874E-060
   112.539375000000         7.227192499255752E-060
   112.753125000000         7.887868218062990E-060
   112.966875000000         7.376401619314739E-060
   113.180625000000         5.220043426523135E-060
   113.394375000000         1.030424437979214E-060
   113.608125000000        -5.381997959892807E-060
   113.821875000000        -1.387690645884348E-059
   114.035625000000        -2.385376088717733E-059
   114.249375000000        -3.414736608635713E-059
   114.463125000000        -4.298149392938486E-059
   114.676875000000        -4.801653726594789E-059
   114.890625000000        -4.652587684699640E-059
   115.104375000000        -3.572707434418038E-059
   115.318125000000        -1.327649677180206E-059
   115.531875000000         2.209115440045917E-059
   115.745625000000         6.983281511638567E-059
   115.959375000000         1.268725984297117E-058
   116.173125000000         1.870210132158937E-058
   116.386875000000         2.407105465722682E-058
   116.600625000000         2.752375392317876E-058
   116.814375000000         2.756893735307824E-058
   117.028125000000         2.266868030502031E-058
   117.241875000000         1.149765924835265E-058
   117.455625000000        -6.723213772389791E-059
   117.669375000000        -3.184768227302829E-058
   117.883125000000        -6.242906613385706E-058
   118.096875000000        -9.541887232655040E-058
   118.310625000000        -1.260245638246122E-057
   118.524375000000        -1.478187411976778E-057
   118.738125000000        -1.531848619754671E-057
   118.951875000000        -1.341592791677538E-057
   119.165625000000        -8.368313941584393E-058
   119.379375000000         2.789411289142104E-059
   119.593125000000         1.254644027976639E-057
   119.806875000000         2.783931605408983E-057
   120.020625000000         4.479885511682186E-057
   120.234375000000         6.122587857269764E-057
   120.448125000000         7.411713882867864E-057
   120.661875000000         7.985252500952508E-057
   120.875625000000         7.455966692002468E-057
   121.089375000000         5.466267755427672E-057
   121.303125000000         1.759350274935850E-057
   121.516875000000        -3.739062749670407E-057
   121.730625000000        -1.083784036213249E-056
   121.944375000000        -1.900954566866988E-056
   122.158125000000        -2.734743593743437E-056
   122.371875000000        -3.456750215116316E-056
   122.585625000000        -3.907161304662014E-056
   122.799375000000        -3.908385382152109E-056
   123.013125000000        -3.286493892772790E-056
   123.226875000000        -1.899918345066836E-056
   123.440625000000         3.264514302956925E-057
   123.654375000000         3.365079081012881E-056
   123.868125000000         7.052258552587753E-056