  -1.60312500000000         0.000000000000000E+000
  -1.38937500000000        -6.487101394178838E-012
  -1.17562500000000        -4.533996899911471E-011
 -0.961875000000000        -2.168666484374611E-010
 -0.748125000000000        -8.365257361966882E-010
 -0.534375000000000        -2.709743307359433E-009
 -0.320625000000000        -7.504671546347252E-009
 -0.106875000000000        -1.802514525475014E-008
  0.106875000000000        -3.808730042552225E-008
  0.320625000000000        -7.188191452484384E-008
  0.534375000000000        -1.230755757462807E-007
  0.748125000000000        -1.941267585881682E-007
  0.961875000000000        -2.860486854272332E-007
   1.17562500000000        -3.986030661354241E-007
   1.38937500000000        -5.305987519129415E-007
   1.60312500000000        -6.799603952124127E-007
   1.81687500000000        -8.438719836330729E-007
   2.03062500000000        -1.018849015419742E-006
   2.24437500000000        -1.200000503298511E-006
   2.45812500000000        -1.384426619080504E-006
   2.67187500000000        -1.565805889525124E-006
   2.88562500000000        -1.741676838610802E-006
   3.09937500000000        -1.906202138832482E-006
   3.31312500000000        -2.054484187759898E-006
   3.52687500000000        -2.182941100367431E-006
   3.74062500000000        -2.288482955617841E-006
   3.95437500000000        -2.368779494417263E-006
   4.16812500000000        -2.422663765162480E-006
   4.38187500000000        -2.449500925551970E-006
   4.59562500000000        -2.450161228992178E-006
   4.80937500000000        -2.427125108460269E-006
   5.02312500000000        -2.384333128116588E-006
   5.23687500000000        -2.326032543822417E-006
   5.45062500000000        -2.258340203040074E-006
   5.66437500000000        -2.188321570761507E-006
   5.87812500000000        -2.123728574945131E-006
   6.09187500000000        -2.072377725834955E-006
   6.30562500000000        -2.041839157892985E-006
   6.51937500000000        -2.039013152776761E-006
   6.73312500000000        -2.068511695956162E-006
   6.94687500000000        -2.131636783898801E-006
   7.16062500000000        -2.231527139107559E-006
   7.37437500000000        -2.364324221751011E-006
   7.58812500000000        -2.523749985153745E-006
   7.80187500000000        -2.701025182306165E-006
   8.01562500000000        -2.885064908329368E-006
   8.22937500000000        -3.063380354468115E-006
   8.44312500000000        -3.222982468362180E-006
   8.65687500000000        -3.351515075605746E-006
   8.87062500000000        -3.438490825384925E-006
   9.08437500000000        -3.475899600382633E-006
   9.29812500000000        -3.459346255869613E-006
   9.51187500000000        -3.387163123695209E-006
   9.72562500000000        -3.261580331314995E-006
   9.93937500000000        -3.089714359864472E-006
   10.1531250000000        -2.880474236496311E-006
   10.3668750000000        -2.644626426772269E-006
   10.5806250000000        -2.394009594046798E-006
   10.7943750000000        -2.140546721927812E-006
   11.0081250000000        -1.895250527667556E-006
   11.2218750000000        -1.670525393820473E-006
   11.4356250000000        -1.466988732334174E-006
   11.6493750000000        -1.298207351322332E-006
   11.8631250000000        -1.155237040364201E-006
   12.0768750000000        -1.053260648748896E-006
   12.2906250000000        -9.748542162790234E-007
   12.5043750000000        -9.340988095815190E-007
   12.7181250000000        -9.114357265644350E-007
   12.9318750000000        -9.172949644792213E-007
   13.1456250000000        -9.378208335995937E-007
   13.3593750000000        -9.760439750371189E-007
   13.5731250000000        -1.025582596999677E-006
   13.7868750000000        -1.082800744800046E-006
   14.0006250000000        -1.143610703510471E-006
   14.2143750000000        -1.203757544289770E-006
   14.4281250000000        -1.259170155771647E-006
   14.6418750000000        -1.306115504206981E-006
   14.8556250000000        -1.341157230780248E-006
   15.0693750000000        -1.362263823721559E-006
   15.2831250000000        -1.367434936734985E-006
   15.4968750000000        -1.356598082943562E-006
   15.7106250000000        -1.332298263320963E-006
   15.9243750000000        -1.294993015273642E-006
   16.1381250000000        -1.248393860172719E-006
   16.3518750000000        -1.196463423116941E-006
   16.5656250000000        -1.143699197591628E-006
   16.7793750000000        -1.094118554513356E-006
   16.9931250000000        -1.050719934265486E-006
   17.2068750000000        -1.015610791476002E-006
   17.4206250000000        -9.869060466912008E-007
   17.6343750000000        -9.650848989169557E-007
   17.8481250000000        -9.586864960538384E-007
   18.0618750000000        -9.491142444913147E-007
   18.2756250000000        -9.512730733133980E-007
   18.4893750000000        -9.435445054958944E-007
   18.7031250000000        -9.364600239819056E-007
   18.9168750000000        -9.181843712709904E-007
   19.1306250000000        -8.920843595630177E-007
   19.3443750000000        -8.579235827907551E-007
   19.5581250000000        -8.179705074818492E-007
   19.7718750000000        -7.762072773879085E-007
   19.9856250000000        -7.376897916179577E-007
   20.1993750000000        -7.076644889001798E-007
   20.4131250000000        -6.912834206172713E-007
   20.6268750000000        -6.929306911714573E-007
   20.8406250000000        -7.157698622094528E-007
   21.0543750000000        -7.607587840818627E-007
   21.2681250000000        -8.281049992490881E-007
   21.4818750000000        -9.156072418033490E-007
   21.6956250000000        -1.020844955871573E-006
   21.9093750000000        -1.139282077538923E-006
   22.1231250000000        -1.266127347546352E-006
   22.3368750000000        -1.396376148172027E-006
   22.5506250000000        -1.525467757816021E-006
   22.7643750000000        -1.649735077524999E-006
   22.9781250000000        -1.765981838919848E-006
   23.1918750000000        -1.872323452498242E-006
   23.4056250000000        -1.968186955968960E-006
   23.6193750000000        -2.053515631801216E-006
   23.8331250000000        -2.129070766501198E-006
   24.0468750000000        -2.195557286057915E-006
   24.2606250000000        -2.253580521921137E-006
   24.4743750000000        -2.303046019582700E-006
   24.6881250000000        -2.343490097630805E-006
   24.9018750000000        -2.374031623886481E-006
   25.1156250000000        -2.393493757547023E-006
   25.3293750000000        -2.400507741154870E-006
   25.5431250000000        -2.393869409764884E-006
   25.7568750000000        -2.373234591865578E-006
   25.9706250000000        -2.339181026754244E-006
   26.1843750000000        -2.296412304143302E-006
   26.3981250000000        -2.232692549070505E-006
   26.6118750000000        -2.167510137102993E-006
   26.8256250000000        -2.084155726736654E-006
   27.0393750000000        -2.004900574325851E-006
   27.2531250000000        -1.915286371014511E-006
   27.4668750000000        -1.829697456841842E-006
   27.6806250000000        -1.748864928881407E-006
   27.8943750000000        -1.674389165381576E-006
   28.1081250000000        -1.607320991403957E-006
   28.3218750000000        -1.548299356081736E-006
   28.5356250000000        -1.496878616408507E-006
   28.7493750000000        -1.452028815700848E-006
   28.9631250000000        -1.412175108568413E-006
   29.1768750000000        -1.375386284556218E-006
   29.3906250000000        -1.339555709756701E-006
   29.6043750000000        -1.302783424676730E-006
   29.8181250000000        -1.263434786406769E-006
   30.0318750000000        -1.219834013902258E-006
   30.2456250000000        -1.169340302457963E-006
   30.4593750000000        -1.112888473152913E-006
   30.6731250000000        -1.049018716773823E-006
   30.8868750000000        -9.774018172182940E-007
   31.1006250000000        -8.982558051569036E-007
   31.3143750000000        -8.121205788975190E-007
   31.5281250000000        -7.200190622373136E-007
   31.7418750000000        -6.232403861605624E-007
   31.9556250000000        -5.234961422226501E-007
   32.1693750000000        -4.227012582593855E-007
   32.3831250000000        -3.229681133270714E-007
   32.5968750000000        -2.268256878737434E-007
   32.8106250000000        -1.358763749981068E-007
   33.0243750000000        -5.255686427585251E-008
   33.2381250000000         2.109063509910593E-008
   33.4518750000000         8.317478708094327E-008
   33.6656250000000         1.319858267400549E-007
   33.8793750000000         1.660596995592957E-007
   34.0931250000000         1.841381907236872E-007
   34.3068750000000         1.850900184230298E-007
   34.5206250000000         1.680314063344171E-007
   34.7343750000000         1.331520317156590E-007
   34.9481250000000         8.004668368739630E-008
   35.1618750000000         9.479348263846129E-009
   35.3756250000000        -7.739945636234062E-008
   35.5893750000000        -1.783960542313486E-007
   35.8031250000000        -2.901403713545990E-007
   36.0168750000000        -4.084588405730179E-007
   36.2306250000000        -5.282446400445498E-007
   36.4443750000000        -6.438661824448336E-007
   36.6581250000000        -7.491629308608651E-007
   36.8718750000000        -8.414798433118930E-007
   37.0856250000000        -9.053279297591551E-007
   37.2993750000000        -9.462989976807913E-007
   37.5131250000000        -9.549048845598561E-007
   37.7268750000000        -9.431967941167167E-007
   37.9406250000000        -8.939755652967916E-007
   38.1543750000000        -8.251754917812245E-007
   38.3681250000000        -7.406350038888549E-007
   38.5818750000000        -6.482767421559336E-007
   38.7956250000000        -5.573619748774618E-007
   39.0093750000000        -4.774638264412099E-007
   39.2231250000000        -4.173572605598176E-007
   39.4368750000000        -3.845995699297489E-007
   39.6506250000000        -3.796866049265388E-007
   39.8643750000000        -4.173936420819965E-007
   40.0781250000000        -4.924158986928211E-007
   40.2918750000000        -6.037217115208252E-007
   40.5056250000000        -7.467798274327815E-007
   40.7193750000000        -9.146173758217079E-007
   40.9331250000000        -1.102693304399037E-006
   41.1468750000000        -1.289971924430948E-006
   41.3606250000000        -1.481314808076204E-006
   41.5743750000000        -1.659931209950655E-006
   41.7881250000000        -1.818631957018641E-006
   42.0018750000000        -1.951737776571765E-006
   42.2156250000000        -2.055018256864424E-006
   42.4293750000000        -2.125729686047687E-006
   42.6431250000000        -2.162989793428775E-006
   42.8568750000000        -2.169730114136917E-006
   43.0706250000000        -2.131858909682482E-006
   43.2843750000000        -2.066574023935682E-006
   43.4981250000000        -1.960211109112977E-006
   43.7118750000000        -1.822720993833321E-006
   43.9256250000000        -1.654104957512122E-006
   44.1393750000000        -1.455477470968421E-006
   44.3531250000000        -1.228899879212709E-006
   44.5668750000000        -9.773017527967920E-007
   44.7806250000000        -7.048022299936705E-007
   44.9943750000000        -4.166815819858725E-007
   45.2081250000000        -1.194352443528252E-007
   45.4218750000000         1.794547694400030E-007
   45.6356250000000         4.717757306986149E-007
   45.8493750000000         7.490312842352495E-007
   46.0631250000000         1.002993630791514E-006
   46.2768750000000         1.226238818039539E-006
   46.4906250000000         1.412507965735928E-006
   46.7043750000000         1.557288465077105E-006
   46.9181250000000         1.657879434309393E-006
   47.1318750000000         1.713839508169331E-006
   47.3456250000000         1.726158955533076E-006
   47.5593750000000         1.693740460220593E-006
   47.7731250000000         1.626287271046099E-006
   47.9868750000000         1.524987451072927E-006
   48.2006250000000         1.401331508156513E-006
   48.4143750000000         1.253532713149900E-006
   48.6281250000000         1.093975002394955E-006
   48.8418750000000         9.257103593578545E-007
   49.0556250000000         7.561338002584741E-007
   49.2693750000000         5.865719548245517E-007
   49.4831250000000         4.226156364623152E-007
   49.6968750000000         2.685887376150453E-007
   49.9106250000000         1.282343572813999E-007
   50.1243750000000         5.076501516635274E-009
   50.3381250000000        -9.790426040450218E-008
   50.5518750000000        -1.780660067124025E-007
   50.7656250000000        -2.287663715569568E-007
   50.9793750000000        -2.624508558294285E-007
   51.1931250000000        -2.650366419384335E-007
   51.4068750000000        -2.554570255500862E-007
   51.6206250000000        -2.195201938286219E-007
   51.8343750000000        -1.790265203252233E-007
   52.0481250000000        -1.227290455521460E-007
   52.2618750000000        -7.091476224444257E-008
   52.4756250000000        -1.746780695811270E-008
   52.6893750000000         2.776529254758869E-008
   52.9031250000000         6.155402593423336E-008
   53.1168750000000         8.397233901071637E-008
   53.3306250000000         9.239199384848033E-008
   53.5443750000000         8.817904356086462E-008
   53.7581250000000         7.311937819587338E-008
   53.9718750000000         4.944139557022563E-008
   54.1856250000000         1.991123882201710E-008
   54.3993750000000        -1.261246417406762E-008
   54.6131250000000        -4.561196733593801E-008
   54.8268750000000        -7.711515950100245E-008
   55.0406250000000        -1.058959380707071E-007
   55.2543750000000        -1.313974785960527E-007
   55.4681250000000        -1.535862422528146E-007
   55.6818750000000        -1.726259780443831E-007
   55.8956250000000        -1.886175345390774E-007
   56.1093750000000        -2.012314481316564E-007
   56.3231250000000        -2.091315209456842E-007
   56.5368750000000        -2.101347081961380E-007
   56.7506250000000        -2.027975417098854E-007
   56.9643750000000        -1.826812311870827E-007
   57.1781250000000        -1.462036008507642E-007
   57.3918750000000        -8.972836520551425E-008
   57.6056250000000        -1.040558977354841E-008
   57.8193750000000         9.346308128839923E-008
   58.0331250000000         2.218524291596735E-007
   58.2468750000000         3.735187891744479E-007
   58.4606250000000         5.454303759529436E-007
   58.6743750000000         7.329899962982152E-007
   58.8881250000000         9.266879828271659E-007
   59.1018750000000         1.128780306855088E-006
   59.3156250000000         1.321492251552453E-006
   59.5293750000000         1.509026889522052E-006
   59.7431250000000         1.682057987595663E-006
   59.9568750000000         1.837305223454790E-006
   60.1706250000000         1.972126013595341E-006
   60.3843750000000         2.085120440289540E-006
   60.5981250000000         2.176261692129891E-006
   60.8118750000000         2.246396738423591E-006
   61.0256250000000         2.300247588924970E-006
   61.2393750000000         2.326245802043735E-006
   61.4531250000000         2.342419171804064E-006
   61.6668750000000         2.336288289592456E-006
   61.8806250000000         2.311419619311926E-006
   62.0943750000000         2.267270218326635E-006
   62.3081250000000         2.204003920475548E-006
   62.5218750000000         2.121842114312830E-006
   62.7356250000000         2.019925462431823E-006
   62.9493750000000         1.903316217582457E-006
   63.1631250000000         1.760155169890611E-006
   63.3768750000000         1.606304182884934E-006
   63.5906250000000         1.432905609155546E-006
   63.8043750000000         1.252397203458389E-006
   64.0181250000000         1.073728787919732E-006
   64.2318750000000         8.918108016659659E-007
   64.4456250000000         7.210697647519645E-007
   64.6593750000000         5.685041746463853E-007
   64.8731250000000         4.405501997506289E-007
   65.0868750000000         3.432141887634943E-007
   65.3006250000000         2.813328859108421E-007
   65.5143750000000         2.579208042317091E-007
   65.7281250000000         2.746335142734295E-007
   65.9418750000000         3.314094407608933E-007
   66.1556250000000         4.254240836332642E-007
   66.3693750000000         5.515928786864575E-007
   66.5831250000000         7.031144609552544E-007
   66.7968750000000         8.721220017585245E-007
   67.0106250000000         1.049667394257623E-006
   67.2243750000000         1.226416440278205E-006
   67.4381250000000         1.393362727065643E-006
   67.6518750000000         1.546020617524449E-006
   67.8656250000000         1.666826837535118E-006
   68.0793750000000         1.763945135745764E-006
   68.2931250000000         1.820882182586862E-006
   68.5068750000000         1.846103423462591E-006
   68.7206250000000         1.834003921529755E-006
   68.9343750000000         1.792790296334802E-006
   69.1481250000000         1.725414622137157E-006
   69.3618750000000         1.637097355398389E-006
   69.5756250000000         1.533762587597734E-006
   69.7893750000000         1.421609492785762E-006
   70.0031250000000         1.306767611331291E-006
   70.2168750000000         1.195303254964964E-006
   70.4306250000000         1.093139609966756E-006
   70.6443750000000         1.006376740102038E-006
   70.8581250000000         9.397952192982836E-007
   71.0718750000000         8.989718890098766E-007
   71.2856250000000         8.907256281992195E-007
   71.4993750000000         9.117625161963693E-007
   71.7131250000000         9.841679640714401E-007
   71.9268750000000         1.094551285654886E-006
   72.1406250000000         1.258045971400317E-006
   72.3543750000000         1.462220446530008E-006
   72.5681250000000         1.716334491762841E-006
   72.7818750000000         2.008514606206117E-006
   72.9956250000000         2.328480293844257E-006
   73.2093750000000         2.669271070811909E-006
   73.4231250000000         3.017452489500209E-006
   73.6368750000000         3.357074509087043E-006
   73.8506250000000         3.673625966581734E-006
   74.0643750000000         3.953304380264767E-006
   74.2781250000000         4.184287804539609E-006
   74.4918750000000         4.357557223259560E-006
   74.7056250000000         4.467648076604532E-006
   74.9193750000000         4.512938760904713E-006
   75.1331250000000         4.495205594313002E-006
   75.3468750000000         4.415262887189560E-006
   75.5606250000000         4.292026572544007E-006
   75.7743750000000         4.124408477432024E-006
   75.9881250000000         3.930610899982303E-006
   76.2018750000000         3.717777343285783E-006
   76.4156250000000         3.496066500810920E-006
   76.6293750000000         3.269261870882849E-006
   76.8431250000000         3.043321337127447E-006
   77.0568750000000         2.821546162524944E-006
   77.2706250000000         2.605938309747979E-006
   77.4843750000000         2.398082404780796E-006
   77.6981250000000         2.205051765100546E-006
   77.9118750000000         2.014868914538461E-006
   78.1256250000000         1.846147587899935E-006
   78.3393750000000         1.684413351633333E-006
   78.5531250000000         1.553835250216511E-006
   78.7668750000000         1.439307603707033E-006
   78.9806250000000         1.367258823252884E-006
   79.1943750000000         1.322600960483156E-006
   79.4081250000000         1.322163986710354E-006
   79.6218750000000         1.363996662196459E-006
   79.8356250000000         1.447216698954044E-006
   80.0493750000000         1.569812451692113E-006
   80.2631250000000         1.724770809286347E-006
   80.4768750000000         1.903996697894134E-006
   80.6906250000000         2.098730467640801E-006
   80.9043750000000         2.299506554239381E-006
   81.1181250000000         2.492088585221974E-006
   81.3318750000000         2.681970982316242E-006
   81.5456250000000         2.848867456274013E-006
   81.7593750000000         3.000590472988755E-006
   81.9731250000000         3.125841327554029E-006
   82.1868750000000         3.220068953640406E-006
   82.4006250000000         3.296221886186514E-006
   82.6143750000000         3.344883103243235E-006
   82.8281250000000         3.371223237717236E-006
   83.0418750000000         3.372744678176143E-006
   83.2556250000000         3.353582419208727E-006
   83.4693750000000         3.312965022413737E-006
   83.6831250000000         3.252737975538615E-006
   83.8968750000000         3.175681780272986E-006
   84.1106250000000         3.088788074634094E-006
   84.3243750000000         2.984325730684760E-006
   84.5381250000000         2.882934358753443E-006
   84.7518750000000         2.777238514989429E-006
   84.9656250000000         2.682476565984919E-006
   85.1793750000000         2.605796526357108E-006
   85.3931250000000         2.556947112890484E-006
   85.6068750000000         2.539971155692871E-006
   85.8206250000000         2.572294467370667E-006
   86.0343750000000         2.647700229300202E-006
   86.2481250000000         2.775864422782944E-006
   86.4618750000000         2.951369194639471E-006
   86.6756250000000         3.169032790801644E-006
   86.8893750000000         3.419456748812868E-006
   87.1031250000000         3.686524330508295E-006
   87.3168750000000         3.973356633882262E-006
   87.5306250000000         4.252036905589463E-006
   87.7443750000000         4.528040536175148E-006
   87.9581250000000         4.776691516473122E-006
   88.1718750000000         5.005159374573774E-006
   88.3856250000000         5.201860699505601E-006
   88.5993750000000         5.365991707741393E-006
   88.8131250000000         5.499127182423976E-006
   89.0268750000000         5.604601282141232E-006
   89.2406250000000         5.685678602084386E-006
   89.4543750000000         5.747138986735035E-006
   89.6681250000000         5.791427115572703E-006
   89.8818750000000         5.819225366289883E-006
   90.0956250000000         5.830239223873909E-006
   90.3093750000000         5.821328021940436E-006
   90.5231250000000         5.788857371421581E-006
   90.7368750000000         5.728401038187880E-006
   90.9506250000000         5.635961711136739E-006
   91.1643750000000         5.509096415055840E-006
   91.3781250000000         5.347454093160155E-006
   91.5918750000000         5.153515450098383E-006
   91.8056250000000         4.932982646239880E-006
   92.0193750000000         4.694375577700908E-006
   92.2331250000000         4.448798013168352E-006
   92.4468750000000         4.208833319302666E-006
   92.6606250000000         3.987389656035591E-006
   92.8743750000000         3.796425523209241E-006
   93.0881250000000         3.645718900942638E-006
   93.3018750000000         3.541691563385424E-006
   93.5156250000000         3.487212392923872E-006
   93.7293750000000         3.479719247029588E-006
   93.9431250000000         3.514574874162735E-006
   94.1568750000000         3.580452892088291E-006
   94.3706250000000         3.667415737331028E-006
   94.5843750000000         3.763148965818145E-006
   94.7981250000000         3.855653735884861E-006
   95.0118750000000         3.935884707949571E-006
   95.2256250000000         3.996421610178343E-006
   95.4393750000000         4.034309826963812E-006
   95.6531250000000         4.050273835024977E-006
   95.8668750000000         4.052246747637561E-006
   96.0806250000000         4.035059193772441E-006
   96.2943750000000         4.016575892410796E-006
   96.5081250000000         4.004885873067684E-006
   96.7218750000000         4.007067109743728E-006
   96.9356250000000         4.028184091719635E-006
   97.1493750000000         4.070619679599279E-006
   97.3631250000000         4.133124040156110E-006
   97.5768750000000         4.210471842178399E-006
   97.7906250000000         4.298287625978533E-006
   98.0043750000000         4.388773546074484E-006
   98.2181250000000         4.473979904639347E-006
   98.4318750000000         4.546907481633117E-006
   98.6456250000000         4.603211608067731E-006
   98.8593750000000         4.641211818077297E-006
   99.0731250000000         4.663057457581223E-006
   99.2868750000000         4.674314696600471E-006
   99.5006250000000         4.688578514436236E-006
   99.7143750000000         4.700372184428693E-006
   99.9281250000000         4.736651464352028E-006
   100.141875000000         4.787706499879018E-006
   100.355625000000         4.872541742352671E-006
   100.569375000000         4.987869204882964E-006
   100.783125000000         5.133058016550311E-006
   100.996875000000         5.305336570908047E-006
   101.210625000000         5.496117030789502E-006
   101.424375000000         5.695236227431365E-006
   101.638125000000         5.891619379491104E-006
   101.851875000000         6.074759741904781E-006
   102.065625000000         6.231426998239521E-006
   102.279375000000         6.367412455011970E-006
   102.493125000000         6.467468484804316E-006
   102.706875000000         6.548427064466748E-006
   102.920625000000         6.603782906059650E-006
   103.134375000000         6.642342731192100E-006
   103.348125000000         6.672790639404279E-006
   103.561875000000         6.703676078943678E-006
   103.775625000000         6.740419158462320E-006
   103.989375000000         6.786995463916216E-006
   104.203125000000         6.843209203794886E-006
   104.416875000000         6.907732988320254E-006
   104.630625000000         6.975896288388216E-006
   104.844375000000         7.041035284587594E-006
   105.058125000000         7.095753002195450E-006
   105.271875000000         7.132619768743987E-006
   105.485625000000         7.146785466661307E-006
   105.699375000000         7.135456062146346E-006
   105.913125000000         7.098267484633568E-006
   106.126875000000         7.038565167351056E-006
   106.340625000000         6.962405995192113E-006
   106.554375000000         6.877516938006023E-006
   106.768125000000         6.792349449759600E-006
   106.981875000000         6.715379938484431E-006
   107.195625000000         6.653281145447374E-006
   107.409375000000         6.610263056134637E-006
   107.623125000000         6.587825350907800E-006
   107.836875000000         6.584114681687830E-006
   108.050625000000         6.594732052567806E-006
   108.264375000000         6.612892414947805E-006
   108.478125000000         6.633409313452405E-006
   108.691875000000         6.649955423497346E-006
   108.905625000000         6.652190929768580E-006
   109.119375000000         6.640303482477696E-006
   109.333125000000         6.611415267065905E-006
   109.546875000000         6.566607625630315E-006
   109.760625000000         6.509432125427595E-006
   109.974375000000         6.443641920670071E-006
   110.188125000000         6.375012588052024E-006
   110.401875000000         6.309203822866994E-006
   110.615625000000         6.250286792869954E-006
   110.829375000000         6.200898891020715E-006
   111.043125000000         6.161534390773571E-006
   111.256875000000         6.136535404614553E-006
   111.470625000000         6.108533174348366E-006
   111.684375000000         6.086105095696746E-006
   111.898125000000         6.070336292310828E-006
   112.111875000000         6.044457946213002E-006
   112.325625000000         6.020391872824344E-006
   112.539375000000         5.998917835030577E-006
   112.753125000000         5.983240501360535E-006
   112.966875000000         5.981114577336365E-006
   113.180625000000         5.998931205511924E-006
   113.394375000000         6.043104940181621E-006
   113.608125000000         6.118955189650779E-006
   113.821875000000         6.230282183530636E-006
   114.035625000000         6.376563241495762E-006
   114.249375000000         6.554096146125123E-006
   114.463125000000         6.756417523890255E-006
   114.676875000000         6.974219789199585E-006
   114.890625000000         7.196529060790282E-006
   115.104375000000         7.412071810298127E-006
   115.318125000000         7.610652608850436E-006
   115.531875000000         7.784341276656697E-006
   115.745625000000         7.928562878480348E-006
   115.959375000000         8.042399296643818E-006
   116.173125000000         8.128613916317213E-006
   116.386875000000         8.193109272936949E-006
   116.600625000000         8.243787139127184E-006
   116.814375000000         8.289344340271720E-006
   117.028125000000         8.337771660767399E-006
   117.241875000000         8.395325949344670E-006
   117.455625000000         8.464585304242231E-006
   117.669375000000         8.544477581273956E-006
   117.883125000000         8.631036669251597E-006
   118.096875000000         8.717935042735254E-006
   118.310625000000         8.795332778646380E-006
   118.524375000000         8.853895204068140E-006
   118.738125000000         8.885028753079721E-006
   118.951875000000         8.882425063808913E-006
   119.165625000000         8.843487641359060E-006
   119.379375000000         8.771442000929521E-006
   119.593125000000         8.670908142985887E-006
   119.806875000000         8.550906233842498E-006
   120.020625000000         8.422947200947407E-006
   120.234375000000         8.299752018668652E-006
   120.448125000000         8.193829886863649E-006
   120.661875000000         8.115187026068141E-006
   120.875625000000         8.071025707961943E-006
   121.089375000000         8.065558615768649E-006
   121.303125000000         8.090796579504892E-006
   121.516875000000         8.142786445655834E-006
   121.730625000000         8.213117966189904E-006
   121.944375000000         8.292889056152861E-006
   122.158125000000         8.370412482418494E-006
   122.371875000000         8.437509773745468E-006
   122.585625000000         8.488024136489613E-006
   122.799375000000         8.519766493034214E-006
   123.013125000000         8.534360520353993E-006
   123.226875000000         8.537278193112291E-006
   123.440625000000         8.536522258957178E-006
   123.654375000000         8.540903268748594E-006
   123.868125000000         8.559344680463401E-006