  -1.60312500000000         0.000000000000000E+000
  -1.38937500000000         0.000000000000000E+000
  -1.17562500000000         0.000000000000000E+000
 -0.961875000000000         0.000000000000000E+000
 -0.748125000000000         0.000000000000000E+000
 -0.534375000000000         0.000000000000000E+000
 -0.320625000000000         0.000000000000000E+000
 -0.106875000000000         0.000000000000000E+000
  0.106875000000000         0.000000000000000E+000
  0.320625000000000         0.000000000000000E+000
  0.534375000000000         0.000000000000000E+000
  0.748125000000000         0.000000000000000E+000
  0.961875000000000         0.000000000000000E+000
   1.17562500000000         0.000000000000000E+000
   1.38937500000000         0.000000000000000E+000
   1.60312500000000         0.000000000000000E+000
   1.81687500000000         0.000000000000000E+000
   2.03062500000000         0.000000000000000E+000
   2.24437500000000         0.000000000000000E+000
   2.45812500000000         0.000000000000000E+000
   2.67187500000000         0.000000000000000E+000
   2.88562500000000         0.000000000000000E+000
   3.09937500000000         0.000000000000000E+000
   3.31312500000000         0.000000000000000E+000
   3.52687500000000         0.000000000000000E+000
   3.74062500000000         0.000000000000000E+000
   3.95437500000000         0.000000000000000E+000
   4.16812500000000         0.000000000000000E+000
   4.38187500000000         0.000000000000000E+000
   4.59562500000000         0.000000000000000E+000
   4.80937500000000         0.000000000000000E+000
   5.02312500000000         0.000000000000000E+000
   5.23687500000000         0.000000000000000E+000
   5.45062500000000         0.000000000000000E+000
   5.66437500000000         0.000000000000000E+000
   5.87812500000000         0.000000000000000E+000
   6.09187500000000         0.000000000000000E+000
   6.30562500000000         0.000000000000000E+000
   6.51937500000000         0.000000000000000E+000
   6.73312500000000         0.000000000000000E+000
   6.94687500000000         0.000000000000000E+000
   7.16062500000000         0.000000000000000E+000
   7.37437500000000         0.000000000000000E+000
   7.58812500000000         0.000000000000000E+000
   7.80187500000000         7.637751295138692E-186
   8.01562500000000        -1.796356268353593E-179
   8.22937500000000         5.615629049208875E-163
   8.44312500000000         1.268061172501865E-160
   8.65687500000000         8.550300561264275E-159
   8.87062500000000         3.291994605311258E-157
   9.08437500000000         8.851747252849110E-156
   9.29812500000000         1.833111069037236E-154
   9.51187500000000         3.096831628654313E-153
   9.72562500000000         4.431431006146337E-152
   9.93937500000000         5.513900522618410E-151
   10.1531250000000         6.080444749611546E-150
   10.3668750000000         6.027286132291074E-149
   10.5806250000000         5.427863590718524E-148
   10.7943750000000         4.476026981076891E-147
   11.0081250000000         3.399380495572719E-146
   11.2218750000000         2.386772885624887E-145
   11.4356250000000         1.552350360014322E-144
   11.6493750000000         9.352089434316520E-144
   11.8631250000000         5.204282906672522E-143
   12.0768750000000         2.656243690634896E-142
   12.2906250000000         1.224593559779705E-141
   12.5043750000000         4.926789873774649E-141
   12.7181250000000         1.572038288367353E-140
   12.9318750000000         2.427171702934374E-140
   13.1456250000000        -1.664726302478895E-139
   13.3593750000000        -2.181763877878748E-138
   13.5731250000000        -1.647909801061989E-137
   13.7868750000000        -1.019448191121877E-136
   14.0006250000000        -5.612674872108930E-136
   14.2143750000000        -2.844467370376806E-135
   14.4281250000000        -1.350390012910383E-134
   14.6418750000000        -6.069200632431068E-134
   14.8556250000000        -2.600793102588897E-133
   15.0693750000000        -1.068198076028837E-132
   15.2831250000000        -4.222489247620942E-132
   15.4968750000000        -1.612061496500134E-131
   15.7106250000000        -5.962987637766090E-131
   15.9243750000000        -2.143454299145092E-130
   16.1381250000000        -7.509440092296498E-130
   16.3518750000000        -2.571715831754176E-129
   16.5656250000000        -8.634742392467651E-129
   16.7793750000000        -2.850804924752363E-128
   16.9931250000000        -9.281273744296974E-128
   17.2068750000000        -2.987350892007563E-127
   17.4206250000000        -9.526472240824696E-127
   17.6343750000000        -3.014507644821753E-126
   17.8481250000000        -9.473415026430586E-126
   18.0618750000000        -2.957040967890498E-125
   18.2756250000000        -9.163103511139232E-125
   18.4893750000000        -2.815917753942425E-124
   18.7031250000000        -8.570612362070093E-124
   18.9168750000000        -2.579794713092816E-123
   19.1306250000000        -7.668614071714325E-123
   19.3443750000000        -2.248225024242647E-122
   19.5581250000000        -6.493335871189299E-122
   19.7718750000000        -1.845890417902409E-121
   19.9856250000000        -5.161163172578568E-121
   20.1993750000000        -1.418622942493748E-120
   20.4131250000000        -3.831836401064941E-120
   20.6268750000000        -1.016873099879479E-119
   20.8406250000000        -2.650880267490426E-119
   21.0543750000000        -6.788200529116522E-119
   21.2681250000000        -1.707508469629868E-118
   21.4818750000000        -4.219241245947719E-118
   21.6956250000000        -1.024235051279394E-117
   21.9093750000000        -2.442838924926490E-117
   22.1231250000000        -5.724761269723717E-117
   22.3368750000000        -1.318324488751933E-116
   22.5506250000000        -2.983452079956020E-116
   22.7643750000000        -6.635420832321529E-116
   22.9781250000000        -1.450373872173283E-115
   23.1918750000000        -3.115649872112990E-115
   23.4056250000000        -6.577367163656823E-115
   23.6193750000000        -1.364415643346318E-114
   23.8331250000000        -2.780758709204734E-114
   24.0468750000000        -5.566750342708725E-114
   24.2606250000000        -1.094268084126529E-113
   24.4743750000000        -2.111269126190613E-113
   24.6881250000000        -3.995909374624721E-113
   24.9018750000000        -7.413384384421989E-113
   25.1156250000000        -1.346853101604182E-112
   25.3293750000000        -2.393100923348930E-112
   25.5431250000000        -4.151231472184078E-112
   25.7568750000000        -7.013264017526903E-112
   25.9706250000000        -1.150023956527268E-111
   26.1843750000000        -1.821169074332026E-111
   26.3981250000000        -2.763416869783665E-111
   26.6118750000000        -3.965271055047424E-111
   26.8256250000000        -5.248650330580506E-111
   27.0393750000000        -6.057733616930753E-111
   27.2531250000000        -5.067465779827824E-111
   27.4668750000000         5.029546153940086E-112
   27.6806250000000         1.603452047242415E-110
   27.8943750000000         5.132332635231036E-110
   28.1081250000000         1.233091743507899E-109
   28.3218750000000         2.599305633508289E-109
   28.5356250000000         5.051490246585316E-109
   28.7493750000000         9.247458490034843E-109
   28.9631250000000         1.611580977618699E-108
   29.1768750000000         2.687327285808365E-108
   29.3906250000000         4.294879436793654E-108
   29.6043750000000         6.571268263118675E-108
   29.8181250000000         9.584647213449841E-108
   30.0318750000000         1.321073306030945E-107
   30.2456250000000         1.691470947168563E-107
   30.4593750000000         1.939622375565648E-107
   30.6731250000000         1.805237816293968E-107
   30.8868750000000         8.224982151716831E-108
   31.1006250000000        -1.776249792156158E-107
   31.3143750000000        -7.168567320194567E-107
   31.5281250000000        -1.703629513875530E-106
   31.7418750000000        -3.359392072328864E-106
   31.9556250000000        -5.945825985929318E-106
   32.1693750000000        -9.721152247328314E-106
   32.3831250000000        -1.484423564890191E-105
   32.5968750000000        -2.119800332683875E-105
   32.8106250000000        -2.809884162515902E-105
   33.0243750000000        -3.386000650013291E-105
   33.2381250000000        -3.519121085541927E-105
   33.4518750000000        -2.645265058690154E-105
   33.6656250000000         1.148714560417827E-106
   33.8793750000000         6.021771317310911E-105
   34.0931250000000         1.673117602639186E-104
   34.3068750000000         3.419673849735885E-104
   34.5206250000000         6.037568129257607E-104
   34.7343750000000         9.662741585954265E-104
   34.9481250000000         1.426813079252631E-103
   35.1618750000000         1.950611614799549E-103
   35.3756250000000         2.449099719044517E-103
   35.5893750000000         2.752812240322910E-103
   35.8031250000000         2.581719590466952E-103
   36.0168750000000         1.518754609121155E-103
   36.2306250000000        -1.003898850004942E-103
   36.4443750000000        -5.692212859601510E-103
   36.6581250000000        -1.333477254754699E-102
   36.8718750000000        -2.468692196267376E-102
   37.0856250000000        -4.028052306631992E-102
   37.2993750000000        -6.015344838704355E-102
   37.5131250000000        -8.350483049135708E-102
   37.7268750000000        -1.082924335808421E-101
   37.9406250000000        -1.307859002680881E-101
   38.1543750000000        -1.450554569008749E-101
   38.3681250000000        -1.422860694451822E-101
   38.5818750000000        -1.096410490349614E-101
   38.7956250000000        -2.815704276342927E-102
   39.0093750000000         1.311113988559226E-101
   39.2231250000000         4.136075870176300E-101
   39.4368750000000         8.910302501365056E-101
   39.6506250000000         1.673588814885622E-100
   39.8643750000000         2.920914138789708E-100
   40.0781250000000         4.841988665430232E-100
   40.2918750000000         7.665185023952656E-100
   40.5056250000000         1.154669567400646E-099
   40.7193750000000         1.637100989813203E-099
   40.9331250000000         2.138563095947199E-099
   41.1468750000000         2.461406487398458E-099
   41.3606250000000         2.202339445898105E-099
   41.5743750000000         6.510514198305177E-100
   41.7881250000000        -3.305438351845854E-099
   42.0018750000000        -1.121962898677524E-098
   42.2156250000000        -2.496591713179279E-098
   42.4293750000000        -4.631934168893135E-098
   42.6431250000000        -7.602750458907156E-098
   42.8568750000000        -1.121412884981687E-097
   43.0706250000000        -1.474033657263340E-097
   43.2843750000000        -1.656553937156802E-097
   43.4981250000000        -1.376003461253471E-097
   43.7118750000000        -1.694068785437126E-098
   43.9256250000000         2.610172131087171E-097
   44.1393750000000         7.747413993651666E-097
   44.3531250000000         1.600581737523158E-096
   44.5668750000000         2.778825860758052E-096
   44.7806250000000         4.254390623769011E-096
   44.9943750000000         5.786637287696673E-096
   45.2081250000000         6.828836836974575E-096
   45.4218750000000         6.390424783523922E-096
   45.6356250000000         2.916707388894489E-096
   45.8493750000000        -5.747458217749670E-096
   46.0631250000000        -2.220228241387266E-095
   46.2768750000000        -4.899329063134352E-095
   46.4906250000000        -8.757882638269546E-095
   46.7043750000000        -1.365731711238507E-094
   46.9181250000000        -1.891382804861909E-094
   47.1318750000000        -2.295770265778232E-094
   47.3456250000000        -2.295301409378114E-094
   47.5593750000000        -1.447461192686549E-094
   47.7731250000000         8.580247040589553E-095
   47.9868750000000         5.356871027036275E-094
   48.2006250000000         1.277878382567283E-093
   48.4143750000000         2.358158792936101E-093
   48.6281250000000         3.750679964059836E-093
   48.8418750000000         5.293017064469596E-093
   49.0556250000000         6.602507942828946E-093
   49.2693750000000         6.983871142878029E-093
   49.4831250000000         5.350967162096475E-093
   49.6968750000000         2.032852807689854E-094
   49.9106250000000        -1.028095282307073E-092
   50.1243750000000        -2.795192283041014E-092
   50.3381250000000        -5.409827200358462E-092
   50.5518750000000        -8.846722614150879E-092
   50.7656250000000        -1.278407699837321E-091
   50.9793750000000        -1.642073407636663E-091
   51.1931250000000        -1.827371599964541E-091
   51.4068750000000        -1.600293584981138E-091
   51.6206250000000        -6.345221262148868E-092
   51.8343750000000         1.471820204782798E-091
   52.0481250000000         5.139503604172852E-091
   52.2618750000000         1.069227186600126E-090
   52.4756250000000         1.816313560760900E-090
   52.6893750000000         2.701171305327315E-090
   52.9031250000000         3.575911754209268E-090
   53.1168750000000         4.157874389746571E-090
   53.3306250000000         3.993036142204472E-090
   53.5443750000000         2.439155480027162E-090
   53.7581250000000        -1.308004032943665E-090
   53.9718750000000        -8.114132204747657E-090
   54.1856250000000        -1.869495254776760E-089
   54.3993750000000        -3.325864854608489E-089
   54.6131250000000        -5.098039884727721E-089
   54.8268750000000        -6.932002519608717E-089
   55.0406250000000        -8.325290815883577E-089
   55.2543750000000        -8.457526024340370E-089
   55.4681250000000        -6.156763887846319E-089
   55.6818750000000         5.549507176005533E-091
   55.8956250000000         1.178385153970105E-088
   56.1093750000000         3.037783392088783E-088
   56.3231250000000         5.628944412810078E-088
   56.5368750000000         8.813731481456124E-088
   56.7506250000000         1.215099367568397E-087
   56.9643750000000         1.476528498791431E-087
   57.1781250000000         1.523515880088722E-087
   57.3918750000000         1.155379651662834E-087
   57.6056250000000         1.238499000953835E-088
   57.8193750000000        -1.831435988983040E-087
   58.0331250000000        -4.912592944886480E-087
   58.2468750000000        -9.150172063234988E-087
   58.4606250000000        -1.424549949043975E-086
   58.6743750000000        -1.938049199317039E-086
   58.8881250000000        -2.302769159575910E-086
   59.1018750000000        -2.282175247760539E-086
   59.3156250000000        -1.558680825985495E-086
   59.5293750000000         2.354941114115199E-087
   59.7431250000000         3.445180677476229E-086
   59.9568750000000         8.264328067912801E-086
   60.1706250000000         1.454799834027543E-085
   60.3843750000000         2.157418973079641E-085
   60.5981250000000         2.779027564136656E-085
   60.8118750000000         3.061340134510988E-085
   61.0256250000000         2.639506783218896E-085
   61.2393750000000         1.069903711837221E-085
   61.4531250000000        -2.093607558443500E-085
   61.6668750000000        -7.159406512247270E-085
   61.8806250000000        -1.408635014621721E-084
   62.0943750000000        -2.221031231219215E-084
   62.3081250000000        -2.994718105692147E-084
   62.5218750000000        -3.454968403634905E-084
   62.7356250000000        -3.204141785826545E-084
   62.9493750000000        -1.749460136999945E-084
   63.1631250000000         1.415822770123131E-084
   63.3768750000000         6.660772332997301E-084
   63.5906250000000         1.398665642804542E-083
   63.8043750000000         2.272942356771020E-083
   64.0181250000000         3.123661804786974E-083
   64.2318750000000         3.660244433198359E-083
   64.4456250000000         3.459290844115817E-083
   64.6593750000000         1.993698794007382E-083
   64.8731250000000        -1.281783476043371E-083
   65.0868750000000        -6.771072068297784E-083
   65.3006250000000        -1.449557312665459E-082
   65.5143750000000        -2.378335542994460E-082
   65.7281250000000        -3.293207319689845E-082
   65.9418750000000        -3.893103037196066E-082
   66.1556250000000        -3.737539892032906E-082
   66.3693750000000        -2.274836814997526E-082
   66.5831250000000         1.073193846621942E-082
   66.7968750000000         6.752733179342734E-082
   67.0106250000000         1.483766542909801E-081
   67.2243750000000         2.471838581946205E-081
   67.4381250000000         3.476016282955401E-081
   67.6518750000000         4.201090255333867E-081
   67.8656250000000         4.208285035119850E-081
   68.0793750000000         2.937345196622303E-081
   68.2931250000000        -2.187464982058750E-082
   68.5068750000000        -5.769360400024336E-081
   68.7206250000000        -1.390283499127237E-080
   68.9343750000000        -2.419082815779145E-080
   69.1481250000000        -3.525260387691392E-080
   69.3618750000000        -4.444592017219727E-080
   69.5756250000000        -4.769129746270601E-080
   69.7893750000000        -3.957506017676869E-080
   70.0031250000000        -1.390208052530781E-080
   70.2168750000000         3.513425633103996E-080
   70.4306250000000         1.110485132111118E-079
   70.6443750000000         2.124274506825982E-079
   70.8581250000000         3.297616153647348E-079
   71.0718750000000         4.422248184408905E-079
   71.2856250000000         5.152285346506610E-079
   71.4993750000000         4.999447701233101E-079
   71.7131250000000         3.362970254868814E-079
   71.9268750000000        -3.895384484290913E-080
   72.1406250000000        -6.776060232012450E-079
   72.3543750000000        -1.598178621746101E-078
   72.5681250000000        -2.757491431888487E-078
   72.7818750000000        -4.018452042333950E-078
   72.9956250000000        -5.119731829801262E-078
   73.2093750000000        -5.656451283137559E-078
   73.4231250000000        -5.084496701765792E-078
   73.6368750000000        -2.763821941398986E-078
   73.8506250000000         1.943167541208764E-078
   74.0643750000000         9.504868034801168E-078
   74.2781250000000         1.998025014013677E-077
   74.4918750000000         3.271523695268588E-077
   74.7056250000000         4.600913292437051E-077
   74.9193750000000         5.681587142957626E-077
   75.1331250000000         6.058173712869681E-077
   75.3468750000000         5.135806447697206E-077
   75.5606250000000         2.235451579219064E-077
   75.7743750000000        -3.289832116562111E-077
   75.9881250000000        -1.186473498503385E-076
   76.2018750000000        -2.342482750299086E-076
   76.4156250000000        -3.708838847925425E-076
   76.6293750000000        -5.080957313071599E-076
   76.8431250000000        -6.109098272478454E-076
   77.0568750000000        -6.287360234664032E-076
   77.2706250000000        -4.975882033284907E-076
   77.4843750000000        -1.473849669121685E-076
   77.6981250000000         4.840216758934465E-076
   77.9118750000000         1.429080876573553E-075
   78.1256250000000         2.661397787915672E-075
   78.3393750000000         4.061799164334079E-075
   78.5531250000000         5.385300460902779E-075
   78.7668750000000         6.238388938906010E-075
   78.9806250000000         6.079796840589223E-075
   79.1943750000000         4.260725983122825E-075
   79.4081250000000         1.208627500838153E-076
   79.6218750000000        -6.847269633023532E-075
   79.8356250000000        -1.676284783720463E-074
   80.0493750000000        -2.906454654838663E-074
   80.2631250000000        -4.220079006827685E-074
   80.4768750000000        -5.337253656445019E-074
   80.6906250000000        -5.843128857715506E-074
   80.9043750000000        -5.206168077117994E-074
   81.1181250000000        -2.838758495173033E-074
   81.3318750000000         1.788053193599510E-074
   81.5456250000000         8.970553684509682E-074
   81.7593750000000         1.854620296179108E-073
   81.9731250000000         2.964067470862093E-073
   82.1868750000000         4.043660140737882E-073
   82.4006250000000         4.803755973524437E-073
   82.6143750000000         4.852230975399182E-073
   82.8281250000000         3.729435916101377E-073
   83.0418750000000         9.820863932721056E-074
   83.2556250000000        -3.718737140547004E-073
   83.4693750000000        -1.041844709638681E-072
   83.6831250000000        -1.869395353770678E-072
   83.8968750000000        -2.747392919000119E-072
   84.1106250000000        -3.491278766786213E-072
   84.3243750000000        -3.838213268601543E-072
   84.5381250000000        -3.465159689623125E-072
   84.7518750000000        -2.032575642604704E-072
   84.9656250000000         7.421257252584034E-073
   85.1793750000000         4.982180819971172E-072
   85.3931250000000         1.052863968466765E-071
   85.6068750000000         1.681548768744151E-071
   85.8206250000000         2.277207511152530E-071
   86.0343750000000         2.679206879914853E-071
   86.2481250000000         2.681387635913197E-071
   86.4618750000000         2.055542183399941E-071
   86.6756250000000         5.932518759108228E-072
   86.8893750000000        -1.833804570813800E-071
   87.1031250000000        -5.199320114883379E-071
   87.3168750000000        -9.243533537003053E-071
   87.5306250000000        -1.340636925499813E-070
   87.7443750000000        -1.679462172009331E-070
   87.9581250000000        -1.820891994261459E-070
   88.1718750000000        -1.625572813338611E-070
   88.3856250000000        -9.563026543841703E-071
   88.5993750000000         2.895984422645730E-071
   88.8131250000000         2.138934003578776E-070
   89.0268750000000         4.497075698114756E-070
   89.2406250000000         7.106338937730184E-070
   89.4543750000000         9.519582453403311E-070
   89.6681250000000         1.110249636074086E-069
   89.8818750000000         1.107827120027659E-069
   90.0956250000000         8.625661879765655E-070
   90.3093750000000         3.035113876031775E-070
   90.5231250000000        -6.082699025209803E-070
   90.7368750000000        -1.855544623149143E-069
   90.9506250000000        -3.341040304651548E-069
   91.1643750000000        -4.868983168160943E-069
   91.3781250000000        -6.138415873703530E-069
   91.5918750000000        -6.755124326813429E-069
   91.8056250000000        -6.268286739263031E-069
   92.0193750000000        -4.235718284149422E-069
   92.2331250000000        -3.176366681588996E-070
   92.4468750000000         5.606712485942044E-069
   92.6606250000000         1.331205741181323E-068
   92.8743750000000         2.210951550923307E-068
   93.0881250000000         3.076486486104939E-068
   93.3018750000000         3.748373918582635E-068
   93.5156250000000         3.999588580264866E-068
   93.7293750000000         3.576668128838602E-068
   93.9431250000000         2.235393860024155E-068
   94.1568750000000        -2.089063323443112E-069
   94.3706250000000        -3.818751357972335E-068
   94.5843750000000        -8.464955549095488E-068
   94.7981250000000        -1.375899372721327E-067
   95.0118750000000        -1.899983250759881E-067
   95.2256250000000        -2.315124298187227E-067
   95.4393750000000        -2.486827399548814E-067
   95.6531250000000        -2.259263746799998E-067
   95.8668750000000        -1.473519592183831E-067
   96.0806250000000         4.174918156208847E-070
   96.2943750000000         2.244056678086688E-067
   96.5081250000000         5.205874225720301E-067
   96.7218750000000         8.687517073538129E-067
   96.9356250000000         1.227671009072065E-066
   97.1493750000000         1.531714747287068E-066
   97.3631250000000         1.690439860748922E-066
   97.5768750000000         1.593005628698744E-066
   97.7906250000000         1.119360879532911E-066
   98.0043750000000         1.598718379095519E-067
   98.2181250000000        -1.355788891479066E-066
   98.4318750000000        -3.421255235930945E-066
   98.6456250000000        -5.910756141280056E-066
   98.8593750000000        -8.537430780053730E-066
   99.0731250000000        -1.082267114502106E-065
   99.2868750000000        -1.209001207960770E-065
   99.5006250000000        -1.149953141642032E-065
   99.7143750000000        -8.138828390780148E-066
   99.9281250000000        -1.182974145886053E-066
   100.141875000000         9.872993813401027E-066
   100.355625000000         2.492033353242207E-065
   100.569375000000         4.291377778270171E-065
   100.783125000000         6.157707151100246E-065
   100.996875000000         7.722045956816232E-065
   101.210625000000         8.477496598750290E-065
   101.424375000000         7.815682851237446E-065
   101.638125000000         5.106214160977451E-065
   101.851875000000        -1.752264307683433E-066
   102.065625000000        -8.272681796988178E-065
   102.279375000000        -1.894404867956594E-064
   102.493125000000        -3.125298214901323E-064
   102.706875000000        -4.340425694196150E-064
   102.920625000000        -5.268261546312430E-064
   103.134375000000        -5.556331377862821E-064
   103.348125000000        -4.805952519513684E-064
   103.561875000000        -2.635240841032631E-064
   103.775625000000         1.228990906021558E-064
   103.989375000000         6.835920433684425E-064
   104.203125000000         1.388541824017021E-063
   104.416875000000         2.161513617641364E-063
   104.630625000000         2.873078320359618E-063
   104.844375000000         3.341619010000956E-063
   105.058125000000         3.346038511463443E-063
   105.271875000000         2.653171602288373E-063
   105.485625000000         1.061190504713146E-063
   105.699375000000        -1.542518088862620E-063
   105.913125000000        -5.114339669430386E-063
   106.126875000000        -9.388082160539627E-063
   106.340625000000        -1.382355269580273E-062
   106.554375000000        -1.758783586716978E-062
   106.768125000000        -1.958843422010042E-062
   106.981875000000        -1.857544014294480E-062
   107.195625000000        -1.332344280597598E-062
   107.409375000000        -2.892290774082683E-063
   107.623125000000         1.305073060244055E-062
   107.836875000000         3.388505979157107E-062
   108.050625000000         5.772664652155495E-062
   108.264375000000         8.123156280166987E-062
   108.478125000000         9.960296746282535E-062
   108.691875000000         1.068892217650813E-061
   108.905625000000         9.664100300931449E-062
   109.119375000000         6.295344887717652E-062
   109.333125000000         1.854882147819500E-063
   109.546875000000        -8.708015680987112E-062
   109.760625000000        -1.991105532846266E-061
   109.974375000000        -3.230095832955005E-061
   110.188125000000        -4.404255967728070E-061
   110.401875000000        -5.263265832707709E-061
   110.615625000000        -5.508922770715390E-061
   110.829375000000        -4.830922923582546E-061
   111.043125000000        -2.959694061139682E-061
   111.256875000000         2.666211286444070E-062
   111.470625000000         4.827696900369474E-061
   111.684375000000         1.044974012082334E-060
   111.898125000000         1.655166137758333E-060
   112.111875000000         2.222537430704411E-060
   112.325625000000         2.626721518544246E-060
   112.539375000000         2.727488193942171E-060
   112.753125000000         2.381816960262768E-060
   112.966875000000         1.468190601204431E-060
   113.180625000000        -8.337835789880622E-062
   113.394375000000        -2.258637298591144E-060
   113.608125000000        -4.928361250045647E-060
   113.821875000000        -7.825668327666870E-060
   114.035625000000        -1.053834266144289E-059
   114.249375000000        -1.252316214426492E-059
   114.463125000000        -1.314810179638016E-059
   114.676875000000        -1.176576390947097E-059
   114.890625000000        -7.817391747600503E-060
   115.104375000000        -9.614835966332649E-061
   115.318125000000         8.785269873661846E-060
   115.531875000000         2.091356672199907E-059
   115.745625000000         3.431830335462751E-059
   115.959375000000         4.725529518330683E-059
   116.173125000000         5.738734323834517E-059
   116.386875000000         6.194532795722118E-059
   116.600625000000         5.802072011484770E-059
   116.814375000000         4.299054800025120E-059
   117.028125000000         1.505470599972631E-059
   117.241875000000        -2.616018534009821E-059
   117.455625000000        -7.900386961222779E-059
   117.669375000000        -1.393120079325528E-058
   117.883125000000        -2.001411596256681E-058
   118.096875000000        -2.518554373854545E-058
   118.310625000000        -2.826804787003218E-058
   118.524375000000        -2.798069632299420E-058
   118.738125000000        -2.310667071547940E-058
   118.951875000000        -1.271195935270238E-058
   119.165625000000         3.601614525216857E-059
   119.379375000000         2.543746017397157E-058
   119.593125000000         5.137905540765919E-058
   119.806875000000         7.884697454857774E-058
   120.020625000000         1.040904065957959E-057
   120.234375000000         1.223620436845469E-057
   120.448125000000         1.283124743050741E-057
   120.661875000000         1.166170007998264E-057
   120.875625000000         8.281440053295722E-058
   121.089375000000         2.429574215211994E-058
   121.303125000000        -5.866369424436627E-058
   121.516875000000        -1.619785595617531E-057
   121.730625000000        -2.771139731902082E-057
   121.944375000000        -3.909239387849960E-057
   122.158125000000        -4.861419457008691E-057
   122.371875000000        -5.426466880381835E-057
   122.585625000000        -5.395387461094269E-057
   122.799375000000        -4.579458336610504E-057
   123.013125000000        -2.843365099519880E-057
   123.226875000000        -1.398387997997086E-058
   123.440625000000         3.458938663767805E-057
   123.654375000000         7.738534305767978E-057
   123.868125000000         1.233333603139340E-056