  -1.60312500000000         0.000000000000000E+000
  -1.38937500000000         0.000000000000000E+000
  -1.17562500000000         0.000000000000000E+000
 -0.961875000000000         0.000000000000000E+000
 -0.748125000000000         0.000000000000000E+000
 -0.534375000000000         0.000000000000000E+000
 -0.320625000000000         0.000000000000000E+000
 -0.106875000000000         0.000000000000000E+000
  0.106875000000000         0.000000000000000E+000
  0.320625000000000         0.000000000000000E+000
  0.534375000000000         0.000000000000000E+000
  0.748125000000000         0.000000000000000E+000
  0.961875000000000         0.000000000000000E+000
   1.17562500000000         0.000000000000000E+000
   1.38937500000000         0.000000000000000E+000
   1.60312500000000         0.000000000000000E+000
   1.81687500000000         0.000000000000000E+000
   2.03062500000000         0.000000000000000E+000
   2.24437500000000         0.000000000000000E+000
   2.45812500000000         0.000000000000000E+000
   2.67187500000000         0.000000000000000E+000
   2.88562500000000         0.000000000000000E+000
   3.09937500000000         0.000000000000000E+000
   3.31312500000000         0.000000000000000E+000
   3.52687500000000         0.000000000000000E+000
   3.74062500000000         0.000000000000000E+000
   3.95437500000000         0.000000000000000E+000
   4.16812500000000         0.000000000000000E+000
   4.38187500000000         0.000000000000000E+000
   4.59562500000000         0.000000000000000E+000
   4.80937500000000         0.000000000000000E+000
   5.02312500000000         0.000000000000000E+000
   5.23687500000000         0.000000000000000E+000
   5.45062500000000         0.000000000000000E+000
   5.66437500000000         0.000000000000000E+000
   5.87812500000000         0.000000000000000E+000
   6.09187500000000         0.000000000000000E+000
   6.30562500000000         0.000000000000000E+000
   6.51937500000000         0.000000000000000E+000
   6.73312500000000         0.000000000000000E+000
   6.94687500000000         0.000000000000000E+000
   7.16062500000000         0.000000000000000E+000
   7.37437500000000         0.000000000000000E+000
   7.58812500000000        -1.056579423666366E-186
   7.80187500000000        -9.506504893116006E-178
   8.01562500000000         5.300729774166086E-162
   8.22937500000000         1.743331349350610E-160
   8.44312500000000        -1.177128096765775E-159
   8.65687500000000        -2.089906113619118E-157
   8.87062500000000        -7.077310628420749E-156
   9.08437500000000        -1.507713418787967E-154
   9.29812500000000        -2.408588216294118E-153
   9.51187500000000        -3.103611553705606E-152
   9.72562500000000        -3.360592986880543E-151
   9.93937500000000        -3.143866548233088E-150
   10.1531250000000        -2.600785553454096E-149
   10.3668750000000        -1.951835460071694E-148
   10.5806250000000        -1.376329290261051E-147
   10.7943750000000        -9.574243578164983E-147
   11.0081250000000        -6.918400077743498E-146
   11.2218750000000        -5.321947949676540E-145
   11.4356250000000        -4.273340467328767E-144
   11.6493750000000        -3.434833610962831E-143
   11.8631250000000        -2.668327960400766E-142
   12.0768750000000        -1.964550645763314E-141
   12.2906250000000        -1.359930983959021E-140
   12.5043750000000        -8.836246151403254E-140
   12.7181250000000        -5.395298839872862E-139
   12.9318750000000        -3.102473348049150E-138
   13.1456250000000        -1.684084063109662E-137
   13.3593750000000        -8.647495126818480E-137
   13.5731250000000        -4.207173301666179E-136
   13.7868750000000        -1.941311179118408E-135
   14.0006250000000        -8.497480924890602E-135
   14.2143750000000        -3.525346143617011E-134
   14.4281250000000        -1.382915633550382E-133
   14.6418750000000        -5.104971449498227E-133
   14.8556250000000        -1.757405228500446E-132
   15.0693750000000        -5.543481317475774E-132
   15.2831250000000        -1.541683459892769E-131
   15.4968750000000        -3.392102939315050E-131
   15.7106250000000        -3.132907038511196E-131
   15.9243750000000         2.349598542722898E-130
   16.1381250000000         2.071517979530432E-129
   16.3518750000000         1.143316117311650E-128
   16.5656250000000         5.290024729994520E-128
   16.7793750000000         2.210565746967844E-127
   16.9931250000000         8.603522069396787E-127
   17.2068750000000         3.168749259336887E-126
   17.4206250000000         1.114874002748410E-125
   17.6343750000000         3.769985583319684E-125
   17.8481250000000         1.230455593098584E-124
   18.0618750000000         3.888155113351398E-124
   18.2756250000000         1.192307910584439E-123
   18.4893750000000         3.554639998817513E-123
   18.7031250000000         1.031818449485998E-122
   18.9168750000000         2.919669700960696E-122
   19.1306250000000         8.061596949617466E-122
   19.3443750000000         2.173854588186456E-121
   19.5581250000000         5.728904384011563E-121
   19.7718750000000         1.476414188515463E-120
   19.9856250000000         3.722765408800615E-120
   20.1993750000000         9.188315289894952E-120
   20.4131250000000         2.220656463050275E-119
   20.6268750000000         5.257001572836472E-119
   20.8406250000000         1.219319762185643E-118
   21.0543750000000         2.771459238311040E-118
   21.2681250000000         6.174153679692682E-118
   21.4818750000000         1.348248141251842E-117
   21.6956250000000         2.886091859934784E-117
   21.9093750000000         6.056226294653391E-117
   22.1231250000000         1.245743631254831E-116
   22.3368750000000         2.511610982930580E-116
   22.5506250000000         4.962672354368489E-116
   22.7643750000000         9.608195888941290E-116
   22.9781250000000         1.822376222204430E-115
   23.1918750000000         3.385315017622981E-115
   23.4056250000000         6.157664866522564E-115
   23.6193750000000         1.096453680444956E-114
   23.8331250000000         1.910985600007476E-114
   24.0468750000000         3.260069432861248E-114
   24.2606250000000         5.445603645858691E-114
   24.4743750000000         8.914599065932387E-114
   24.6881250000000         1.432763850719320E-113
   24.9018750000000         2.268073580084512E-113
   25.1156250000000         3.554896795209635E-113
   25.3293750000000         5.560280594619924E-113
   25.5431250000000         8.770799545949689E-113
   25.7568750000000         1.412081661186241E-112
   25.9706250000000         2.344718323330990E-112
   26.1843750000000         4.035263711054098E-112
   26.3981250000000         7.176163099177765E-112
   26.6118750000000         1.305670690839690E-111
   26.8256250000000         2.398433783722784E-111
   27.0393750000000         4.390143615994352E-111
   27.2531250000000         7.918495918744465E-111
   27.4668750000000         1.394725474431669E-110
   27.6806250000000         2.380373533899115E-110
   27.8943750000000         3.905993719005441E-110
   28.1081250000000         6.103160568146756E-110
   28.3218750000000         8.947818580098636E-110
   28.5356250000000         1.197901952721758E-109
   28.7493750000000         1.375283044628114E-109
   28.9631250000000         1.086392709112833E-109
   29.1768750000000        -3.690296051567268E-110
   29.3906250000000        -4.306801925404076E-109
   29.6043750000000        -1.303048226052859E-108
   29.8181250000000        -3.032697266967385E-108
   30.0318750000000        -6.204727792698106E-108
   30.2456250000000        -1.166402439749486E-107
   30.4593750000000        -2.053374856155099E-107
   30.6731250000000        -3.414109887777336E-107
   30.8868750000000        -5.375133421369620E-107
   31.1006250000000        -7.995571807216407E-107
   31.3143750000000        -1.114939136126616E-106
   31.5281250000000        -1.432306966912731E-106
   31.7418750000000        -1.629814509174163E-106
   31.9556250000000        -1.469461797481500E-106
   32.1693750000000        -5.375556378071473E-107
   32.3831250000000         1.823209949024666E-106
   32.5968750000000         6.574527420486727E-106
   32.8106250000000         1.500442963264814E-105
   33.0243750000000         2.865550868175214E-105
   33.2381250000000         4.907485308604350E-105
   33.4518750000000         7.726918603029286E-105
   33.6656250000000         1.127239948323594E-104
   33.8793750000000         1.518456631494776E-104
   34.0931250000000         1.857382867010860E-104
   34.3068750000000         1.973692132422980E-104
   34.5206250000000         1.584517583127618E-104
   34.7343750000000         2.681542301219710E-105
   34.9481250000000        -2.543510206137327E-104
   35.1618750000000        -7.532694841452491E-104
   35.3756250000000        -1.539570123382273E-103
   35.5893750000000        -2.664447850064072E-103
   35.8031250000000        -4.128532475980058E-103
   36.0168750000000        -5.837232526469164E-103
   36.2306250000000        -7.547785691654782E-103
   36.4443750000000        -8.819350978641056E-103
   36.6581250000000        -8.986660719436184E-103
   36.8718750000000        -7.186702798821932E-103
   37.0856250000000        -2.471530281065070E-103
   37.2993750000000         5.970138278334520E-103
   37.5131250000000         1.849676222914001E-102
   37.7268750000000         3.469500905329923E-102
   37.9406250000000         5.327827353304299E-102
   38.1543750000000         7.259852188329226E-102
   38.3681250000000         9.235359235684298E-102
   38.5818750000000         1.171764648616978E-101
   38.7956250000000         1.626389971578160E-101
   39.0093750000000         2.635095780490174E-101
   39.2231250000000         4.824934206433940E-101
   39.4368750000000         9.147432843468307E-101
   39.6506250000000         1.678876342109350E-100
   39.8643750000000         2.879236350927248E-100
   40.0781250000000         4.517818636390291E-100
   40.2918750000000         6.330391830231397E-100
   40.5056250000000         7.525092922895886E-100
   40.7193750000000         6.421368718630631E-100
   40.9331250000000         3.380753576675264E-102
   41.1468750000000        -1.626813981089419E-099
   41.3606250000000        -4.875716004722634E-099
   41.5743750000000        -1.045483335100868E-098
   41.7881250000000        -1.893367406409473E-098
   42.0018750000000        -3.028316855934065E-098
   42.2156250000000        -4.310347813569635E-098
   42.4293750000000        -5.348643056081143E-098
   42.6431250000000        -5.356387092246229E-098
   42.8568750000000        -2.999434040312244E-098
   43.0706250000000         3.702618366615832E-098
   43.2843750000000         1.731650623212919E-097
   43.4981250000000         4.061099489574561E-097
   43.7118750000000         7.562419390184184E-097
   43.9256250000000         1.219257812666013E-096
   44.1393750000000         1.738534487883149E-096
   44.3531250000000         2.166708288800985E-096
   44.5668750000000         2.219742170509639E-096
   44.7806250000000         1.433511750023385E-096
   44.9943750000000        -8.567693051819479E-097
   45.2081250000000        -5.480338483454214E-096
   45.4218750000000        -1.328869889697120E-095
   45.6356250000000        -2.484560216295549E-095
   45.8493750000000        -3.988492186426778E-095
   46.0631250000000        -5.649183114278200E-095
   46.2768750000000        -7.002043574882685E-095
   46.4906250000000        -7.187501843726464E-095
   46.7043750000000        -4.846838581310312E-095
   46.9181250000000         1.906474969844902E-095
   47.1318750000000         1.534959018610259E-094
   47.3456250000000         3.772389479088491E-094
   47.5593750000000         7.037412097417236E-094
   47.7731250000000         1.123157715598280E-093
   47.9868750000000         1.581591238172279E-093
   48.2006250000000         1.954746485667494E-093
   48.4143750000000         2.019674822286574E-093
   48.6281250000000         1.432630211931248E-093
   48.8418750000000        -2.731043785461313E-094
   49.0556250000000        -3.648781449414263E-093
   49.2693750000000        -9.224185625566443E-093
   49.4831250000000        -1.730381868504018E-092
   49.6968750000000        -2.763877467449345E-092
   49.9106250000000        -3.896400642253464E-092
   50.1243750000000        -4.842574147146407E-092
   50.3381250000000        -5.098393059340718E-092
   50.5518750000000        -3.896364954902173E-092
   50.7656250000000        -2.045401578951272E-093
   50.9793750000000         7.188506731120809E-092
   51.1931250000000         1.944899167600485E-091
   51.4068750000000         3.727447515666919E-091
   51.6206250000000         6.022126810647643E-091
   51.8343750000000         8.576508779819746E-091
   52.0481250000000         1.081461093058222E-090
   52.2618750000000         1.171656802667799E-090
   52.4756250000000         9.727246843558444E-091
   52.6893750000000         2.749704401554482E-091
   52.9031250000000        -1.169571227945322E-090
   53.1168750000000        -3.604345176743280E-090
   53.3306250000000        -7.187240907120940E-090
   53.5443750000000        -1.186153552307462E-089
   53.7581250000000        -1.717518120414512E-089
   53.9718750000000        -2.205778983732532E-089
   54.1856250000000        -2.458670540646246E-089
   54.3993750000000        -2.180600491429808E-089
   54.6131250000000        -9.704390044987120E-090
   54.8268750000000         1.649486434507580E-089
   55.0406250000000         6.153701807987946E-089
   55.2543750000000         1.286195995699104E-088
   55.4681250000000         2.169792463220101E-088
   55.6818750000000         3.185289355338340E-088
   55.8956250000000         4.137502189212171E-088
   56.1093750000000         4.674732405601636E-088
   56.3231250000000         4.257932002324200E-088
   56.5368750000000         2.161451071725897E-088
   56.7506250000000        -2.466225185935573E-088
   56.9643750000000        -1.044700504543845E-087
   57.1781250000000        -2.228756333442482E-087
   57.3918750000000        -3.773853193250207E-087
   57.6056250000000        -5.520156618478452E-087
   57.8193750000000        -7.103980067433802E-087
   58.0331250000000        -7.892852714580710E-087
   58.2468750000000        -6.949189441579430E-087
   58.4606250000000        -3.059635888237439E-087
   58.6743750000000         5.121508547353318E-087
   58.8881250000000         1.876105146355922E-086
   59.1018750000000         3.832187521511566E-086
   59.3156250000000         6.280795660168943E-086
   59.5293750000000         8.882457485644550E-086
   59.7431250000000         1.095986459624260E-085
   59.9568750000000         1.142426311899947E-085
   60.1706250000000         8.771000770180521E-086
   60.3843750000000         1.204843456470488E-086
   60.5981250000000        -1.303497386930813E-085
   60.8118750000000        -3.508576277600076E-085
   61.0256250000000        -6.457612815761098E-085
   61.2393750000000        -9.848166414371819E-085
   61.4531250000000        -1.298748704739250E-084
   61.6668750000000        -1.468858375668574E-084
   61.8806250000000        -1.323863351008488E-084
   62.0943750000000        -6.510142975179349E-085
   62.3081250000000         7.702742566510638E-085
   62.5218750000000         3.104547793038998E-084
   62.7356250000000         6.361920503169486E-084
   62.9493750000000         1.026860624247834E-083
   63.1631250000000         1.412272095601497E-083
   63.3768750000000         1.666984971657498E-083
   63.5906250000000         1.605457892279621E-083
   63.8043750000000         9.925273761643611E-084
   64.0181250000000        -4.217542377406098E-084
   64.2318750000000        -2.834448022400744E-083
   64.4456250000000        -6.284506180650159E-083
   64.6593750000000        -1.051356347771024E-082
   64.8731250000000        -1.481005915804129E-082
   65.0868750000000        -1.787313993024821E-082
   65.3006250000000        -1.775542379892146E-082
   65.5143750000000        -1.196533519906765E-082
   65.7281250000000         2.177339702641424E-083
   65.9418750000000         2.684570077075273E-082
   66.1556250000000         6.262224436391976E-082
   66.3693750000000         1.070652239506326E-081
   66.5831250000000         1.531016949282526E-081
   66.7968750000000         1.876152723022253E-081
   67.0106250000000         1.908196345885094E-081
   67.2243750000000         1.372182496689704E-081
   67.4381250000000        -9.287337743309461E-084
   67.6518750000000        -2.467824547247764E-081
   67.8656250000000        -6.082893612270578E-081
   68.0793750000000        -1.064094567017836E-080
   68.2931250000000        -1.547693216632556E-080
   68.5068750000000        -1.933305821713054E-080
   68.7206250000000        -2.029035046048401E-080
   68.9343750000000        -1.584782871033703E-080
   69.1481250000000        -3.234926259645136E-081
   69.3618750000000         1.996398441222438E-080
   69.5756250000000         5.482919744869814E-080
   69.7893750000000         9.979889358285351E-080
   70.0031250000000         1.491824101058110E-079
   70.2168750000000         1.917973113704379E-079
   70.4306250000000         2.102142757375090E-079
   70.6443750000000         1.812609723058101E-079
   70.8581250000000         7.853315673462597E-080
   71.0718750000000        -1.223875715286258E-079
   71.2856250000000        -4.355900571536549E-079
   71.4993750000000        -8.535338188100344E-079
   71.7131250000000        -1.333904324003824E-078
   71.9268750000000        -1.787001399242577E-078
   72.1406250000000        -2.067498787511489E-078
   72.3543750000000        -1.975794405926009E-078
   72.5681250000000        -1.275049983876226E-078
   72.7818750000000         2.701634048813792E-079
   72.9956250000000         2.829570114717142E-078
   73.2093750000000         6.417342400138452E-078
   73.4231250000000         1.078355367005539E-077
   73.6368750000000         1.530304273269651E-077
   73.8506250000000         1.888874307929196E-077
   74.0643750000000         1.996743888638562E-077
   74.2781250000000         1.656404912489165E-077
   74.4918750000000         6.542258089319135E-078
   74.7056250000000        -1.195962447353982E-077
   74.9193750000000        -3.988241540139046E-077
   75.1331250000000        -7.641583240907928E-077
   75.3468750000000        -1.180708181134229E-076
   75.5606250000000        -1.578165653813697E-076
   75.7743750000000        -1.845274154236431E-076
   75.9881250000000        -1.830610791786256E-076
   76.2018750000000        -1.353387425692766E-076
   76.4156250000000        -2.279359237057764E-077
   76.6293750000000         1.695322806922890E-076
   76.8431250000000         4.471610146970168E-076
   77.0568750000000         7.988743691301182E-076
   77.2706250000000         1.188663672006110E-075
   77.4843750000000         1.548281786117519E-075
   77.6981250000000         1.772450762102550E-075
   77.9118750000000         1.719486860282973E-075
   78.1256250000000         1.220667680703138E-075
   78.3393750000000         1.018698973439255E-076
   78.5531250000000        -1.779434479628453E-075
   78.7668750000000        -4.480164869697879E-075
   78.9806250000000        -7.901730296821846E-075
   79.1943750000000        -1.170983100666023E-074
   79.4081250000000        -1.525584434256936E-074
   79.6218750000000        -1.751958791442840E-074
   79.8356250000000        -1.710200709000602E-074
   80.0493750000000        -1.230431462222568E-074
   80.2631250000000        -1.334652829045428E-075
   80.4768750000000         1.731934188684139E-074
   80.6906250000000         4.432834594753983E-074
   80.9043750000000         7.877744665415831E-074
   81.1181250000000         1.173011898204599E-073
   81.3318750000000         1.532333280986057E-073
   81.5456250000000         1.760003587462786E-073
   81.7593750000000         1.710871925036176E-073
   81.9731250000000         1.209853707215399E-073
   82.1868750000000         7.564053713453790E-075
   82.4006250000000        -1.837641555197841E-073
   82.6143750000000        -4.579273962700080E-073
   82.8281250000000        -8.023841941290714E-073
   83.0418750000000        -1.178500507033938E-072
   83.2556250000000        -1.513815794330974E-072
   83.4693750000000        -1.697820540836159E-072
   83.6831250000000        -1.584706917058289E-072
   83.8968750000000        -1.007028743976843E-072
   84.1106250000000         1.960550732812799E-073
   84.3243750000000         2.133693485623708E-072
   84.5381250000000         4.802091619183498E-072
   84.7518750000000         8.012438685433899E-072
   84.9656250000000         1.131961442385888E-071
   85.1793750000000         1.397046672445217E-071
   85.3931250000000         1.489727484437872E-071
   85.6068750000000         1.278643406906666E-071
   85.8206250000000         6.251775133539093E-072
   86.0343750000000        -5.866663655890087E-072
   86.2481250000000        -2.407677134153550E-071
   86.4618750000000        -4.771093716413907E-071
   86.6756250000000        -7.437689143152172E-071
   86.8893750000000        -9.950382410680890E-071
   87.1031250000000        -1.161523655356726E-070
   87.3168750000000        -1.152900233755983E-070
   87.5306250000000        -8.673547009075206E-071
   87.7443750000000        -2.092752185422160E-071
   87.9581250000000         8.843812674510868E-071
   88.1718750000000         2.410476840668945E-070
   88.3856250000000         4.262813492764073E-070
   88.5993750000000         6.198940885904998E-070
   88.8131250000000         7.820520716516526E-070
   89.0268750000000         8.579238369671586E-070
   89.2406250000000         7.820653353593443E-070
   89.4543750000000         4.876073234806785E-070
   89.6681250000000        -7.933204265241040E-071
   89.8818750000000        -9.405692965787662E-070
   90.0956250000000        -2.064021654928139E-069
   90.3093750000000        -3.342611108444222E-069
   90.5231250000000        -4.578973121239843E-069
   90.7368750000000        -5.482233820661234E-069
   90.9506250000000        -5.683497448426869E-069
   91.1643750000000        -4.775782720229995E-069
   91.3781250000000        -2.381581781829000E-069
   91.5918750000000         1.753190806983311E-069
   91.8056250000000         7.646192783462978E-069
   92.0193750000000         1.496114969146647E-068
   92.2331250000000         2.290771185366266E-068
   92.4468750000000         3.018645207555519E-068
   92.6606250000000         3.500958658527583E-068
   92.8743750000000         3.522596571920466E-068
   93.0881250000000         2.857064881595781E-068
   93.3018750000000         1.304435207239188E-068
   93.5156250000000        -1.259326031468606E-068
   93.7293750000000        -4.825829499195061E-068
   93.9431250000000        -9.197451782522524E-068
   94.1568750000000        -1.393964420779450E-067
   94.3706250000000        -1.835358701677912E-067
   94.5843750000000        -2.148119614202944E-067
   94.7981250000000        -2.215396895638464E-067
   95.0118750000000        -1.909521738871787E-067
   95.2256250000000        -1.108188988271730E-067
   95.4393750000000         2.832540125039257E-068
   95.6531250000000         2.303884746598240E-067
   95.8668750000000         4.904932619173513E-067
   96.0806250000000         7.915524411492828E-067
   96.2943750000000         1.101029375276237E-066
   96.5081250000000         1.368468118998705E-066
   96.7218750000000         1.524626135016225E-066
   96.9356250000000         1.483329015399402E-066
   97.1493750000000         1.147433284220849E-066
   97.3631250000000         4.204292382750192E-067
   97.5768750000000        -7.749157917603013E-067
   97.7906250000000        -2.470084622042678E-066
   98.0043750000000        -4.617025803866317E-066
   98.2181250000000        -7.049748359954160E-066
   98.4318750000000        -9.447058792037011E-066
   98.6456250000000        -1.130596334427506E-065
   98.8593750000000        -1.193913721529251E-065
   99.0731250000000        -1.051285782908248E-065
   99.2868750000000        -6.142477085822209E-066
   99.5006250000000         1.940869527745674E-066
   99.7143750000000         1.414779151238886E-065
   99.9281250000000         3.022410701643831E-065
   100.141875000000         4.891532842612069E-065
   100.355625000000         6.766605779257880E-065
   100.569375000000         8.244811398379962E-065
   100.783125000000         8.783513277309709E-065
   100.996875000000         7.744950469942301E-065
   101.210625000000         4.488851291696039E-065
   101.424375000000        -1.482035687660070E-065
   101.638125000000        -1.032867698802270E-064
   101.851875000000        -2.165454812102399E-064
   102.065625000000        -3.429407546980031E-064
   102.279375000000        -4.616656257403679E-064
   102.493125000000        -5.426578866402804E-064
   102.706875000000        -5.486022397344508E-064
   102.920625000000        -4.396765384776385E-064
   103.134375000000        -1.813529940554069E-064
   103.348125000000         2.450091507040845E-064
   103.561875000000         8.298510049133295E-064
   103.775625000000         1.523415441613115E-063
   103.989375000000         2.227054958635775E-063
   104.203125000000         2.791554790832242E-063
   104.416875000000         3.026356132793179E-063
   104.630625000000         2.722886081040376E-063
   104.844375000000         1.693409291764189E-063
   105.058125000000        -1.762008136797200E-064
   105.271875000000        -2.865480980857556E-063
   105.485625000000        -6.160624203771696E-063
   105.699375000000        -9.612884075437232E-063
   105.913125000000        -1.253211929959786E-062
   106.126875000000        -1.403362718203219E-062
   106.340625000000        -1.315227226375661E-062
   106.554375000000        -9.028412401621360E-063
   106.768125000000        -1.155020649491549E-063
   106.981875000000         1.034428236650470E-062
   107.195625000000         2.445820713329234E-062
   107.409375000000         3.912294615465609E-062
   107.623125000000         5.123168442063101E-062
   107.836875000000         5.689692072275573E-062
   108.050625000000         5.201953214831412E-062
   108.264375000000         3.316944003523633E-062
   108.478125000000        -1.290445307537343E-063
   108.691875000000        -4.999608522136307E-062
   108.905625000000        -1.075435623864862E-061
   109.119375000000        -1.639503534097966E-061
   109.333125000000        -2.049800650324240E-061
   109.546875000000        -2.136541352370207E-061
   109.760625000000        -1.731371975013080E-061
   109.974375000000        -7.093723200260707E-062
   110.188125000000         9.598396286217661E-062
   110.401875000000         3.160032912187989E-061
   110.615625000000         5.587485459349077E-061
   110.829375000000         7.736459347583361E-061
   111.043125000000         8.926940848643095E-061
   111.256875000000         8.387871450554916E-061
   111.470625000000         5.402032161414084E-061
   111.684375000000        -4.930328534561259E-062
   111.898125000000        -9.269536046908585E-061
   112.111875000000        -2.017900086629198E-060
   112.325625000000        -3.158358803439844E-060
   112.539375000000        -4.091770903943867E-060
   112.753125000000        -4.484972798889594E-060
   112.966875000000        -3.969936463550230E-060
   113.180625000000        -2.213310671273956E-060
   113.394375000000         9.893377443179187E-061
   113.608125000000         5.604693172998250E-060
   113.821875000000         1.125622921274865E-059
   114.035625000000         1.714737050473656E-059
   114.249375000000         2.204342042801359E-059
   114.463125000000         2.434275687840371E-059
   114.676875000000         2.226161754979646E-059
   114.890625000000         1.414264572524050E-059
   115.104375000000        -1.125043135237193E-060
   115.318125000000        -2.361581043839876E-059
   115.531875000000        -5.188176133325886E-059
   115.745625000000        -8.257631938003673E-059
   115.959375000000        -1.103133660659815E-058
   116.173125000000        -1.278917582929142E-058
   116.386875000000        -1.269930208320429E-058
   116.600625000000        -9.940680437270262E-059
   116.814375000000        -3.875296004823665E-059
   117.028125000000         5.744435705066356E-059
   117.241875000000         1.856039391029070E-058
   117.455625000000         3.342535556352406E-058
   117.669375000000         4.830048165327887E-058
   117.883125000000         6.028579570353898E-058
   118.096875000000         6.582981559862327E-058
   118.310625000000         6.114735796625198E-058
   118.524375000000         4.284549149681145E-058
   118.738125000000         8.718035473629031E-059
   118.951875000000        -4.137724669257075E-058
   119.165625000000        -1.046910579854717E-057
   119.379375000000        -1.749748705823792E-057
   119.593125000000        -2.422830287572361E-057
   119.806875000000        -2.933661423349108E-057
   120.020625000000        -3.127932829833438E-057
   120.234375000000        -2.848576379656615E-057
   120.448125000000        -1.962012899040232E-057
   120.661875000000        -3.894974512389783E-058
   120.875625000000         1.860066714966065E-057
   121.089375000000         4.660854050710474E-057
   121.303125000000         7.750337613225955E-057
   121.516875000000         1.072519844266685E-056
   121.730625000000         1.305842248199446E-056
   121.944375000000         1.414133492643142E-056
   122.158125000000         1.335154088183629E-056
   122.371875000000         1.014412177803032E-056
   122.585625000000         4.159341688978731E-057
   122.799375000000        -4.663954243764215E-057
   123.013125000000        -1.598354260835584E-056
   123.226875000000        -2.897423586435875E-056
   123.440625000000        -4.229081606136242E-056
   123.654375000000        -5.408959632837195E-056
   123.868125000000        -6.212156496344630E-056