  -1.60312500000000         0.000000000000000E+000
  -1.38937500000000         0.000000000000000E+000
  -1.17562500000000         0.000000000000000E+000
 -0.961875000000000         0.000000000000000E+000
 -0.748125000000000         0.000000000000000E+000
 -0.534375000000000         0.000000000000000E+000
 -0.320625000000000         0.000000000000000E+000
 -0.106875000000000         0.000000000000000E+000
  0.106875000000000         0.000000000000000E+000
  0.320625000000000         0.000000000000000E+000
  0.534375000000000         0.000000000000000E+000
  0.748125000000000         0.000000000000000E+000
  0.961875000000000         0.000000000000000E+000
   1.17562500000000         0.000000000000000E+000
   1.38937500000000         0.000000000000000E+000
   1.60312500000000         0.000000000000000E+000
   1.81687500000000         0.000000000000000E+000
   2.03062500000000         0.000000000000000E+000
   2.24437500000000         0.000000000000000E+000
   2.45812500000000         0.000000000000000E+000
   2.67187500000000         0.000000000000000E+000
   2.88562500000000         0.000000000000000E+000
   3.09937500000000         0.000000000000000E+000
   3.31312500000000         0.000000000000000E+000
   3.52687500000000         0.000000000000000E+000
   3.74062500000000         0.000000000000000E+000
   3.95437500000000         0.000000000000000E+000
   4.16812500000000         0.000000000000000E+000
   4.38187500000000         0.000000000000000E+000
   4.59562500000000         0.000000000000000E+000
   4.80937500000000         0.000000000000000E+000
   5.02312500000000         0.000000000000000E+000
   5.23687500000000         0.000000000000000E+000
   5.45062500000000         0.000000000000000E+000
   5.66437500000000         0.000000000000000E+000
   5.87812500000000         0.000000000000000E+000
   6.09187500000000         0.000000000000000E+000
   6.30562500000000         0.000000000000000E+000
   6.51937500000000         0.000000000000000E+000
   6.73312500000000         0.000000000000000E+000
   6.94687500000000         0.000000000000000E+000
   7.16062500000000         0.000000000000000E+000
   7.37437500000000         0.000000000000000E+000
   7.58812500000000         0.000000000000000E+000
   7.80187500000000         1.033313516654904E-186
   8.01562500000000         2.045757867454165E-179
   8.22937500000000        -3.639300465443873E-162
   8.44312500000000        -1.821149830263590E-160
   8.65687500000000        -3.686690520691760E-159
   8.87062500000000        -1.878437537302923E-158
   9.08437500000000         9.496478921022352E-157
   9.29812500000000         3.294720983067569E-155
   9.51187500000000         6.377003541322016E-154
   9.72562500000000         9.171458517829747E-153
   9.93937500000000         1.068280469806993E-151
   10.1531250000000         1.047068416261851E-150
   10.3668750000000         8.778890241117726E-150
   10.5806250000000         6.290535337974613E-149
   10.7943750000000         3.752058053457576E-148
   11.0081250000000         1.693189804916447E-147
   11.2218750000000         3.315096532872894E-147
   11.4356250000000        -3.732688620162867E-146
   11.6493750000000        -5.999699111881862E-145
   11.8631250000000        -5.543860690090875E-144
   12.0768750000000        -4.011110455836894E-143
   12.2906250000000        -2.409775559790673E-142
   12.5043750000000        -1.187007939345854E-141
   12.7181250000000        -4.258978340696402E-141
   12.9318750000000        -3.644485922088851E-141
   13.1456250000000         1.149913686955982E-139
   13.3593750000000         1.415194280431570E-138
   13.5731250000000         1.171481982827028E-137
   13.7868750000000         8.130624567088232E-137
   14.0006250000000         5.048025874443721E-136
   14.2143750000000         2.885948120085150E-135
   14.4281250000000         1.543577095697253E-134
   14.6418750000000         7.801169996235380E-134
   14.8556250000000         3.750900489756884E-133
   15.0693750000000         1.724285187143646E-132
   15.2831250000000         7.607269421081286E-132
   15.4968750000000         3.230757865295398E-131
   15.7106250000000         1.324059282368647E-130
   15.9243750000000         5.247288129600363E-130
   16.1381250000000         2.014428651678753E-129
   16.3518750000000         7.502752666796943E-129
   16.5656250000000         2.714697521762902E-128
   16.7793750000000         9.553619105946480E-128
   16.9931250000000         3.273544879535301E-127
   17.2068750000000         1.093161117760499E-126
   17.4206250000000         3.560715408184954E-126
   17.6343750000000         1.132178000052529E-125
   17.8481250000000         3.516603068066044E-125
   18.0618750000000         1.067684925567303E-124
   18.2756250000000         3.170514817348615E-124
   18.4893750000000         9.213343930489063E-124
   18.7031250000000         2.621316344614690E-123
   18.9168750000000         7.305189338475640E-123
   19.1306250000000         1.994946269687846E-122
   19.3443750000000         5.340474843304410E-122
   19.5581250000000         1.401918826483345E-121
   19.7718750000000         3.609858048222198E-121
   19.9856250000000         9.120031920065918E-121
   20.1993750000000         2.261210873538697E-120
   20.4131250000000         5.503111266011251E-120
   20.6268750000000         1.314819614552048E-119
   20.8406250000000         3.084367848293060E-119
   21.0543750000000         7.104638588062240E-119
   21.2681250000000         1.606971432990115E-118
   21.4818750000000         3.569094428332814E-118
   21.6956250000000         7.783256330919242E-118
   21.9093750000000         1.666329028150153E-117
   22.1231250000000         3.501609731985641E-117
   22.3368750000000         7.220324798825107E-117
   22.5506250000000         1.460352544098645E-116
   22.7643750000000         2.895649798850730E-116
   22.9781250000000         5.625079078606933E-116
   23.1918750000000         1.069608064343905E-115
   23.4056250000000         1.988556621443490E-115
   23.6193750000000         3.609244849794233E-115
   23.8331250000000         6.382484763805374E-115
   24.0468750000000         1.096660190152344E-114
   24.2606250000000         1.823880932409448E-114
   24.4743750000000         2.919595806406821E-114
   24.6881250000000         4.459330459060536E-114
   24.9018750000000         6.404534735834583E-114
   25.1156250000000         8.412914003182550E-114
   25.3293750000000         9.479988286327953E-114
   25.5431250000000         7.322558322847233E-114
   25.7568750000000        -2.581104308440873E-114
   25.9706250000000        -2.830036984507326E-113
   26.1843750000000        -8.285792489407006E-113
   26.3981250000000        -1.848422807363923E-112
   26.6118750000000        -3.559708221977713E-112
   26.8256250000000        -6.106692707962906E-112
   27.0393750000000        -9.278459507002754E-112
   27.2531250000000        -1.186663714279528E-111
   27.4668750000000        -1.034622690516125E-111
   27.6806250000000         3.640412386925998E-112
   27.8943750000000         4.779792207298673E-111
   28.1081250000000         1.568393086301293E-110
   28.3218750000000         3.947888063701212E-110
   28.5356250000000         8.735910193963476E-110
   28.7493750000000         1.779320842333303E-109
   28.9631250000000         3.405701584363928E-109
   29.1768750000000         6.190692091401709E-109
   29.3906250000000         1.074381809550747E-108
   29.6043750000000         1.783715360108283E-108
   29.8181250000000         2.830812232532179E-108
   30.0318750000000         4.278395755177834E-108
   30.2456250000000         6.108283486790848E-108
   30.4593750000000         8.107544824048869E-108
   30.6731250000000         9.671015172888736E-108
   30.8868750000000         9.483501812824404E-108
   31.1006250000000         5.043387900961518E-108
   31.3143750000000        -7.999291834726345E-108
   31.5281250000000        -3.668059307571115E-107
   31.7418750000000        -9.164677507335552E-107
   31.9556250000000        -1.879292623963232E-106
   32.1693750000000        -3.450963062954592E-106
   32.3831250000000        -5.859533482308867E-106
   32.5968750000000        -9.324886281617149E-106
   32.8106250000000        -1.397194544202624E-105
   33.0243750000000        -1.967337872823321E-105
   33.2381250000000        -2.579409612402487E-105
   33.4518750000000        -3.081212520934959E-105
   33.6656250000000        -3.180372953735147E-105
   33.8793750000000        -2.381193551205762E-105
   34.0931250000000         8.251890589059788E-107
   34.3068750000000         5.302040186385998E-105
   34.5206250000000         1.470669723756703E-104
   34.7343750000000         2.999116089131265E-104
   34.9481250000000         5.289793955758001E-104
   35.1618750000000         8.478579195866954E-104
   35.3756250000000         1.259171501993084E-103
   35.5893750000000         1.744222108853755E-103
   35.8031250000000         2.249534346295718E-103
   36.0168750000000         2.671358104200880E-103
   36.2306250000000         2.840359677017889E-103
   36.4443750000000         2.509833057268185E-103
   36.6581250000000         1.351095404727600E-103
   36.8718750000000        -1.041806171941495E-103
   37.0856250000000        -5.140750549004762E-103
   37.2993750000000        -1.147754053178576E-102
   37.5131250000000        -2.066911571154568E-102
   37.7268750000000        -3.351550370037303E-102
   37.9406250000000        -5.122108671307586E-102
   38.1543750000000        -7.577513070372442E-102
   38.3681250000000        -1.104604726756118E-101
   38.5818750000000        -1.602987098989275E-101
   38.7956250000000        -2.319377089317537E-101
   39.0093750000000        -3.320025276633485E-101
   39.2231250000000        -4.622646899044591E-101
   39.4368750000000        -6.092351212417384E-101
   39.6506250000000        -7.252308472519629E-101
   39.8643750000000        -6.981663335157157E-101
   40.0781250000000        -3.092241984775050E-101
   40.2918750000000         8.174512221099484E-101
   40.5056250000000         3.259097280606777E-100
   40.7193750000000         7.802476921673968E-100
   40.9331250000000         1.536195985138235E-099
   41.1468750000000         2.672422507478580E-099
   41.3606250000000         4.200707917196007E-099
   41.5743750000000         5.970459395976564E-099
   41.7881250000000         7.521378881642773E-099
   42.0018750000000         7.883700698691552E-099
   42.2156250000000         5.347925991804625E-099
   42.4293750000000        -2.733239035299076E-099
   42.6431250000000        -1.998441795582985E-098
   42.8568750000000        -5.067553799967037E-098
   43.0706250000000        -9.870465097514996E-098
   43.2843750000000        -1.654936014799399E-097
   43.4981250000000        -2.463696600661154E-097
   43.7118750000000        -3.251296608058506E-097
   43.9256250000000        -3.668765450774101E-097
   44.1393750000000        -3.100323401704681E-097
   44.3531250000000        -5.981838960964236E-098
   44.5668750000000         5.124538854082420E-097
   44.7806250000000         1.557289144402135E-096
   44.9943750000000         3.212255695799593E-096
   45.2081250000000         5.532535180542933E-096
   45.4218750000000         8.374841903732530E-096
   45.6356250000000         1.122766203719239E-095
   45.8493750000000         1.299376498201742E-095
   46.0631250000000         1.175590054917270E-095
   46.2768750000000         4.596916926637866E-096
   46.4906250000000        -1.239757995874251E-095
   46.7043750000000        -4.375621969296444E-095
   46.9181250000000        -9.359075876513228E-095
   47.1318750000000        -1.636046923288895E-094
   47.3456250000000        -2.498537421935557E-094
   47.5593750000000        -3.381262123694714E-094
   47.7731250000000        -3.981778429497239E-094
   47.9868750000000        -3.777171330317756E-094
   48.2006250000000        -1.980559792384852E-094
   48.4143750000000         2.452850836457001E-094
   48.6281250000000         1.072128625524465E-093
   48.8418750000000         2.390978284254793E-093
   49.0556250000000         4.249046290720655E-093
   49.2693750000000         6.552910862452458E-093
   49.4831250000000         8.957923776734258E-093
   49.6968750000000         1.073344940224448E-092
   49.9106250000000         1.062633743781217E-092
   50.1243750000000         6.767633640991621E-093
   50.3381250000000        -3.303264557154123E-093
   50.5518750000000        -2.239057006047272E-092
   50.7656250000000        -5.303647873066519E-092
   50.9793750000000        -9.641580323909375E-092
   51.1931250000000        -1.506196922951876E-091
   51.4068750000000        -2.083143399785268E-091
   51.6206250000000        -2.539533455253211E-091
   51.8343750000000        -2.610361218361935E-091
   52.0481250000000        -1.903482783214269E-091
   52.2618750000000         9.332383401552265E-093
   52.4756250000000         3.960115256303645E-091
   52.6893750000000         1.022256911498663E-090
   52.9031250000000         1.913484700796923E-090
   53.1168750000000         3.035022893991252E-090
   53.3306250000000         4.248220033178113E-090
   53.5443750000000         5.259557745196334E-090
   53.7581250000000         5.572430480420788E-090
   53.9718750000000         4.458941145250471E-090
   54.1856250000000         9.780402816327941E-091
   54.3993750000000        -5.925075181948329E-090
   54.6131250000000        -1.719819204241138E-089
   54.8268750000000        -3.330252171387093E-089
   55.0406250000000        -5.365335997858220E-089
   55.2543750000000        -7.589663253983523E-089
   55.4681250000000        -9.509957316434997E-089
   55.6818750000000        -1.030247372494230E-088
   55.8956250000000        -8.777171579742018E-089
   56.1093750000000        -3.419539878718256E-089
   56.3231250000000         7.438622786803526E-089
   56.5368750000000         2.526452206697911E-088
   56.7506250000000         5.074036920757123E-088
   56.9643750000000         8.293498640564405E-088
   57.1781250000000         1.182743514486400E-087
   57.3918750000000         1.494456363455426E-087
   57.6056250000000         1.644920335933663E-087
   57.8193750000000         1.464985465204114E-087
   58.0331250000000         7.440631254194060E-088
   58.2468750000000        -7.441798093172059E-088
   58.4606250000000        -3.192507799278009E-087
   58.6743750000000        -6.683131130571665E-087
   58.8881250000000        -1.108356493971328E-086
   59.1018750000000        -1.592352003644907E-086
   59.3156250000000        -2.027184985820914E-086
   59.5293750000000        -2.264582911241887E-086
   59.7431250000000        -2.099879700156970E-086
   59.9568750000000        -1.284316407458049E-086
   60.1706250000000         4.430729622283960E-087
   60.3843750000000         3.298910164548519E-086
   60.5981250000000         7.372043162033234E-086
   60.8118750000000         1.251624148622230E-085
   61.0256250000000         1.822970652325733E-085
   61.2393750000000         2.354182129513664E-085
   61.4531250000000         2.693818028202428E-085
   61.6668750000000         2.636441556601681E-085
   61.8806250000000         1.935484163934202E-085
   62.0943750000000         3.330114573003272E-086
   62.3081250000000        -2.390441780864452E-085
   62.5218750000000        -6.345378717820061E-085
   62.7356250000000        -1.144559429390721E-084
   62.9493750000000        -1.731181684921036E-084
   63.1631250000000        -2.318136885427246E-084
   63.3768750000000        -2.784440757204556E-084
   63.5906250000000        -2.963210093592849E-084
   63.8043750000000        -2.648455412039550E-084
   64.0181250000000        -1.612528415337886E-084
   64.2318750000000         3.636373640020905E-085
   64.4456250000000         3.446394787843864E-084
   64.6593750000000         7.691833177999254E-084
   64.8731250000000         1.297740633696347E-083
   65.0868750000000         1.892804607777002E-083
   65.3006250000000         2.484542722295852E-083
   65.5143750000000         2.965309608730568E-083
   65.7281250000000         3.187480533819655E-083
   65.9418750000000         2.966813573035841E-083
   66.1556250000000         2.093915892600610E-083
   66.3693750000000         3.564333696646301E-084
   66.5831250000000        -2.426025172957792E-083
   66.7968750000000        -6.353879258678151E-083
   67.0106250000000        -1.138920519898020E-082
   67.2243750000000        -1.729429210783837E-082
   67.4381250000000        -2.357997366863918E-082
   67.6518750000000        -2.948165591911746E-082
   67.8656250000000        -3.398282851044398E-082
   68.0793750000000        -3.590058768559137E-082
   68.2931250000000        -3.403085540732265E-082
   68.5068750000000        -2.731915538644260E-082
   68.7206250000000        -1.497639268983102E-082
   68.9343750000000         3.594034717922150E-083
   69.1481250000000         2.923189456045022E-082
   69.3618750000000         6.398666398013247E-082
   69.5756250000000         1.126833036600116E-081
   69.7893750000000         1.849083473064637E-081
   70.0031250000000         2.967996236002302E-081
   70.2168750000000         4.713911543687685E-081
   70.4306250000000         7.355148252712162E-081
   70.6443750000000         1.110592389682320E-080
   70.8581250000000         1.594426599152141E-080
   71.0718750000000         2.131849132530672E-080
   71.2856250000000         2.574454672508435E-080
   71.4993750000000         2.634272978132702E-080
   71.7131250000000         1.843456039681923E-080
   71.9268750000000        -4.584137797315752E-081
   72.1406250000000        -5.077367391005473E-080
   72.3543750000000        -1.281808062859165E-079
   72.5681250000000        -2.419510430195962E-079
   72.7818750000000        -3.897253528318206E-079
   72.9956250000000        -5.553530571182418E-079
   73.2093750000000        -7.015564676969784E-079
   73.4231250000000        -7.630881100393046E-079
   73.6368750000000        -6.430768331057062E-079
   73.8506250000000        -2.164896043389181E-079
   74.0643750000000         6.543982684549263E-079
   74.2781250000000         2.087453188251243E-078
   74.4918750000000         4.127271797251289E-078
   74.7056250000000         6.670627772662320E-078
   74.9193750000000         9.376832661918155E-078
   75.1331250000000         1.157845317906917E-077
   75.3468750000000         1.221970689304609E-077
   75.5606250000000         9.862499298972386E-078
   75.7743750000000         2.810231006070762E-078
   75.9881250000000        -1.059766539940867E-077
   76.2018750000000        -3.147820226697628E-077
   76.4156250000000        -5.967296741982167E-077
   76.6293750000000        -9.283713182379800E-077
   76.8431250000000        -1.254787458939911E-076
   77.0568750000000        -1.481848383694928E-076
   77.2706250000000        -1.473863568183054E-076
   77.4843750000000        -1.061110865457857E-076
   77.6981250000000        -6.212377171183523E-078
   77.9118750000000         1.675088992155668E-076
   78.1256250000000         4.211056437331437E-076
   78.3393750000000         7.434684758532340E-076
   78.5531250000000         1.097421841560719E-075
   78.7668750000000         1.411727262622042E-075
   78.9806250000000         1.576743835156906E-075
   79.1943750000000         1.447342487611856E-075
   79.4081250000000         8.571111966024531E-076
   79.6218750000000        -3.524554016396733E-076
   79.8356250000000        -2.285628091860178E-075
   80.0493750000000        -4.929913731080642E-075
   80.2631250000000        -8.083074753216213E-075
   80.4768750000000        -1.128181208771310E-074
   80.6906250000000        -1.375145984329223E-074
   80.9043750000000        -1.440281702346354E-074
   81.1181250000000        -1.190653965970385E-074
   81.3318750000000        -4.874716740346936E-075
   81.5456250000000         7.829551607932616E-075
   81.7593750000000         2.665319136809293E-074
   81.9731250000000         5.081500480258138E-074
   82.1868750000000         7.774160988723413E-074
   82.4006250000000         1.026014093046120E-073
   82.6143750000000         1.181106536546496E-073
   82.8281250000000         1.148224772039101E-073
   83.0418750000000         8.211634092686508E-074
   83.2556250000000         1.006227649922096E-074
   83.4693750000000        -1.077766470836962E-073
   83.6831250000000        -2.707313403616696E-073
   83.8968750000000        -4.670017903873541E-073
   84.1106250000000        -6.699493662707534E-073
   84.3243750000000        -8.357794827073899E-073
   84.5381250000000        -9.039696089204118E-073
   84.7518750000000        -8.019138326277589E-073
   84.9656250000000        -4.550841207151929E-073
   85.1793750000000         1.965705665635789E-073
   85.3931250000000         1.176342838974190E-072
   85.6068750000000         2.444553115986562E-072
   85.8206250000000         3.872372651583458E-072
   86.0343750000000         5.221849742678037E-072
   86.2481250000000         6.140256101886188E-072
   86.4618750000000         6.177975195570354E-072
   86.6756250000000         4.838688821810059E-072
   86.8893750000000         1.667837632145661E-072
   87.1031250000000        -3.620361656662936E-072
   87.3168750000000        -1.098589244639045E-071
   87.5306250000000        -1.989603501265325E-071
   87.7443750000000        -2.918177454415834E-071
   87.9581250000000        -3.696298179235892E-071
   88.1718750000000        -4.069600600793582E-071
   88.3856250000000        -3.739733425584685E-071
   88.5993750000000        -2.408454146615165E-071
   88.8131250000000         1.552697494565612E-072
   89.0268750000000         4.028490123299660E-071
   89.2406250000000         9.037393182964381E-071
   89.4543750000000         1.466705279449869E-070
   89.6681250000000         2.000157765431777E-070
   89.8818750000000         2.372349368225060E-070
   90.0956250000000         2.420223226077106E-070
   90.3093750000000         1.969630942918189E-070
   90.5231250000000         8.680279958674094E-071
   90.7368750000000        -9.715082971487315E-071
   90.9506250000000        -3.519192861573593E-070
   91.1643750000000        -6.578260537227908E-070
   91.3781250000000        -9.746962726053456E-070
   91.5918750000000        -1.240696545925909E-069
   91.8056250000000        -1.375302959563858E-069
   92.0193750000000        -1.287660972006136E-069
   92.2331250000000        -8.909914794105621E-070
   92.4468750000000        -1.226680179037008E-070
   92.6606250000000         1.031812131362954E-069
   92.8743750000000         2.514359937009176E-069
   93.0881250000000         4.174289452106251E-069
   93.3018750000000         5.758860352906817E-069
   93.5156250000000         6.920699860543586E-069
   93.7293750000000         7.247385102907263E-069
   93.9431250000000         6.315834230940061E-069
   94.1568750000000         3.769918386252747E-069
   94.3706250000000        -5.857729732347383E-070
   94.5843750000000        -6.688991704600273E-069
   94.7981250000000        -1.413779024173088E-068
   95.0118750000000        -2.214420244122366E-068
   95.2256250000000        -2.954333331727144E-068
   95.4393750000000        -3.487142239071925E-068
   95.6531250000000        -3.651515906404590E-068
   95.8668750000000        -3.291930686633767E-068
   96.0806250000000        -2.282345937403602E-068
   96.2943750000000        -5.486045091878361E-069
   96.5081250000000         1.914993222594619E-068
   96.7218750000000         5.038418925611483E-068
   96.9356250000000         8.678596349669787E-068
   97.1493750000000         1.262820872162735E-067
   97.3631250000000         1.662146680400622E-067
   97.5768750000000         2.032300356878945E-067
   97.7906250000000         2.328436908701308E-067
   98.0043750000000         2.485663782827723E-067
   98.2181250000000         2.406001045865535E-067
   98.4318750000000         1.943349761410502E-067
   98.6456250000000         8.919037771336313E-068
   98.8593750000000        -1.012955632721068E-067
   99.0731250000000        -4.069032828079492E-067
   99.2868750000000        -8.543229134336955E-067
   99.5006250000000        -1.455720979745441E-066
   99.7143750000000        -2.191820617778284E-066
   99.9281250000000        -2.990413259071370E-066
   100.141875000000        -3.703305681763419E-066
   100.355625000000        -4.087366773664882E-066
   100.569375000000        -3.798197580216580E-066
   100.783125000000        -2.407339714011517E-066
   100.996875000000         5.450933106526673E-067
   101.210625000000         5.452091856924699E-066
   101.424375000000         1.249085188598939E-065
   101.638125000000         2.142851290981050E-065
   101.851875000000         3.140281564754714E-065
   102.065625000000         4.071720342159318E-065
   102.279375000000         4.671096968078678E-065
   102.493125000000         4.578383962299257E-065
   102.706875000000         3.366492722935746E-065
   102.920625000000         6.011001183942834E-066
   103.134375000000        -4.060932011135288E-065
   103.348125000000        -1.073470093529855E-064
   103.561875000000        -1.914125501126252E-064
   103.775625000000        -2.843388814482460E-064
   103.989375000000        -3.705229417965720E-064
   104.203125000000        -4.265402458455496E-064
   104.416875000000        -4.218310609002442E-064
   104.630625000000        -3.213839727792071E-064
   104.844375000000        -9.094541458733975E-065
   105.058125000000         2.949831926446194E-064
   105.271875000000         8.425677043658929E-064
   105.485625000000         1.526365486712597E-063
   105.699375000000         2.277080062318846E-063
   105.913125000000         2.971999158202353E-063
   106.126875000000         3.431617030641182E-063
   106.340625000000         3.426494523870391E-063
   106.554375000000         2.698399243898681E-063
   106.768125000000         9.989058593801653E-064
   106.981875000000        -1.853334741070238E-063
   107.195625000000        -5.898689102330047E-063
   107.409375000000        -1.095252080644376E-062
   107.623125000000        -1.652304073538707E-062
   107.836875000000        -2.174882671219454E-062
   108.050625000000        -2.537898038571863E-062
   108.264375000000        -2.582204767031866E-062
   108.478125000000        -2.128933170452805E-062
   108.691875000000        -1.005233777841849E-062
   108.905625000000         9.178721563467901E-063
   109.119375000000         3.676908490374357E-062
   109.333125000000         7.160830556271466E-062
   109.546875000000         1.105700728502174E-061
   109.760625000000         1.480955318857254E-061
   109.974375000000         1.760448935682669E-061
   110.188125000000         1.839819853348291E-061
   110.401875000000         1.600538021621897E-061
   110.615625000000         9.259144380241178E-062
   110.829375000000        -2.751933307943673E-062
   111.043125000000        -2.037760775537737E-061
   111.256875000000        -4.305579022492595E-061
   111.470625000000        -6.896461369878348E-061
   111.684375000000        -9.474534368676284E-061
   111.898125000000        -1.153847987105220E-060
   112.111875000000        -1.243586084335057E-060
   112.325625000000        -1.141358243357487E-060
   112.539375000000        -7.712469679932343E-061
   112.753125000000        -7.093204283095497E-062
   112.966875000000         9.897721863381687E-061
   113.180625000000         2.387497290117263E-060
   113.394375000000         4.023721284263490E-060
   113.608125000000         5.707024404958076E-060
   113.821875000000         7.144429084488246E-060
   114.035625000000         7.947810917513663E-060
   114.249375000000         7.661336778504782E-060
   114.463125000000         5.814701496165950E-060
   114.676875000000         2.004282051344082E-060
   114.890625000000        -3.999967965655264E-060
   115.104375000000        -1.212994167778432E-059
   115.318125000000        -2.189225192256679E-059
   115.531875000000        -3.226115285813715E-059
   115.745625000000        -4.162072965960781E-059
   115.959375000000        -4.778971060667496E-059
   116.173125000000        -4.816200147454962E-059
   116.386875000000        -3.998947758078998E-059
   116.600625000000        -2.081911448028085E-059
   116.814375000000         1.092659375253564E-059
   117.028125000000         5.526829100318590E-059
   117.241875000000         1.099670957663220E-058
   117.455625000000         1.699190732494750E-058
   117.669375000000         2.267992773901523E-058
   117.883125000000         2.691285740723044E-058
   118.096875000000         2.829346157103920E-058
   118.310625000000         2.531446691344067E-058
   118.524375000000         1.657752808272422E-058
   118.738125000000         1.086889546755730E-059
   118.951875000000        -2.140262172206375E-058
   119.165625000000        -5.002174468173367E-058
   119.379375000000        -8.246427182837036E-058
   119.593125000000        -1.147793533882792E-057
   119.806875000000        -1.413620840072403E-057
   120.020625000000        -1.552252921146759E-057
   120.234375000000        -1.486203233085022E-057
   120.448125000000        -1.140418245750747E-057
   120.661875000000        -4.559989995900041E-058
   120.875625000000         5.932589471650389E-058
   121.089375000000         1.983173022108901E-057
   121.303125000000         3.622835746172234E-057
   121.516875000000         5.342881534906499E-057
   121.730625000000         6.892093051979657E-057
   121.944375000000         7.946133803382319E-057
   122.158125000000         8.131646234632518E-057
   122.371875000000         7.067679956122533E-057
   122.585625000000         4.424356911359169E-057
   122.799375000000        -4.111503867036198E-060
   123.013125000000        -6.218284559085584E-057
   123.226875000000        -1.393402586303178E-056
   123.440625000000        -2.251782204710453E-056
   123.654375000000        -3.095246563315732E-056
   123.868125000000        -3.784963613471172E-056