  -1.60312500000000         0.000000000000000E+000
  -1.38937500000000         0.000000000000000E+000
  -1.17562500000000         0.000000000000000E+000
 -0.961875000000000         0.000000000000000E+000
 -0.748125000000000         0.000000000000000E+000
 -0.534375000000000         0.000000000000000E+000
 -0.320625000000000         0.000000000000000E+000
 -0.106875000000000         0.000000000000000E+000
  0.106875000000000         0.000000000000000E+000
  0.320625000000000         0.000000000000000E+000
  0.534375000000000         0.000000000000000E+000
  0.748125000000000         0.000000000000000E+000
  0.961875000000000         0.000000000000000E+000
   1.17562500000000         0.000000000000000E+000
   1.38937500000000         0.000000000000000E+000
   1.60312500000000         0.000000000000000E+000
   1.81687500000000         0.000000000000000E+000
   2.03062500000000         0.000000000000000E+000
   2.24437500000000         0.000000000000000E+000
   2.45812500000000         0.000000000000000E+000
   2.67187500000000         0.000000000000000E+000
   2.88562500000000         0.000000000000000E+000
   3.09937500000000         0.000000000000000E+000
   3.31312500000000         0.000000000000000E+000
   3.52687500000000         0.000000000000000E+000
   3.74062500000000         0.000000000000000E+000
   3.95437500000000         0.000000000000000E+000
   4.16812500000000         0.000000000000000E+000
   4.38187500000000         0.000000000000000E+000
   4.59562500000000         0.000000000000000E+000
   4.80937500000000         0.000000000000000E+000
   5.02312500000000         0.000000000000000E+000
   5.23687500000000         0.000000000000000E+000
   5.45062500000000         0.000000000000000E+000
   5.66437500000000         0.000000000000000E+000
   5.87812500000000         0.000000000000000E+000
   6.09187500000000         0.000000000000000E+000
   6.30562500000000         0.000000000000000E+000
   6.51937500000000         0.000000000000000E+000
   6.73312500000000         0.000000000000000E+000
   6.94687500000000         0.000000000000000E+000
   7.16062500000000         0.000000000000000E+000
   7.37437500000000         0.000000000000000E+000
   7.58812500000000         0.000000000000000E+000
   7.80187500000000         0.000000000000000E+000
   8.01562500000000         0.000000000000000E+000
   8.22937500000000         0.000000000000000E+000
   8.44312500000000         0.000000000000000E+000
   8.65687500000000         0.000000000000000E+000
   8.87062500000000         0.000000000000000E+000
   9.08437500000000         0.000000000000000E+000
   9.29812500000000         0.000000000000000E+000
   9.51187500000000         0.000000000000000E+000
   9.72562500000000         0.000000000000000E+000
   9.93937500000000         0.000000000000000E+000
   10.1531250000000         0.000000000000000E+000
   10.3668750000000        -1.917911583911533E-224
   10.5806250000000        -3.119260008350639E-219
   10.7943750000000         3.111687671246364E-217
   11.0081250000000        -8.759482296786994E-213
   11.2218750000000        -9.578563660724853E-211
   11.4356250000000        -4.832588238317641E-209
   11.6493750000000        -1.346328383213872E-207
   11.8631250000000        -1.581972651335117E-206
   12.0768750000000         3.558972430089642E-205
   12.2906250000000         2.397720624430164E-203
   12.5043750000000         7.204382428211139E-202
   12.7181250000000         1.548226263826619E-200
   12.9318750000000         2.654878434665766E-199
   13.1456250000000         3.810034132343994E-198
   13.3593750000000         4.696914158648654E-197
   13.5731250000000         5.050723399543564E-196
   13.7868750000000         4.776414951587587E-195
   14.0006250000000         3.978863709427495E-194
   14.2143750000000         2.899215837968178E-193
   14.4281250000000         1.805503225623674E-192
   14.6418750000000         8.988575508553833E-192
   14.8556250000000         2.717850076875324E-191
   15.0693750000000        -8.132559912420682E-191
   15.2831250000000        -2.247082661745766E-189
   15.4968750000000        -2.391264823738405E-188
   15.7106250000000        -1.933514396071054E-187
   15.9243750000000        -1.327185385093674E-186
   16.1381250000000        -8.017821114832739E-186
   16.3518750000000        -4.306601639438775E-185
   16.5656250000000        -2.040530613377069E-184
   16.7793750000000        -8.230710901534242E-184
   16.9931250000000        -2.505923650729642E-183
   17.2068750000000        -2.345443929377905E-183
   17.4206250000000         4.316596681596035E-182
   17.6343750000000         4.747236586676107E-181
   17.8481250000000         3.438503655698630E-180
   18.0618750000000         2.086316742052013E-179
   18.2756250000000         1.134054493257753E-178
   18.4893750000000         5.684242676429263E-178
   18.7031250000000         2.667570244401561E-177
   18.9168750000000         1.182751988953745E-176
   19.1306250000000         4.983129559291031E-176
   19.3443750000000         2.002484700899601E-175
   19.5581250000000         7.693608550767159E-175
   19.7718750000000         2.829828360990330E-174
   19.9856250000000         9.968301972529501E-174
   20.1993750000000         3.360781654050393E-173
   20.4131250000000         1.082454540665390E-172
   20.6268750000000         3.318679724270533E-172
   20.8406250000000         9.623428254017070E-172
   21.0543750000000         2.609252575778697E-171
   21.2681250000000         6.469473416657583E-171
   21.4818750000000         1.394885527474669E-170
   21.6956250000000         2.233463616789704E-170
   21.9093750000000         3.171153059529627E-171
   22.1231250000000        -1.838302653079548E-169
   22.3368750000000        -1.094565124356983E-168
   22.5506250000000        -4.687924814522308E-168
   22.7643750000000        -1.733559180774852E-167
   22.9781250000000        -5.850503733245739E-167
   23.1918750000000        -1.845738286082887E-166
   23.4056250000000        -5.510068579395875E-166
   23.6193750000000        -1.566677425043718E-165
   23.8331250000000        -4.256218248961539E-165
   24.0468750000000        -1.105680715028910E-164
   24.2606250000000        -2.742540251674431E-164
   24.4743750000000        -6.467537001698113E-164
   24.6881250000000        -1.437633553569647E-163
   24.9018750000000        -2.961795929753651E-163
   25.1156250000000        -5.453777748967710E-163
   25.3293750000000        -8.132912232490434E-163
   25.5431250000000        -5.881982894811336E-163
   25.7568750000000         2.091181142552804E-162
   25.9706250000000         1.347074105007096E-161
   26.1843750000000         5.147672715510019E-161
   26.3981250000000         1.639585262766416E-160
   26.6118750000000         4.714492915948623E-160
   26.8256250000000         1.262458401226128E-159
   27.0393750000000         3.194594793040284E-159
   27.2531250000000         7.692613525709285E-159
   27.4668750000000         1.767138672753597E-158
   27.6806250000000         3.868129176573760E-158
   27.8943750000000         8.025262427298528E-158
   28.1081250000000         1.559669435393545E-157
   28.3218750000000         2.769493813354640E-157
   28.5356250000000         4.230360676698977E-157
   28.7493750000000         4.496167599948032E-157
   28.9631250000000        -1.739132295499428E-157
   29.1768750000000        -3.037211290639878E-156
   29.3906250000000        -1.241270206858787E-155
   29.6043750000000        -3.896697948640340E-155
   29.8181250000000        -1.078353927613560E-154
   30.0318750000000        -2.753513994206959E-154
   30.2456250000000        -6.619474174056140E-154
   30.4593750000000        -1.513076110909738E-153
   30.6731250000000        -3.303658042149582E-153
   30.8868750000000        -6.897972675859653E-153
   31.1006250000000        -1.374771767185035E-152
   31.3143750000000        -2.601150314014205E-152
   31.5281250000000        -4.621043268009282E-152
   31.7418750000000        -7.539399787105507E-152
   31.9556250000000        -1.073922145167676E-151
   32.1693750000000        -1.138934912655471E-151
   32.3831250000000        -9.723700839694375E-153
   32.5968750000000         4.217062916424008E-151
   32.8106250000000         1.677866848042372E-150
   33.0243750000000         4.817627488219211E-150
   33.2381250000000         1.195167850542306E-149
   33.4518750000000         2.702919127595993E-149
   33.6656250000000         5.695415260231382E-149
   33.8793750000000         1.128494674867243E-148
   34.0931250000000         2.107029891063438E-148
   34.3068750000000         3.692983117326309E-148
   34.5206250000000         6.006217004329398E-148
   34.7343750000000         8.829020361462392E-148
   34.9481250000000         1.097898903592699E-147
   35.1618750000000         9.009869775022208E-148
   35.3756250000000        -5.247148917183041E-148
   35.5893750000000        -4.896317921046397E-147
   35.8031250000000        -1.551205298155766E-146
   36.0168750000000        -3.821807258515694E-146
   36.2306250000000        -8.255491333828236E-146
   36.4443750000000        -1.626329766594106E-145
   36.6581250000000        -2.965740136774467E-145
   36.8718750000000        -5.020512905309692E-145
   37.0856250000000        -7.833122670854882E-145
   37.2993750000000        -1.101896209945409E-144
   37.5131250000000        -1.319185757359729E-144
   37.7268750000000        -1.094775227672602E-144
   37.9406250000000         2.774696114808619E-145
   38.1543750000000         4.109593970196504E-144
   38.3681250000000         1.263215563938343E-143
   38.5818750000000         2.933304631606562E-143
   38.7956250000000         5.919400147925917E-143
   39.0093750000000         1.085539185284224E-142
   39.2231250000000         1.840992083798019E-142
   39.4368750000000         2.901266165355092E-142
   39.6506250000000         4.226745076597686E-142
   39.8643750000000         5.582438803549530E-142
   40.0781250000000         6.333926487158827E-142
   40.2918750000000         5.091167308200541E-142
   40.5056250000000        -8.976997231992216E-143
   40.7193750000000        -1.675037693019303E-141
   40.9331250000000        -5.154525314330988E-141
   41.1468750000000        -1.206777021333033E-140
   41.3606250000000        -2.488996595028802E-140
   41.5743750000000        -4.731568073050866E-140
   41.7881250000000        -8.423752958687168E-140
   42.0018750000000        -1.407322399333435E-139
   42.2156250000000        -2.186468713166283E-139
   42.4293750000000        -3.082652999512892E-139
   42.6431250000000        -3.711221524272796E-139
   42.8568750000000        -3.088430431737629E-139
   43.0706250000000         8.668698187407819E-140
   43.2843750000000         1.201669601269824E-138
   43.4981250000000         3.673016729354328E-138
   43.7118750000000         8.420910278114740E-138
   43.9256250000000         1.654340871110330E-137
   44.1393750000000         2.889444088575015E-137
   44.3531250000000         4.506740403537277E-137
   44.5668750000000         6.142592719421078E-137
   44.7806250000000         6.784724559370662E-137
   44.9943750000000         4.312959805205793E-137
   45.2081250000000        -5.019862182798712E-137
   45.4218750000000        -2.693553202532873E-136
   45.6356250000000        -6.881653270928274E-136
   45.8493750000000        -1.378885363196692E-135
   46.0631250000000        -2.366939866576357E-135
   46.2768750000000        -3.544887156748631E-135
   46.4906250000000        -4.536330630930601E-135
   46.7043750000000        -4.517033248535381E-135
   46.9181250000000        -2.036574579306652E-135
   47.1318750000000         5.054762788328440E-135
   47.3456250000000         1.938461703553123E-134
   47.5593750000000         4.326532850598338E-134
   47.7731250000000         7.700991321841368E-134
   47.9868750000000         1.161343164630287E-133
   48.2006250000000         1.475885446034661E-133
   48.4143750000000         1.459383706406291E-133
   48.6281250000000         7.169153891936723E-134
   48.8418750000000        -1.244013831619219E-133
   49.0556250000000        -4.857901896417836E-133
   49.2693750000000        -1.017966833084815E-132
   49.4831250000000        -1.637668344791399E-132
   49.6968750000000        -2.110644013506729E-132
   49.9106250000000        -2.002612773706604E-132
   50.1243750000000        -6.936395857431979E-133
   50.3381250000000         2.465506718327062E-132
   50.5518750000000         7.760382310058601E-132
   50.7656250000000         1.441294384148428E-131
   50.9793750000000         1.961006987180068E-131
   51.1931250000000         1.752833551882676E-131
   51.4068750000000        -9.927323069477463E-133
   51.6206250000000        -4.697933903499164E-131
   51.8343750000000        -1.284621663740463E-130
   52.0481250000000        -2.406129283276034E-130
   52.2618750000000        -3.502714225316669E-130
   52.4756250000000        -3.770621487064486E-130
   52.6893750000000        -1.785936352369496E-130
   52.9031250000000         4.449529512559250E-130
   53.1168750000000         1.702744888399637E-129
   53.3306250000000         3.692118298128667E-129
   53.5443750000000         6.180448282364602E-129
   53.7581250000000         8.294927302690478E-129
   53.9718750000000         8.189743972660541E-129
   54.1856250000000         2.868586259225311E-129
   54.3993750000000        -1.151635968352125E-128
   54.6131250000000        -3.843236102573963E-128
   54.8268750000000        -7.831153828983185E-128
   55.0406250000000        -1.242102367800928E-127
   55.2543750000000        -1.562075373208978E-127
   55.4681250000000        -1.363069447776046E-127
   55.6818750000000        -7.630406507049434E-129
   55.8956250000000         2.959294777535569E-127
   56.1093750000000         8.216877187943058E-127
   56.3231250000000         1.544624793924384E-126
   56.5368750000000         2.287226786440429E-126
   56.7506250000000         2.626158948181687E-126
   56.9643750000000         1.824507424191526E-126
   57.1781250000000        -1.136924303694188E-126
   57.3918750000000        -7.320014355303299E-126
   57.6056250000000        -1.725511894416915E-125
   57.8193750000000        -2.994122753524386E-125
   58.0331250000000        -4.146222706507578E-125
   58.2468750000000        -4.353649514828908E-125
   58.4606250000000        -2.275422002541994E-125
   58.6743750000000         3.819433404304857E-125
   58.8881250000000         1.555110586507045E-124
   59.1018750000000         3.336454668242269E-124
   59.3156250000000         5.480517596211442E-124
   59.5293750000000         7.229154061049346E-124
   59.7431250000000         7.101446588121203E-124
   59.9568750000000         2.828675140538924E-124
   60.1706250000000        -8.353445188900643E-124
   60.3843750000000        -2.878440523849332E-123
   60.5981250000000        -5.857925559987046E-123
   60.8118750000000        -9.287818403203515E-123
   61.0256250000000        -1.185039696525292E-122
   61.2393750000000        -1.111273445775266E-122
   61.4531250000000        -3.505721625483961E-123
   61.6668750000000         1.511584170149602E-122
   61.8806250000000         4.795211387433330E-122
   62.0943750000000         9.446456309519432E-122
   62.3081250000000         1.463084502942433E-121
   62.5218750000000         1.826531867567949E-121
   62.7356250000000         1.666209737362914E-121
   62.9493750000000         4.594970280437185E-122
   63.1631250000000        -2.376975837765958E-121
   63.3768750000000        -7.258371266015644E-121
   63.5906250000000        -1.403169334317405E-120
   63.8043750000000        -2.141747151241723E-120
   64.0181250000000        -2.639939754977887E-120
   64.2318750000000        -2.381057671671729E-120
   64.4456250000000        -6.537332192012796E-121
   64.6593750000000         3.308998751508643E-120
   64.8731250000000         1.001241271088013E-119
   65.0868750000000         1.916915969154456E-119
   65.3006250000000         2.898631250297746E-119
   65.5143750000000         3.542450486443384E-119
   65.7281250000000         3.175956698551392E-119
   65.9418750000000         8.977603391662452E-120
   66.1556250000000        -4.231264436442069E-119
   66.3693750000000        -1.277841148146015E-118
   66.5831250000000        -2.428022002131889E-118
   66.7968750000000        -3.639019357494523E-118
   67.0106250000000        -4.403864706235832E-118
   67.2243750000000        -3.901464714227582E-118
   67.4381250000000        -1.059839731359709E-118
   67.6518750000000         5.198419650916023E-118
   67.8656250000000         1.545872642239006E-117
   68.0793750000000         2.904280994971934E-117
   68.2931250000000         4.304571188254167E-117
   68.5068750000000         5.143584270381459E-117
   68.7206250000000         4.469619366731339E-117
   68.9343750000000         1.070918055182348E-117
   69.1481250000000        -6.228959456053009E-117
   69.3618750000000        -1.799971804103536E-116
   69.5756250000000        -3.334557201319938E-116
   69.7893750000000        -4.886691759189782E-116
   70.0031250000000        -5.773565155570827E-116
   70.2168750000000        -4.940945515098992E-116
   70.4306250000000        -1.072978579084656E-116
   70.6443750000000         7.075465493260562E-116
   70.8581250000000         2.005811769329242E-115
   71.0718750000000         3.682731888350439E-115
   71.2856250000000         5.365984756126790E-115
   71.4993750000000         6.323311222525692E-115
   71.7131250000000         5.439513288054106E-115
   71.9268750000000         1.337730286690142E-115
   72.1406250000000        -7.272886529569949E-115
   72.3543750000000        -2.096236633673885E-114
   72.5681250000000        -3.866407674612617E-114
   72.7818750000000        -5.660886658871916E-114
   72.9956250000000        -6.742255957221746E-114
   73.2093750000000        -5.991448708238328E-114
   73.4231250000000        -2.026967682094777E-114
   73.6368750000000         6.459021219406818E-114
   73.8506250000000         2.009302432866647E-113
   74.0643750000000         3.794979737165497E-113
   74.2781250000000         5.654331806778892E-113
   74.4918750000000         6.896810743676140E-113
   74.7056250000000         6.466957844020115E-113
   74.9193750000000         3.048130952036805E-113
   75.1331250000000        -4.639398307153511E-113
   75.3468750000000        -1.729812343621536E-112
   75.5606250000000        -3.427836397746687E-112
   75.7743750000000        -5.267504076772514E-112
   75.9881250000000        -6.654130049960544E-112
   76.2018750000000        -6.662149016677689E-112
   76.4156250000000        -4.113579140866320E-112
   76.6293750000000         2.182126624489349E-112
   76.8431250000000         1.298674082058070E-111
   77.0568750000000         2.799453407489946E-111
   77.2706250000000         4.507778943447346E-111
   77.4843750000000         5.960570240020081E-111
   77.6981250000000         6.414609902990477E-111
   77.9118750000000         4.895742040815573E-111
   78.1256250000000         3.701143616199574E-112
   78.3393750000000        -7.931219662249086E-111
   78.5531250000000        -2.003471358798328E-110
   78.7668750000000        -3.464886726239648E-110
   78.9806250000000        -4.862063512542692E-110
   79.1943750000000        -5.663540878521873E-110
   79.4081250000000        -5.143766649964447E-110
   79.6218750000000        -2.486391151665257E-110
   79.8356250000000         3.009597602956985E-110
   80.0493750000000         1.161914392856473E-109
   80.2631250000000         2.280731502617486E-109
   80.4768750000000         3.484769337516725E-109
   80.6906250000000         4.456413938355740E-109
   80.9043750000000         4.735097648944813E-109
   81.1181250000000         3.763041873773622E-109
   81.3318750000000         9.862042004479014E-110
   81.5456250000000        -3.988292611517869E-109
   81.7593750000000        -1.119242296334485E-108
   81.9731250000000        -2.008727792833296E-108
   82.1868750000000        -2.939007165116152E-108
   82.4006250000000        -3.699118376209996E-108
   82.6143750000000        -4.000497964685612E-108
   82.8281250000000        -3.497232455008217E-108
   83.0418750000000        -1.819741061621711E-108
   83.2556250000000         1.382493445372403E-108
   83.4693750000000         6.392428454116199E-108
   83.6831250000000         1.336652259184223E-107
   83.8968750000000         2.224416497141280E-107
   84.1106250000000         3.258149249804768E-107
   84.3243750000000         4.324570066752671E-107
   84.5381250000000         5.190709533541853E-107
   84.7518750000000         5.431506190592771E-107
   84.9656250000000         4.347073272734605E-107
   85.1793750000000         9.034049578788114E-108
   85.3931250000000        -6.238264207204181E-107
   85.6068750000000        -1.850423375851705E-106
   85.8206250000000        -3.688185377390858E-106
   86.0343750000000        -6.097549436638994E-106
   86.2481250000000        -8.761561013264838E-106
   86.4618750000000        -1.091668582617273E-105
   86.6756250000000        -1.119698499370169E-105
   86.8893750000000        -7.573608019769763E-106
   87.1031250000000         2.487798465370542E-106
   87.3168750000000         2.150176054535103E-105
   87.5306250000000         5.092948497406730E-105
   87.7443750000000         8.957408763414040E-105
   87.9581250000000         1.315154576514721E-104
   88.1718750000000         1.639829782182627E-104
   88.3856250000000         1.659500957180735E-104
   88.5993750000000         1.086521906009148E-104
   88.8131250000000        -4.045811513268284E-105
   89.0268750000000        -3.088075702368836E-104
   89.2406250000000        -7.039266403216802E-104
   89.4543750000000        -1.193312263629425E-103
   89.6681250000000        -1.681884856294957E-103
   89.8818750000000        -1.993364228274397E-103
   90.0956250000000        -1.865679359377092E-103
   90.3093750000000        -9.736772579831012E-104
   90.5231250000000         1.006763339539677E-103
   90.7368750000000         4.282717727106402E-103
   90.9506250000000         8.776062002323004E-103
   91.1643750000000         1.392134559405576E-102
   91.3781250000000         1.847413042357231E-102
   91.5918750000000         2.040509567034317E-102
   91.8056250000000         1.698323815351669E-102
   92.0193750000000         5.164722781680741E-103
   92.2331250000000        -1.761336393341752E-102
   92.4468750000000        -5.219963487034408E-102
   92.6606250000000        -9.614501722464426E-102
   92.8743750000000        -1.420442395240411E-101
   93.0881250000000        -1.763042237997996E-101
   93.3018750000000        -1.790634597717522E-101
   93.5156250000000        -1.261245778770528E-101
   93.7293750000000         6.289590531868274E-103
   93.9431250000000         2.335048859212197E-101
   94.1568750000000         5.513987221774209E-101
   94.3706250000000         9.239355419618454E-101
   94.5843750000000         1.272254014008566E-100
   94.7981250000000         1.469903066270783E-100
   95.0118750000000         1.349980172355911E-100
   95.2256250000000         7.299973044224512E-101
   95.4393750000000        -5.414630434439098E-101
   95.6531250000000        -2.516487243106841E-100
   95.8668750000000        -5.065152917409815E-100
   96.0806250000000        -7.794929617768101E-100
   96.2943750000000        -9.998778855577633E-100
   96.5081250000000        -1.066680396881707E-099
   96.7218750000000        -8.598784765113801E-100
   96.9356250000000        -2.647210744802068E-100
   97.1493750000000         7.901519068093722E-100
   97.3631250000000         2.283823341358568E-099
   97.5768750000000         4.051743652013316E-099
   97.7906250000000         5.746111651066408E-099
   98.0043750000000         6.827308997274653E-099
   98.2181250000000         6.607923696319668E-099
   98.4318750000000         4.367756473352128E-099
   98.6456250000000        -4.525602800288347E-100
   98.8593750000000        -7.991300749898213E-099
   99.0731250000000        -1.767828306824684E-098
   99.2868750000000        -2.799157897852164E-098
   99.5006250000000        -3.635761698009782E-098
   99.7143750000000        -3.930774320866265E-098
   99.9281250000000        -3.299083530905824E-098
   100.141875000000        -1.408919087596950E-098
   100.355625000000         1.891251450467892E-098
   100.569375000000         6.429322047055748E-098
   100.783125000000         1.158422973186265E-097
   100.996875000000         1.622722323135499E-097
   101.210625000000         1.878474422924623E-097
   101.424375000000         1.747070503386926E-097
   101.638125000000         1.070932751922216E-097
   101.851875000000        -2.278872386784103E-098
   102.065625000000        -2.082283454878426E-097
   102.279375000000        -4.224860149804815E-097
   102.493125000000        -6.166201375909621E-097
   102.706875000000        -7.232244722339511E-097
   102.920625000000        -6.681534604043448E-097
   103.134375000000        -3.908641766675134E-097
   103.348125000000         1.284966546634436E-097
   103.561875000000         8.404679143924031E-097
   103.775625000000         1.604866720821266E-096
   103.989375000000         2.188047156663763E-096
   104.203125000000         2.290697114779578E-096
   104.416875000000         1.614697557960160E-096
   104.630625000000        -3.068231157687126E-098
   104.844375000000        -2.596295354686341E-096
   105.058125000000        -5.664303264476553E-096
   105.271875000000        -8.370010988835644E-096
   105.485625000000        -9.432677702883204E-096
   105.699375000000        -7.352074870255980E-096
   105.913125000000        -8.057520069877966E-097
   106.126875000000         1.076506392328023E-095
   106.340625000000         2.646478249160491E-095
   106.554375000000         4.331924768322264E-095
   106.768125000000         5.597251229409375E-095
   106.981875000000         5.700761256695220E-095
   107.195625000000         3.817083381008155E-095
   107.409375000000        -7.352580196709621E-096
   107.623125000000        -8.172451769652949E-095
   107.836875000000        -1.787975057256152E-094
   108.050625000000        -2.809608088978443E-094
   108.264375000000        -3.578420520250991E-094
   108.478125000000        -3.684223427295387E-094
   108.691875000000        -2.679345855486952E-094
   108.905625000000        -2.015822694815593E-095
   109.119375000000         3.856923137048789E-094
   109.333125000000         9.162908535031498E-094
   109.546875000000         1.478816500691092E-093
   109.760625000000         1.915905348742745E-093
   109.974375000000         2.018772455240866E-093
   110.188125000000         1.565000602979825E-093
   110.401875000000         3.831713333460235E-094
   110.615625000000        -1.561157744309690E-093
   110.829375000000        -4.074121673761706E-093
   111.043125000000        -6.664384884720546E-093
   111.256875000000        -8.532994674023881E-093
   111.470625000000        -8.661732552215762E-093
   111.684375000000        -6.030356569007505E-093
   111.898125000000         3.190235625246634E-095
   112.111875000000         9.397720791821237E-093
   112.325625000000         2.068967593497544E-092
   112.539375000000         3.097916738853142E-092
   112.753125000000         3.583734553992724E-092
   112.966875000000         2.994771424045912E-092
   113.180625000000         8.433473164055536E-093
   113.394375000000        -3.109165222615250E-092
   113.608125000000        -8.598028571266406E-092
   113.821875000000        -1.460643848466876E-091
   114.035625000000        -1.921122167687833E-091
   114.249375000000        -1.963821973463117E-091
   114.463125000000        -1.264834991579159E-091
   114.676875000000         4.654807911039459E-092
   114.890625000000         3.358407949189871E-091
   115.104375000000         7.231622451911143E-091
   115.318125000000         1.143300151398248E-090
   115.531875000000         1.473364451188648E-090
   115.745625000000         1.533709254794593E-090
   115.959375000000         1.107825119983640E-090
   116.173125000000        -1.267065473569731E-092
   116.386875000000        -1.955703708598611E-090
   116.600625000000        -4.673840435496587E-090
   116.814375000000        -7.841517493455800E-090
   117.028125000000        -1.077077245827928E-089
   117.241875000000        -1.238281454271215E-089
   117.455625000000        -1.127937494467709E-089
   117.669375000000        -5.955432952003226E-090
   117.883125000000         4.821049178797907E-090
   118.096875000000         2.146981564330000E-089
   118.310625000000         4.295763438178923E-089
   118.524375000000         6.617881178193302E-089
   118.738125000000         8.554708937266894E-089
   118.951875000000         9.304275950544587E-089
   119.165625000000         7.897539427616943E-089
   119.379375000000         3.367610883608691E-089
   119.593125000000        -4.979934522710095E-089
   119.806875000000        -1.721065241526085E-088
   120.020625000000        -3.236591865570129E-088
   120.234375000000        -4.811353847981114E-088
   120.448125000000        -6.056502397275678E-088
   120.661875000000        -6.440392318144167E-088
   120.875625000000        -5.346788537051419E-088
   121.089375000000        -2.188675528263649E-088
   121.303125000000         3.421041175784399E-088
   121.516875000000         1.145478998256642E-087
   121.730625000000         2.124282950056689E-087
   121.944375000000         3.128452308181680E-087
   122.158125000000         3.916775652862852E-087
   122.371875000000         4.167545615085358E-087
   122.585625000000         3.515282166229781E-087
   122.799375000000         1.618227013753540E-087
   123.013125000000        -1.743901612009828E-087
   123.226875000000        -6.550160622465856E-087
   123.440625000000        -1.241457525770994E-086
   123.654375000000        -1.848637356740760E-086
   123.868125000000        -2.341079474568028E-086