  -1.60312500000000         0.000000000000000E+000
  -1.38937500000000         0.000000000000000E+000
  -1.17562500000000         0.000000000000000E+000
 -0.961875000000000         0.000000000000000E+000
 -0.748125000000000         0.000000000000000E+000
 -0.534375000000000         0.000000000000000E+000
 -0.320625000000000         0.000000000000000E+000
 -0.106875000000000         0.000000000000000E+000
  0.106875000000000         0.000000000000000E+000
  0.320625000000000         0.000000000000000E+000
  0.534375000000000         0.000000000000000E+000
  0.748125000000000         0.000000000000000E+000
  0.961875000000000         0.000000000000000E+000
   1.17562500000000         0.000000000000000E+000
   1.38937500000000         0.000000000000000E+000
   1.60312500000000         0.000000000000000E+000
   1.81687500000000         0.000000000000000E+000
   2.03062500000000         0.000000000000000E+000
   2.24437500000000         0.000000000000000E+000
   2.45812500000000         0.000000000000000E+000
   2.67187500000000         0.000000000000000E+000
   2.88562500000000         0.000000000000000E+000
   3.09937500000000         0.000000000000000E+000
   3.31312500000000         0.000000000000000E+000
   3.52687500000000         0.000000000000000E+000
   3.74062500000000         0.000000000000000E+000
   3.95437500000000         0.000000000000000E+000
   4.16812500000000         0.000000000000000E+000
   4.38187500000000         0.000000000000000E+000
   4.59562500000000         0.000000000000000E+000
   4.80937500000000         0.000000000000000E+000
   5.02312500000000         0.000000000000000E+000
   5.23687500000000         0.000000000000000E+000
   5.45062500000000         0.000000000000000E+000
   5.66437500000000         0.000000000000000E+000
   5.87812500000000         0.000000000000000E+000
   6.09187500000000         0.000000000000000E+000
   6.30562500000000         0.000000000000000E+000
   6.51937500000000         0.000000000000000E+000
   6.73312500000000         0.000000000000000E+000
   6.94687500000000         0.000000000000000E+000
   7.16062500000000         0.000000000000000E+000
   7.37437500000000         0.000000000000000E+000
   7.58812500000000         0.000000000000000E+000
   7.80187500000000         0.000000000000000E+000
   8.01562500000000         0.000000000000000E+000
   8.22937500000000         0.000000000000000E+000
   8.44312500000000         0.000000000000000E+000
   8.65687500000000         0.000000000000000E+000
   8.87062500000000         0.000000000000000E+000
   9.08437500000000         0.000000000000000E+000
   9.29812500000000         0.000000000000000E+000
   9.51187500000000         0.000000000000000E+000
   9.72562500000000         0.000000000000000E+000
   9.93937500000000         0.000000000000000E+000
   10.1531250000000         0.000000000000000E+000
   10.3668750000000         1.719099894767684E-224
   10.5806250000000        -2.073228465791152E-218
   10.7943750000000         2.848497530872600E-216
   11.0081250000000        -6.243129106850839E-212
   11.2218750000000        -6.423011254535247E-210
   11.4356250000000        -3.593135245259950E-208
   11.6493750000000        -1.449072310058739E-206
   11.8631250000000        -4.642685412349096E-205
   12.0768750000000        -1.230686836798375E-203
   12.2906250000000        -2.757916630888407E-202
   12.5043750000000        -5.306131025761016E-201
   12.7181250000000        -8.880810203619083E-200
   12.9318750000000        -1.308205269389506E-198
   13.1456250000000        -1.713597883202216E-197
   13.3593750000000        -2.013739016239828E-196
   13.5731250000000        -2.139032710867461E-195
   13.7868750000000        -2.066533197957174E-194
   14.0006250000000        -1.824807883255141E-193
   14.2143750000000        -1.478156285305192E-192
   14.4281250000000        -1.100818824395875E-191
   14.6418750000000        -7.540808649339956E-191
   14.8556250000000        -4.742459528881230E-190
   15.0693750000000        -2.722697543460441E-189
   15.2831250000000        -1.408861429401121E-188
   15.4968750000000        -6.385924478139577E-188
   15.7106250000000        -2.352612091996161E-187
   15.9243750000000        -5.147803932247022E-187
   16.1381250000000         1.627475101447114E-186
   16.3518750000000         3.109553618385285E-185
   16.5656250000000         2.652348178931501E-184
   16.7793750000000         1.780293563943510E-183
   16.9931250000000         1.044223218342429E-182
   17.2068750000000         5.565054331281190E-182
   17.4206250000000         2.745902421977661E-181
   17.6343750000000         1.267418018811002E-180
   17.8481250000000         5.504936613824306E-180
   18.0618750000000         2.257311695920927E-179
   18.2756250000000         8.749372667517060E-179
   18.4893750000000         3.203640058611716E-178
   18.7031250000000         1.105077244032919E-177
   18.9168750000000         3.570150205998764E-177
   19.1306250000000         1.068295715388605E-176
   19.3443750000000         2.896400040357502E-176
   19.5581250000000         6.768622070014101E-176
   19.7718750000000         1.166625026161704E-175
   19.9856250000000         2.099464659538821E-176
   20.1993750000000        -1.046316801679824E-174
   20.4131250000000        -6.490604669759065E-174
   20.6268750000000        -2.847306214978761E-173
   20.8406250000000        -1.061512748489104E-172
   21.0543750000000        -3.549216852877124E-172
   21.2681250000000        -1.087272856628240E-171
   21.4818750000000        -3.078156326918525E-171
   21.6956250000000        -8.069741083914904E-171
   21.9093750000000        -1.955183336552525E-170
   22.1231250000000        -4.363867622348523E-170
   22.3368750000000        -9.001341348738509E-170
   22.5506250000000        -1.778046508983806E-169
   22.7643750000000        -3.824777093578810E-169
   22.9781250000000        -1.103260838288181E-168
   23.1918750000000        -4.285496401387270E-168
   23.4056250000000        -1.824134276446732E-167
   23.6193750000000        -7.470171329171989E-167
   23.8331250000000        -2.840728322981483E-166
   24.0468750000000        -1.001378888771157E-165
   24.2606250000000        -3.290564219897647E-165
   24.4743750000000        -1.013496260058970E-164
   24.6881250000000        -2.936034554439212E-164
   24.9018750000000        -8.007037902016307E-164
   25.1156250000000        -2.050827390395719E-163
   25.3293750000000        -4.898131955638529E-163
   25.5431250000000        -1.073745886484128E-162
   25.7568750000000        -2.084466215899211E-162
   25.9706250000000        -3.243890643630586E-162
   26.1843750000000        -2.380929231635422E-162
   26.3981250000000         9.267939842581933E-162
   26.6118750000000         6.039313477944036E-161
   26.8256250000000         2.345475018086190E-160
   27.0393750000000         7.556903247186361E-160
   27.2531250000000         2.184744914757878E-159
   27.4668750000000         5.842469579327916E-159
   27.6806250000000         1.465299169260765E-158
   27.8943750000000         3.466768112098125E-158
   28.1081250000000         7.741447041108792E-158
   28.3218750000000         1.623971170178710E-157
   28.5356250000000         3.161034597179678E-157
   28.7493750000000         5.551822390718372E-157
   28.9631250000000         8.186525998184620E-157
   29.1768750000000         7.587168922313275E-157
   29.3906250000000        -8.264974972500473E-157
   29.6043750000000        -7.408506168548623E-156
   29.8181250000000        -2.804715400328976E-155
   30.0318750000000        -8.477663786599960E-155
   30.2456250000000        -2.282902294662013E-154
   30.4593750000000        -5.697708265618554E-154
   30.6731250000000        -1.342526202713549E-153
   30.8868750000000        -3.015253252903592E-153
   31.1006250000000        -6.487311893388268E-153
   31.3143750000000        -1.339711645752815E-152
   31.5281250000000        -2.654366410606161E-152
   31.7418750000000        -5.029827047496436E-152
   31.9556250000000        -9.053209536899072E-152
   32.1693750000000        -1.527157000188536E-151
   32.3831250000000        -2.348853900290761E-151
   32.5968750000000        -3.080484523345665E-151
   32.8106250000000        -2.684641824114161E-151
   33.0243750000000         1.688343223064622E-151
   33.2381250000000         1.691934975021607E-150
   33.4518750000000         5.827105726516293E-150
   33.6656250000000         1.574151651179224E-149
   33.8793750000000         3.762804296314203E-149
   34.0931250000000         8.290263101405736E-149
   34.3068750000000         1.712923219271024E-148
   34.5206250000000         3.342909602803866E-148
   34.7343750000000         6.168460652856091E-148
   34.9481250000000         1.071484027053191E-147
   35.1618750000000         1.731675067523066E-147
   35.3756250000000         2.537577641491717E-147
   35.5893750000000         3.164325120482345E-147
   35.8031250000000         2.668322722050502E-147
   36.0168750000000        -1.177916383977006E-147
   36.2306250000000        -1.303484199526689E-146
   36.4443750000000        -4.180678459322043E-146
   36.6581250000000        -1.031816849099667E-145
   36.8718750000000        -2.225890474754212E-145
   37.0856250000000        -4.373704379476717E-145
   37.2993750000000        -7.951766265524184E-145
   37.5131250000000        -1.342487041662468E-144
   37.7268750000000        -2.092283677605440E-144
   37.9406250000000        -2.953243157581494E-144
   38.1543750000000        -3.595148381452044E-144
   38.3681250000000        -3.218966839361244E-144
   38.5818750000000        -1.998836274138805E-145
   38.7956250000000         8.415384388141247E-144
   39.0093750000000         2.754124177819874E-143
   39.2231250000000         6.473868740555558E-143
   39.4368750000000         1.307909182392011E-142
   39.6506250000000         2.399117881660953E-142
   39.8643750000000         4.092429682297623E-142
   40.0781250000000         6.571825975109557E-142
   40.2918750000000         9.997238797141175E-142
   40.5056250000000         1.442660752609427E-141
   40.7193750000000         1.963572768483031E-141
   40.9331250000000         2.467697907170838E-141
   41.1468750000000         2.680951386096767E-141
   41.3606250000000         1.905067177129874E-141
   41.5743750000000        -1.499669062043826E-141
   41.7881250000000        -1.111063709959920E-140
   42.0018750000000        -3.416759934125922E-140
   42.2156250000000        -8.418090245543009E-140
   42.4293750000000        -1.841229046865262E-139
   42.6431250000000        -3.687017956407691E-139
   42.8568750000000        -6.817179169848853E-139
   43.0706250000000        -1.160099360136951E-138
   43.2843750000000        -1.789626374355192E-138
   43.4981250000000        -2.409464097014343E-138
   43.7118750000000        -2.536955003329081E-138
   43.9256250000000        -1.089021230844489E-138
   44.1393750000000         3.992360264616115E-138
   44.3531250000000         1.612136211834263E-137
   44.5668750000000         4.020341868094449E-137
   44.7806250000000         8.199908216946203E-137
   44.9943750000000         1.458122614080528E-136
   45.2081250000000         2.291900098461119E-136
   45.4218750000000         3.131054102042573E-136
   45.6356250000000         3.465198829443637E-136
   45.8493750000000         2.260152144802087E-136
   46.0631250000000        -2.246869805524366E-136
   46.2768750000000        -1.263112514142874E-135
   46.4906250000000        -3.201244363162403E-135
   46.7043750000000        -6.307761349967038E-135
   46.9181250000000        -1.059423665507765E-134
   47.1318750000000        -1.544512564600854E-134
   47.3456250000000        -1.908765246092826E-134
   47.5593750000000        -1.798717536396903E-134
   47.7731250000000        -6.414996256216373E-135
   47.9868750000000         2.333237888961803E-134
   48.2006250000000         7.933027305162269E-134
   48.4143750000000         1.661670476793097E-133
   48.6281250000000         2.781839778035026E-133
   48.8418750000000         3.901344451732172E-133
   49.0556250000000         4.477035870552933E-133
   49.2693750000000         3.638383383211853E-133
   49.4831250000000         3.136116975656957E-134
   49.6968750000000        -6.337441554863703E-133
   49.9106250000000        -1.604286947490936E-132
   50.1243750000000        -2.605552440663030E-132
   50.3381250000000        -2.956066990038352E-132
   50.5518750000000        -1.465382206277061E-132
   50.7656250000000         3.449874197369669E-132
   50.9793750000000         1.317779563942195E-131
   51.1931250000000         2.753835598758928E-131
   51.4068750000000         4.237751472639985E-131
   51.6206250000000         4.620263910979608E-131
   51.8343750000000         1.667809920535223E-131
   52.0481250000000        -8.091018988949048E-131
   52.2618750000000        -2.893255125231201E-130
   52.4756250000000        -6.434340359167653E-130
   52.6893750000000        -1.136021825353822E-129
   52.9031250000000        -1.660769536989859E-129
   53.1168750000000        -1.935357107273895E-129
   53.3306250000000        -1.423702407204105E-129
   53.5443750000000         6.975650580986360E-130
   53.7581250000000         5.449460127645127E-129
   53.9718750000000         1.372734779793222E-128
   54.1856250000000         2.562598629299803E-128
   54.3993750000000         3.934691468674783E-128
   54.6131250000000         4.977967007444675E-128
   54.8268750000000         4.715340471886594E-128
   55.0406250000000         1.661660970728190E-128
   55.2543750000000        -5.985343387059349E-128
   55.4681250000000        -1.973984220437477E-127
   55.6818750000000        -3.964013059000296E-127
   55.8956250000000        -6.243782171418271E-127
   56.1093750000000        -7.943513211670640E-127
   56.3231250000000        -7.478423018278404E-127
   56.5368750000000        -2.580714984915726E-127
   56.7506250000000         9.234449855309184E-127
   56.9643750000000         2.950211611736232E-126
   57.1781250000000         5.675108547690847E-126
   57.3918750000000         8.365587126951931E-126
   57.6056250000000         9.408294418580894E-126
   57.8193750000000         6.163803482746282E-126
   58.0331250000000        -4.754685235723069E-126
   58.2468750000000        -2.640999521825927E-125
   58.4606250000000        -5.930938014683388E-125
   58.6743750000000        -9.785969534091824E-125
   58.8881250000000        -1.259240693034820E-124
   59.1018750000000        -1.129246554475063E-124
   59.3156250000000        -1.340805478702770E-125
   59.5293750000000         2.253884140412760E-124
   59.7431250000000         6.423880543770013E-124
   59.9568750000000         1.223173614463171E-123
   60.1706250000000         1.841799403569354E-123
   60.3843750000000         2.193514109066446E-123
   60.5981250000000         1.744487077267043E-123
   60.8118750000000        -2.535630779569979E-124
   61.0256250000000        -4.614411921713007E-123
   61.2393750000000        -1.185529663203562E-122
   61.4531250000000        -2.156508808951339E-122
   61.6668750000000        -3.152373930250137E-122
   61.8806250000000        -3.675033578532472E-122
   62.0943750000000        -2.889884090604823E-122
   62.3081250000000         3.282041748343619E-123
   62.5218750000000         7.144834770596607E-122
   62.7356250000000         1.820975562678577E-121
   62.9493750000000         3.273531285969395E-121
   63.1631250000000         4.727278421419757E-121
   63.3768750000000         5.447505723210088E-121
   63.5906250000000         4.246143506074245E-121
   63.8043750000000        -4.225362088968052E-122
   64.0181250000000        -1.007975571511140E-120
   64.2318750000000        -2.543163287539299E-120
   64.4456250000000        -4.512067604752153E-120
   64.6593750000000        -6.414585765883868E-120
   64.8731250000000        -7.238043066015705E-120
   65.0868750000000        -5.403090183463657E-120
   65.3006250000000         1.068043792042371E-120
   65.5143750000000         1.400546021576098E-119
   65.7281250000000         3.403272900638577E-119
   65.9418750000000         5.896908898954079E-119
   66.1556250000000         8.190312777345769E-119
   66.3693750000000         8.953133483044550E-119
   66.5831250000000         6.185093902526274E-119
   66.7968750000000        -2.521736271041485E-119
   67.0106250000000        -1.924701778890191E-118
   67.2243750000000        -4.439190274452543E-118
   67.4381250000000        -7.472285916476968E-118
   67.6518750000000        -1.011169944722243E-117
   67.8656250000000        -1.067767696155888E-117
   68.0793750000000        -6.725032489787673E-118
   68.2931250000000         4.588892812126939E-118
   68.5068750000000         2.556785952988765E-117
   68.7206250000000         5.633003625230376E-117
   68.9343750000000         9.249741592514482E-117
   69.1481250000000         1.226247163819952E-116
   69.3618750000000         1.263002478225124E-116
   69.5756250000000         7.448036708584875E-117
   69.7893750000000        -6.584104226140112E-117
   70.0031250000000        -3.204113387060609E-116
   70.2168750000000        -6.885102054715392E-116
   70.4306250000000        -1.116521639163713E-115
   70.6443750000000        -1.469084781779220E-115
   70.8581250000000        -1.508448651190970E-115
   71.0718750000000        -8.994259704542193E-116
   71.2856250000000         7.370418654294283E-116
   71.4993750000000         3.697830752319532E-115
   71.7131250000000         7.984043880942056E-115
   71.9268750000000         1.300877627364318E-114
   72.1406250000000         1.727812574893766E-114
   72.3543750000000         1.815883927678123E-114
   72.5681250000000         1.191689820562995E-114
   72.7818750000000        -5.729936875955807E-115
   72.9956250000000        -3.829262712204384E-114
   73.2093750000000        -8.625991638666066E-114
   73.4231250000000        -1.439924938757314E-113
   73.6368750000000        -1.962718905088862E-113
   73.8506250000000        -2.156341959626049E-113
   74.0643750000000        -1.623393967517672E-113
   74.2781250000000         1.055971136658402E-114
   74.4918750000000         3.444308076248286E-113
   74.7056250000000         8.527228956755979E-113
   74.9193750000000         1.489486236894990E-112
   75.1331250000000         2.113269005948058E-112
   75.3468750000000         2.456871129435910E-112
   75.5606250000000         2.120500115997376E-112
   75.7743750000000         6.121768391785043E-113
   75.9881250000000        -2.538410946550406E-112
   76.2018750000000        -7.572419675294289E-112
   76.4156250000000        -1.419983447654045E-111
   76.6293750000000        -2.123857126209949E-111
   76.8431250000000        -2.628470681576833E-111
   77.0568750000000        -2.557017769033468E-111
   77.2706250000000        -1.422705047884786E-111
   77.4843750000000         1.279070230904484E-111
   77.6981250000000         5.891469015382284E-111
   77.9118750000000         1.232373237915819E-110
   78.1256250000000         1.970971346233317E-110
   78.3393750000000         2.606848863344400E-110
   78.5531250000000         2.809740014403458E-110
   78.7668750000000         2.128762090166524E-110
   78.9806250000000         5.904655543591775E-112
   79.1943750000000        -3.815289249391749E-110
   79.4081250000000        -9.591323130154888E-110
   79.6218750000000        -1.674365676504796E-109
   79.8356250000000        -2.379783281327227E-109
   80.0493750000000        -2.808193292683096E-109
   80.2631250000000        -2.571130107332271E-109
   80.4768750000000        -1.200223043458172E-109
   80.6906250000000         1.748682630558781E-109
   80.9043750000000         6.515480723332240E-109
   81.1181250000000         1.288341527574011E-108
   81.3318750000000         1.988669013769186E-108
   81.5456250000000         2.555036442290305E-108
   81.7593750000000         2.678049899727544E-108
   81.9731250000000         1.956222368982286E-108
   82.1868750000000        -3.615031167367942E-110
   82.4006250000000        -3.619146351435821E-108
   82.6143750000000        -8.812353927533155E-108
   82.8281250000000        -1.509217480757939E-107
   83.0418750000000        -2.114826199572313E-107
   83.2556250000000        -2.472231479316297E-107
   83.4693750000000        -2.264761286647305E-107
   83.6831250000000        -1.122886978932274E-107
   83.8968750000000         1.290842691135981E-107
   84.1106250000000         5.143201133602647E-107
   84.3243750000000         1.024437563346541E-106
   84.5381250000000         1.584172517411679E-106
   84.7518750000000         2.044694643554441E-106
   84.9656250000000         2.177886440896511E-106
   85.1793750000000         1.692602521790981E-106
   85.3931250000000         2.836760476692657E-107
   85.6068750000000        -2.278497801029584E-106
   85.8206250000000        -6.017576011782497E-106
   86.0343750000000        -1.059295646934063E-105
   86.2481250000000        -1.514464171683381E-105
   86.4618750000000        -1.819342666147251E-105
   86.6756250000000        -1.766763479652851E-105
   86.8893750000000        -1.113726352013611E-105
   87.1031250000000         3.672964433962966E-106
   87.3168750000000         2.805852876035994E-105
   87.5306250000000         6.123991278056787E-105
   87.7443750000000         9.915199722977750E-105
   87.9581250000000         1.334135635557073E-104
   88.1718750000000         1.509161647112279E-104
   88.3856250000000         1.345760027088925E-104
   88.5993750000000         6.579985366917449E-105
   88.8131250000000        -7.093848557898196E-105
   89.0268750000000        -2.813884240912720E-104
   89.2406250000000        -5.532764343239254E-104
   89.4543750000000        -8.479564052231512E-104
   89.6681250000000        -1.094328718326345E-103
   89.8818750000000        -1.188231402132008E-103
   90.0956250000000        -1.000922814673613E-103
   90.3093750000000        -3.999091189967707E-104
   90.5231250000000         7.161337390585189E-104
   90.7368750000000         2.369467668681239E-103
   90.9506250000000         4.447773652286145E-103
   91.1643750000000         6.651502325515821E-103
   91.3781250000000         8.459780825569161E-103
   91.5918750000000         9.134427100907233E-103
   91.8056250000000         7.782466619420221E-103
   92.0193750000000         3.493661097004273E-103
   92.2331250000000        -4.440314569528762E-103
   92.4468750000000        -1.623454049214389E-102
   92.6606250000000        -3.127804092295959E-102
   92.8743750000000        -4.781350265658383E-102
   93.0881250000000        -6.270462909448765E-102
   93.3018750000000        -7.138002846797494E-102
   93.5156250000000        -6.804459950103192E-102
   93.7293750000000        -4.623753665568960E-102
   93.9431250000000         2.083464006405383E-104
   94.1568750000000         7.578337112866601E-102
   94.3706250000000         1.815044726733839E-101
   94.5843750000000         3.127469619248329E-101
   94.7981250000000         4.567812263897837E-101
   95.0118750000000         5.901544856941094E-101
   95.2256250000000         6.761961156103535E-101
   95.4393750000000         6.632037742688342E-101
   95.6531250000000         4.843525376430715E-101
   95.8668750000000         6.108864652417640E-102
   96.0806250000000        -6.873458256092888E-101
   96.2943750000000        -1.824800967276242E-100
   96.5081250000000        -3.365806335429061E-100
   96.7218750000000        -5.227185198196620E-100
   96.9356250000000        -7.164311951535448E-100
   97.1493750000000        -8.699115966274365E-100
   97.3631250000000        -9.057182171716631E-100
   97.5768750000000        -7.144894561851952E-100
   97.7906250000000        -1.612413417097803E-100
   98.0043750000000         8.940105566120333E-100
   98.2181250000000         2.555447930081446E-099
   98.4318750000000         4.826502243736296E-099
   98.6456250000000         7.521762723465509E-099
   98.8593750000000         1.016561915669430E-098
   99.0731250000000         1.190048002693166E-098
   99.2868750000000         1.144332174451542E-098
   99.5006250000000         7.145135805810247E-099
   99.7143750000000        -2.781911711566795E-099
   99.9281250000000        -1.980798488260540E-098
   100.141875000000        -4.436425511480690E-098
   100.355625000000        -7.487953429925722E-098
   100.569375000000        -1.066937059347602E-097
   100.783125000000        -1.310982063994676E-097
   100.996875000000        -1.349048856986619E-097
   101.210625000000        -1.010817167462610E-097
   101.424375000000        -1.106321295417548E-098
   101.638125000000         1.507264656553805E-097
   101.851875000000         3.898882768261139E-097
   102.065625000000         6.929267488322150E-097
   102.279375000000         1.017207626538851E-096
   102.493125000000         1.282365092190469E-096
   102.706875000000         1.366784736055413E-096
   102.920625000000         1.113836855594179E-096
   103.134375000000         3.529182160266199E-097
   103.348125000000        -1.060491429540187E-096
   103.561875000000        -3.184229092867600E-096
   103.775625000000        -5.911727431981440E-096
   103.989375000000        -8.887905758804680E-096
   104.203125000000        -1.143853046475953E-095
   104.416875000000        -1.254241811817573E-095
   104.630625000000        -1.088330301681498E-095
   104.844375000000        -5.020112467958225E-096
   105.058125000000         6.293331983548645E-096
   105.271875000000         2.362958342899846E-095
   105.485625000000         4.627810442889708E-095
   105.699375000000         7.158775709879804E-095
   105.913125000000         9.441032810420827E-095
   106.126875000000         1.068620231446481E-094
   106.340625000000         9.867179119052627E-095
   106.554375000000         5.839758992864727E-095
   106.768125000000        -2.426333162046526E-095
   106.981875000000        -1.549929137161535E-094
   107.195625000000        -3.303829130423161E-094
   107.409375000000        -5.330330723991224E-094
   107.623125000000        -7.272265234655876E-094
   107.836875000000        -8.566615082556871E-094
   108.050625000000        -8.460927547609563E-094
   108.264375000000        -6.088644214120461E-094
   108.478125000000        -6.202277141008564E-095
   108.691875000000         8.501938834954173E-094
   108.905625000000         2.125307011054167E-093
   109.119375000000         3.667180328176548E-093
   109.333125000000         5.252406907624254E-093
   109.546875000000         6.507912220289469E-093
   109.760625000000         6.912044408972954E-093
   109.974375000000         5.833006492881680E-093
   110.188125000000         2.617678062283827E-093
   110.401875000000        -3.260519116162910E-093
   110.615625000000        -1.199508856764382E-092
   110.829375000000        -2.319589711368114E-092
   111.043125000000        -3.562844381904423E-092
   111.256875000000        -4.699944846003434E-092
   111.470625000000        -5.386803407534742E-092
   111.684375000000        -5.177952356114451E-092
   111.898125000000        -3.572444245263952E-092
   112.111875000000        -1.010110815340560E-093
   112.325625000000         5.541279524455583E-092
   112.539375000000         1.332087138579958E-091
   112.753125000000         2.266639727006139E-091
   112.966875000000         3.227653545354004E-091
   113.180625000000         3.998558875525483E-091
   113.394375000000         4.275469768796248E-091
   113.608125000000         3.686843396260387E-091
   113.821875000000         1.841645555780819E-091
   114.035625000000        -1.587959067361962E-091
   114.249375000000        -6.748023317159910E-091
   114.463125000000        -1.345489639679054E-090
   114.676875000000        -2.103584281700424E-090
   114.890625000000        -2.819014382972338E-090
   115.104375000000        -3.291765440625526E-090
   115.318125000000        -3.257461031701138E-090
   115.531875000000        -2.412242740621850E-090
   115.745625000000        -4.628398625578829E-091
   115.959375000000         2.794884498197402E-090
   116.173125000000         7.370705728755876E-090
   116.386875000000         1.295775322806782E-089
   116.600625000000         1.881310217968758E-089
   116.814375000000         2.367287357212863E-089
   117.028125000000         2.574442629013478E-089
   117.241875000000         2.282514016245956E-089
   117.455625000000         1.259586807688174E-089
   117.669375000000        -6.877428670614578E-090
   117.883125000000        -3.643242061781506E-089
   118.096875000000        -7.494016967324068E-089
   118.310625000000        -1.183974851502199E-088
   118.524375000000        -1.591864708988493E-088
   118.738125000000        -1.857869622502675E-088
   118.951875000000        -1.832848045048269E-088
   119.165625000000        -1.350234046919904E-088
   119.379375000000        -2.566514863412919E-089
   119.593125000000         1.542667593610851E-088
   119.806875000000         4.026246107569618E-088
   120.020625000000         6.993657892849012E-088
   120.234375000000         1.001033249133482E-087
   120.448125000000         1.237785534714507E-087
   120.661875000000         1.315177558344405E-087
   120.875625000000         1.122977166743481E-087
   121.089375000000         5.528656168081544E-088
   121.303125000000        -4.742723399424552E-088
   121.516875000000        -1.972722332777184E-087
   121.730625000000        -3.851977026554551E-087
   121.944375000000        -5.879721927979780E-087
   122.158125000000        -7.658374450125231E-087
   122.371875000000        -8.628329201217839E-087
   122.585625000000        -8.111799610259373E-087
   122.799375000000        -5.408911651431231E-087
   123.013125000000         4.855404096126752E-089
   123.226875000000         8.491292897365484E-087
   123.440625000000         1.957541319016884E-086
   123.654375000000         3.215368204297899E-086
   123.868125000000         4.411351750631275E-086