  -1.60312500000000         0.000000000000000E+000
  -1.38937500000000         0.000000000000000E+000
  -1.17562500000000         0.000000000000000E+000
 -0.961875000000000         0.000000000000000E+000
 -0.748125000000000         0.000000000000000E+000
 -0.534375000000000         0.000000000000000E+000
 -0.320625000000000         0.000000000000000E+000
 -0.106875000000000         0.000000000000000E+000
  0.106875000000000         0.000000000000000E+000
  0.320625000000000         0.000000000000000E+000
  0.534375000000000         0.000000000000000E+000
  0.748125000000000         0.000000000000000E+000
  0.961875000000000         0.000000000000000E+000
   1.17562500000000         0.000000000000000E+000
   1.38937500000000         0.000000000000000E+000
   1.60312500000000         0.000000000000000E+000
   1.81687500000000         0.000000000000000E+000
   2.03062500000000         0.000000000000000E+000
   2.24437500000000         0.000000000000000E+000
   2.45812500000000         0.000000000000000E+000
   2.67187500000000         0.000000000000000E+000
   2.88562500000000         0.000000000000000E+000
   3.09937500000000         0.000000000000000E+000
   3.31312500000000         0.000000000000000E+000
   3.52687500000000         0.000000000000000E+000
   3.74062500000000         0.000000000000000E+000
   3.95437500000000         0.000000000000000E+000
   4.16812500000000         0.000000000000000E+000
   4.38187500000000         0.000000000000000E+000
   4.59562500000000         0.000000000000000E+000
   4.80937500000000         0.000000000000000E+000
   5.02312500000000         0.000000000000000E+000
   5.23687500000000         0.000000000000000E+000
   5.45062500000000         0.000000000000000E+000
   5.66437500000000         0.000000000000000E+000
   5.87812500000000         0.000000000000000E+000
   6.09187500000000         0.000000000000000E+000
   6.30562500000000         0.000000000000000E+000
   6.51937500000000         0.000000000000000E+000
   6.73312500000000         0.000000000000000E+000
   6.94687500000000         0.000000000000000E+000
   7.16062500000000         0.000000000000000E+000
   7.37437500000000         0.000000000000000E+000
   7.58812500000000         1.671680458564606E-184
   7.80187500000000        -3.931702025848859E-178
   8.01562500000000         1.229097018396662E-161
   8.22937500000000         2.750833231483897E-159
   8.44312500000000         1.816025419578006E-157
   8.65687500000000         6.833706984595002E-156
   8.87062500000000         1.795155817072877E-154
   9.08437500000000         3.631871672975486E-153
   9.29812500000000         5.995004082431582E-152
   9.51187500000000         8.383616518955378E-151
   9.72562500000000         1.019627539452290E-149
   9.93937500000000         1.099164368966715E-148
   10.1531250000000         1.065098717574901E-147
   10.3668750000000         9.374696212592299E-147
   10.5806250000000         7.552632808467231E-146
   10.7943750000000         5.599707228101968E-145
   11.0081250000000         3.833865175765237E-144
   11.2218750000000         2.427253979757348E-143
   11.4356250000000         1.419610219152639E-142
   11.6493750000000         7.636619936797022E-142
   11.8631250000000         3.740299997715115E-141
   12.0768750000000         1.631435643310586E-140
   12.2906250000000         6.004122153477607E-140
   12.5043750000000         1.552099410204346E-139
   12.7181250000000        -4.907649099231773E-140
   12.9318750000000        -4.361999798593013E-138
   13.1456250000000        -3.993399734025244E-137
   13.3593750000000        -2.688180105492486E-136
   13.5731250000000        -1.557667920387437E-135
   13.7868750000000        -8.182635548653198E-135
   14.0006250000000        -3.991933988724782E-134
   14.2143750000000        -1.833312486015906E-133
   14.4281250000000        -7.995058650301668E-133
   14.6418750000000        -3.331195463670812E-132
   14.8556250000000        -1.332335199119853E-131
   15.0693750000000        -5.135085461257070E-131
   15.2831250000000        -1.913769744298933E-130
   15.4968750000000        -6.918753409588822E-130
   15.7106250000000        -2.433980608032582E-129
   15.9243750000000        -8.358302947850864E-129
   16.1381250000000        -2.810679784049814E-128
   16.3518750000000        -9.285055341612554E-128
   16.5656250000000        -3.022666594295413E-127
   16.7793750000000        -9.724730364163223E-127
   16.9931250000000        -3.099596617075277E-126
   17.2068750000000        -9.805186594142235E-126
   17.4206250000000        -3.081587165106679E-125
   17.6343750000000        -9.623850261470244E-125
   17.8481250000000        -2.984978575751160E-124
   18.0618750000000        -9.184611914506459E-124
   18.2756250000000        -2.799359580870419E-123
   18.4893750000000        -8.437658805757226E-123
   18.7031250000000        -2.511025513104018E-122
   18.9168750000000        -7.367377874596814E-122
   19.1306250000000        -2.128478082055333E-121
   19.3443750000000        -6.049034667488398E-121
   19.5581250000000        -1.689782420221064E-120
   19.7718750000000        -4.637249722278012E-120
   19.9856250000000        -1.249706863143178E-119
   20.1993750000000        -3.306495582690713E-119
   20.4131250000000        -8.587790872615667E-119
   20.6268750000000        -2.189403006108874E-118
   20.8406250000000        -5.479020485515874E-118
   21.0543750000000        -1.345959748146738E-117
   21.2681250000000        -3.245950515179948E-117
   21.4818750000000        -7.685376539578535E-117
   21.6956250000000        -1.786626606668659E-116
   21.9093750000000        -4.078259367108119E-116
   22.1231250000000        -9.141271552679357E-116
   22.3368750000000        -2.012033469551985E-115
   22.5506250000000        -4.348614422021518E-115
   22.7643750000000        -9.228355554561427E-115
   22.9781250000000        -1.922657552884949E-114
   23.1918750000000        -3.931884773525670E-114
   23.4056250000000        -7.890448569091379E-114
   23.6193750000000        -1.553247320138779E-113
   23.8331250000000        -2.997760279378851E-113
   24.0468750000000        -5.668618972106440E-113
   24.2606250000000        -1.049283933563809E-112
   24.4743750000000        -1.899008556741617E-112
   24.6881250000000        -3.354927147746051E-112
   24.9018750000000        -5.773092021361939E-112
   25.1156250000000        -9.646360298654919E-112
   25.3293750000000        -1.558103161102072E-111
   25.5431250000000        -2.416118729745621E-111
   25.7568750000000        -3.556525158297873E-111
   25.9706250000000        -4.868726799333690E-111
   26.1843750000000        -5.933645008515544E-111
   26.3981250000000        -5.682024878757801E-111
   26.6118750000000        -1.784345876419003E-111
   26.8256250000000         1.038095253503696E-110
   27.0393750000000         3.938253544714730E-110
   27.2531250000000         1.002461488046270E-109
   27.4668750000000         2.180203514092310E-109
   27.6806250000000         4.324282211493414E-109
   27.8943750000000         8.031909632331207E-109
   28.1081250000000         1.414683021818616E-108
   28.3218750000000         2.376872414654247E-108
   28.5356250000000         3.816632548265779E-108
   28.7493750000000         5.849065173317191E-108
   28.9631250000000         8.512128686695011E-108
   29.1768750000000         1.163967509282164E-107
   29.3906250000000         1.463887938912590E-107
   29.6043750000000         1.613055912465140E-107
   29.8181250000000         1.341036263391135E-107
   30.0318750000000         1.704796733716821E-108
   30.2456250000000        -2.675612193630241E-107
   30.4593750000000        -8.372594374611322E-107
   30.6731250000000        -1.856801158593710E-106
   30.8868750000000        -3.536969939371282E-106
   31.1006250000000        -6.114306943178286E-106
   31.3143750000000        -9.795364679505787E-106
   31.5281250000000        -1.464223032804100E-105
   31.7418750000000        -2.036967502117431E-105
   31.9556250000000        -2.602137760647939E-105
   32.1693750000000        -2.949846344898415E-105
   32.3831250000000        -2.693608073843159E-105
   32.5968750000000        -1.197377644558623E-105
   32.8106250000000         2.494411924837293E-105
   33.0243750000000         9.695888419000798E-105
   33.2381250000000         2.203977073025756E-104
   33.4518750000000         4.128516508475446E-104
   33.6656250000000         6.887344966943005E-104
   33.8793750000000         1.051127903491525E-103
   34.0931250000000         1.478725408709365E-103
   34.3068750000000         1.907104205574420E-103
   34.5206250000000         2.204639627208234E-103
   34.7343750000000         2.145405697206822E-103
   34.9481250000000         1.384568021935515E-103
   35.1618750000000        -5.539713427464067E-104
   35.3756250000000        -4.263068058500313E-103
   35.5893750000000        -1.039209703929365E-102
   35.8031250000000        -1.952047782748527E-102
   36.0168750000000        -3.194831318283889E-102
   36.2306250000000        -4.739997784963243E-102
   36.4443750000000        -6.465980076410873E-102
   36.6581250000000        -8.119207364303657E-102
   36.8718750000000        -9.283297700668224E-102
   37.0856250000000        -9.366189593138413E-102
   37.2993750000000        -7.613324925609608E-102
   37.5131250000000        -3.143467838000638E-102
   37.7268750000000         5.021193862839833E-102
   37.9406250000000         1.799973473839413E-101
   38.1543750000000         3.729326704499499E-101
   38.3681250000000         6.538902599397378E-101
   38.5818750000000         1.068942613154110E-100
   38.7956250000000         1.702473876495491E-100
   39.0093750000000         2.697095098905907E-100
   39.2231250000000         4.266370643021363E-100
   39.4368750000000         6.678532780799357E-100
   39.6506250000000         1.017238554971378E-099
   39.8643750000000         1.474640025140455E-099
   40.0781250000000         1.974480942527337E-099
   40.2918750000000         2.316340571731735E-099
   40.5056250000000         2.063521382325964E-099
   40.7193750000000         4.165260278964895E-100
   40.9331250000000        -3.909441448546623E-099
   41.1468750000000        -1.273631808382178E-098
   41.3606250000000        -2.828293937016617E-098
   41.5743750000000        -5.264283428027851E-098
   41.7881250000000        -8.662250102533867E-098
   42.0018750000000        -1.276475635736269E-097
   42.2156250000000        -1.664979755739353E-097
   42.4293750000000        -1.828607961260240E-097
   42.6431250000000        -1.402003161907063E-097
   42.8568750000000         1.864136916645678E-098
   43.0706250000000         3.723002466688640E-097
   43.2843750000000         1.013526499469742E-096
   43.4981250000000         2.026844185753272E-096
   43.7118750000000         3.442798649941931E-096
   43.9256250000000         5.160234690597135E-096
   44.1393750000000         6.831310051536782E-096
   44.3531250000000         7.713088555426215E-096
   44.5668750000000         6.507479547781594E-096
   44.7806250000000         1.240601093898643E-096
   44.9943750000000        -1.072569862097212E-095
   45.2081250000000        -3.240625921638378E-095
   45.4218750000000        -6.643395979461778E-095
   45.6356250000000        -1.136037363869028E-094
   45.8493750000000        -1.705147394845067E-094
   46.0631250000000        -2.262288490018337E-094
   46.2768750000000        -2.581477248276024E-094
   46.4906250000000        -2.278183972324518E-094
   46.7043750000000        -7.815359794666237E-095
   46.9181250000000         2.654106389402951E-094
   47.1318750000000         8.861121134110359E-094
   47.3456250000000         1.854648167253265E-093
   47.5593750000000         3.190360231300298E-093
   47.7731250000000         4.800624714573245E-093
   47.9868750000000         6.397737917382832E-093
   48.2006250000000         7.399782617670534E-093
   48.4143750000000         6.834037375026405E-093
   48.6281250000000         3.279032685033181E-093
   48.8418750000000        -5.096323043406883E-093
   49.0556250000000        -2.031400137199732E-092
   49.2693750000000        -4.408641960711359E-092
   49.4831250000000        -7.692821231658966E-092
   49.6968750000000        -1.168016135702549E-091
   49.9106250000000        -1.572965499893919E-091
   50.1243750000000        -1.855012710281609E-091
   50.3381250000000        -1.799687827858073E-091
   50.5518750000000        -1.095358370353762E-091
   50.7656250000000         6.581384904295294E-092
   50.9793750000000         3.903943432226575E-091
   51.1931250000000         9.025709540686732E-091
   51.4068750000000         1.616783981467876E-090
   51.6206250000000         2.496376178065450E-090
   51.8343750000000         3.417319119630367E-090
   52.0481250000000         4.125899633940536E-090
   52.2618750000000         4.198150224201508E-090
   52.4756250000000         3.015412505030972E-090
   52.6893750000000        -2.214380232568903E-091
   52.9031250000000        -6.408050358762561E-090
   53.1168750000000        -1.634528795769019E-089
   53.3306250000000        -3.040207740386904E-089
   53.5443750000000        -4.800446169788490E-089
   53.7581250000000        -6.695188063517742E-089
   53.9718750000000        -8.261697580719569E-089
   54.1856250000000        -8.717350362129563E-089
   54.3993750000000        -6.912057569303448E-089
   54.6131250000000        -1.352350023854494E-089
   54.8268750000000         9.645072901334659E-089
   55.0406250000000         2.760076523386902E-088
   55.2543750000000         5.325119868569952E-088
   55.4681250000000         8.561122967039053E-088
   55.6818750000000         1.207312474037877E-087
   55.8956250000000         1.502684786593245E-087
   56.1093750000000         1.601614790416457E-087
   56.3231250000000         1.299273864340614E-087
   56.5368750000000         3.337234717429181E-088
   56.7506250000000        -1.582371890422338E-087
   56.9643750000000        -4.693502956549902E-087
   57.1781250000000        -9.085842147082328E-087
   57.3918750000000        -1.451974470129615E-086
   57.6056250000000        -2.021832112468872E-086
   57.8193750000000        -2.464202601716803E-086
   58.0331250000000        -2.531070018005004E-086
   58.2468750000000        -1.877360273821009E-086
   58.4606250000000        -8.681525370734926E-088
   58.6743750000000         3.256343682127273E-086
   58.8881250000000         8.433394142728198E-086
   59.1018750000000         1.538443713875006E-085
   59.3156250000000         2.343406620833972E-085
   59.5293750000000         3.098141111272952E-085
   59.7431250000000         3.522639197011019E-085
   59.9568750000000         3.205412415555814E-085
   60.1706250000000         1.625161641603728E-085
   60.3843750000000        -1.773084050369454E-085
   60.5981250000000        -7.426197915150582E-085
   60.8118750000000        -1.541169555988198E-084
   61.0256250000000        -2.512132351346862E-084
   61.2393750000000        -3.488599046870450E-084
   61.4531250000000        -4.163551579818582E-084
   61.6668750000000        -4.073501574181293E-084
   61.8806250000000        -2.619923602076543E-084
   62.0943750000000         8.472343271338402E-085
   62.3081250000000         6.860210286218335E-084
   62.5218750000000         1.556339475670180E-083
   62.7356250000000         2.634886699673991E-083
   62.9493750000000         3.744006037104567E-083
   63.1631250000000         4.551782290895324E-083
   63.3768750000000         4.554557301704204E-083
   63.5906250000000         3.101142739833312E-083
   63.8043750000000        -5.155996788186274E-084
   64.0181250000000        -6.875536559861922E-083
   64.2318750000000        -1.614251151452121E-082
   64.4456250000000        -2.767923857106708E-082
   64.6593750000000        -3.961320545682717E-082
   64.8731250000000        -4.845374803222673E-082
   65.0868750000000        -4.892226593842670E-082
   65.3006250000000        -3.421565598841509E-082
   65.5143750000000         3.043716126505260E-083
   65.7281250000000         6.893905060738833E-082
   65.9418750000000         1.653478581814591E-081
   66.1556250000000         2.860947150912149E-081
   66.3693750000000         4.126430881754442E-081
   66.5831250000000         5.102990833093424E-081
   66.7968750000000         5.264701846387162E-081
   67.0106250000000         3.930455216954305E-081
   67.2243750000000         3.525058535134432E-082
   67.4381250000000        -6.108764622402360E-081
   67.6518750000000        -1.571227670938709E-080
   67.8656250000000        -2.797462999560412E-080
   68.0793750000000        -4.126046263984146E-080
   68.2931250000000        -5.240909040298833E-080
   68.5068750000000        -5.653126915067637E-080
   68.7206250000000        -4.715611258758158E-080
   68.9343750000000        -1.693583781902655E-080
   69.1481250000000         4.089511409517531E-080
   69.3618750000000         1.301829952141089E-079
   69.5756250000000         2.486725258686598E-079
   69.7893750000000         3.842657608814702E-079
   70.0031250000000         5.113555832949496E-079
   70.2168750000000         5.882790881017554E-079
   70.4306250000000         5.573474087242322E-079
   70.6443750000000         3.492132763864476E-079
   70.8581250000000        -1.066111086429258E-079
   71.0718750000000        -8.636528023831800E-079
   71.2856250000000        -1.932354833000160E-078
   71.4993750000000        -3.247253762518715E-078
   71.7131250000000        -4.631373771203160E-078
   71.9268750000000        -5.765084543561058E-078
   72.1406250000000        -6.170413765581651E-078
   72.3543750000000        -5.225325242721493E-078
   72.5681250000000        -2.224773167606087E-078
   72.7818750000000         3.494946366609116E-078
   72.9956250000000         1.235657514598847E-077
   73.2093750000000         2.426563326196642E-077
   73.4231250000000         3.827437209934093E-077
   73.6368750000000         5.222945255751181E-077
   73.8506250000000         6.248127789850480E-077
   74.0643750000000         6.377197194061924E-077
   74.2781250000000         4.945614078234831E-077
   74.4918750000000         1.223288744730790E-077
   74.7056250000000        -5.443660540154185E-077
   74.9193750000000        -1.541041207856953E-076
   75.1331250000000        -2.843030178359501E-076
   75.3468750000000        -4.329236572332090E-076
   75.5606250000000        -5.745201769686196E-076
   75.7743750000000        -6.674724771799758E-076
   75.9881250000000        -6.533707382341794E-076
   76.2018750000000        -4.603877477911464E-076
   76.4156250000000        -1.261213779519859E-077
   76.6293750000000         7.528661936088530E-076
   76.8431250000000         1.860136651351246E-075
   77.0568750000000         3.260605672451037E-075
   77.2706250000000         4.794482624335092E-075
   77.4843750000000         6.154720429846704E-075
   77.6981250000000         6.864937486394938E-075
   77.9118750000000         6.287231449802970E-075
   78.1256250000000         3.678877522958235E-075
   78.3393750000000        -1.683117920174077E-075
   78.5531250000000        -1.029596128319479E-074
   78.7668750000000        -2.214273003128525E-074
   78.9806250000000        -3.634302540459467E-074
   79.1943750000000        -5.079535995234333E-074
   79.4081250000000        -6.190254286938675E-074
   79.6218750000000        -6.451097176865344E-074
   79.8356250000000        -5.222520175372178E-074
   80.0493750000000        -1.826574595852627E-074
   80.2631250000000         4.299709637764765E-074
   80.4768750000000         1.337955770808056E-073
   80.6906250000000         2.501333840824595E-073
   80.9043750000000         3.787446506146738E-073
   81.1181250000000         4.945170645222982E-073
   81.3318750000000         5.593655597852613E-073
   81.5456250000000         5.237903024101730E-073
   81.7593750000000         3.324258337645791E-073
   81.9731250000000        -6.534278265655968E-074
   82.1868750000000        -6.992851671868591E-073
   82.4006250000000        -1.557529946936014E-072
   82.6143750000000        -2.563567727336383E-072
   82.8281250000000        -3.555674760302790E-072
   83.0418750000000        -4.275583485631460E-072
   83.2556250000000        -4.374977976448306E-072
   83.4693750000000        -3.448957801399768E-072
   83.6831250000000        -1.104135614457886E-072
   83.8968750000000         2.935313401174414E-072
   84.1106250000000         8.688104422601462E-072
   84.3243750000000         1.575843410649425E-071
   84.5381250000000         2.319002426543562E-071
   84.7518750000000         2.937502429262333E-071
   84.9656250000000         3.207230892184888E-071
   85.1793750000000         2.859335907765049E-071
   85.3931250000000         1.620495360519555E-071
   85.6068750000000        -7.228438506263407E-072
   85.8206250000000        -4.238637499862380E-071
   86.0343750000000        -8.750860509864444E-071
   86.2481250000000        -1.374565758515182E-070
   86.4618750000000        -1.830733241628373E-070
   86.6756250000000        -2.111591016417777E-070
   86.8893750000000        -2.054012592937220E-070
   87.1031250000000        -1.485471228590201E-070
   87.3168750000000        -2.596295248461262E-071
   87.5306250000000         1.695336280756242E-070
   87.7443750000000         4.320408724897556E-070
   87.9581250000000         7.370451148455422E-070
   88.1718750000000         1.037340124962275E-069
   88.3856250000000         1.262076536795439E-069
   88.5993750000000         1.320741620963352E-069
   88.8131250000000         1.113627869299744E-069
   89.0268750000000         5.496316434145408E-070
   89.2406250000000        -4.290298667045410E-070
   89.4543750000000        -1.817348754607459E-069
   89.6681250000000        -3.517557550675974E-069
   89.8818750000000        -5.315022955541441E-069
   90.0956250000000        -6.868030358957228E-069
   90.3093750000000        -7.720151617266596E-069
   90.5231250000000        -7.342970333523587E-069
   90.7368750000000        -5.213960362488127E-069
   90.9506250000000        -9.290447140820666E-070
   91.1643750000000         5.658031568645298E-069
   91.3781250000000         1.428622555852810E-068
   91.5918750000000         2.415339646464180E-068
   91.8056250000000         3.383152953867704E-068
   92.0193750000000         4.126837054003712E-068
   92.2331250000000         4.391133081600046E-068
   92.4468750000000         3.898079046314943E-068
   92.6606250000000         2.390316438532028E-068
   92.8743750000000        -3.110344967212420E-069
   93.0881250000000        -4.238377679645674E-068
   93.3018750000000        -9.207297059235224E-068
   93.5156250000000        -1.475484670118797E-067
   93.7293750000000        -2.010008013161103E-067
   93.9431250000000        -2.414201262181768E-067
   94.1568750000000        -2.551036877282300E-067
   94.3706250000000        -2.268287219715064E-067
   94.5843750000000        -1.417919194543840E-067
   94.7981250000000         1.164379280757782E-068
   95.0118750000000         2.384440053047862E-067
   95.2256250000000         5.328144915771895E-067
   95.4393750000000         8.738781937370763E-067
   95.6531250000000         1.221693927003536E-066
   95.8668750000000         1.514477027677848E-066
   96.0806250000000         1.668205053650290E-066
   96.2943750000000         1.580106371635734E-066
   96.5081250000000         1.137745604178717E-066
   96.7218750000000         2.353958769994309E-067
   96.9356250000000        -1.201065648988742E-066
   97.1493750000000        -3.180599837283764E-066
   97.3631250000000        -5.606579156926979E-066
   97.5768750000000        -8.234148317568421E-066
   97.7906250000000        -1.063371113070063E-065
   98.0043750000000        -1.217297220237903E-065
   98.2181250000000        -1.203363748300294E-065
   98.4318750000000        -9.280876815916933E-066
   98.6456250000000        -3.002331978787274E-066
   98.8593750000000         7.472998024556534E-066
   99.0731250000000         2.227884256501614E-065
   99.2868750000000         4.066228318372778E-065
   99.5006250000000         6.063206839608024E-065
   99.7143750000000         7.868734928089024E-065
   99.9281250000000         8.973950197365037E-065
   100.141875000000         8.735945850790837E-065
   100.355625000000         6.448161485604051E-065
   100.569375000000         1.466104667875705E-065
   100.783125000000        -6.609690604049759E-065
   100.996875000000        -1.770419701174494E-064
   101.210625000000        -3.101977392175425E-064
   101.424375000000        -4.481718010184947E-064
   101.638125000000        -5.629294541742451E-064
   101.851875000000        -6.163433041494426E-064
   102.065625000000        -5.633539791625040E-064
   102.279375000000        -3.584154494020370E-064
   102.493125000000         3.450687492198469E-065
   102.706875000000         6.287973783190390E-064
   102.920625000000         1.400260774809925E-063
   103.134375000000         2.272860577735699E-063
   103.348125000000         3.108693289847908E-063
   103.561875000000         3.706620306715942E-063
   103.775625000000         3.814255940595572E-063
   103.989375000000         3.157360208086851E-063
   104.203125000000         1.488802992527228E-063
   104.416875000000        -1.344021688037260E-063
   104.630625000000        -5.319085132834863E-063
   104.844375000000        -1.015825588846026E-062
   105.058125000000        -1.526156091816411E-062
   105.271875000000        -1.967898090270853E-062
   105.485625000000        -2.214375696591583E-062
   105.699375000000        -2.118916287660751E-062
   105.913125000000        -1.536299657147643E-062
   106.126875000000        -3.539754052818834E-063
   106.340625000000         1.469032908906934E-062
   106.554375000000         3.860190430557439E-062
   106.768125000000         6.595872765142143E-062
   106.981875000000         9.277938806061494E-062
   107.195625000000         1.133565543159151E-061
   107.409375000000         1.206387052618978E-061
   107.623125000000         1.070564276211026E-061
   107.836875000000         6.582007544701529E-062
   108.050625000000        -7.368731846248403E-063
   108.264375000000        -1.123575608267174E-061
   108.478125000000        -2.426215324269256E-061
   108.691875000000        -3.837783508475942E-061
   108.905625000000        -5.130185233363290E-061
   109.119375000000        -5.999469259676535E-061
   109.333125000000        -6.092589934042449E-061
   109.546875000000        -5.054898536616906E-061
   109.760625000000        -2.597696885577017E-061
   109.974375000000         1.418942779481911E-061
   110.188125000000         6.897718021538047E-061
   110.401875000000         1.342450235156295E-060
   110.615625000000         2.021614659176967E-060
   110.829375000000         2.611629457947443E-060
   111.043125000000         2.965887792819620E-060
   111.256875000000         2.921400678643771E-060
   111.470625000000         2.322147557150689E-060
   111.684375000000         1.050312722669962E-060
   111.898125000000        -9.372228359888520E-061
   112.111875000000        -3.571690820012848E-060
   112.325625000000        -6.640920076701318E-060
   112.539375000000        -9.771220608374840E-060
   112.753125000000        -1.243087720127621E-059
   112.966875000000        -1.396269840391016E-059
   113.180625000000        -1.365075025536146E-059
   113.394375000000        -1.082239345055864E-059
   113.608125000000        -4.981129261882399E-060
   113.821875000000         4.041070964089336E-060
   114.035625000000         1.593061470574005E-059
   114.249375000000         2.976379370241616E-059
   114.463125000000         4.393343678313460E-059
   114.676875000000         5.616298813225305E-059
   114.890625000000         6.363746222844417E-059
   115.104375000000         6.327215226462299E-059
   115.318125000000         5.212502178266654E-059
   115.531875000000         2.793753503458769E-059
   115.745625000000        -1.023756624354242E-059
   115.959375000000        -6.139201857427037E-059
   116.173125000000        -1.219999499040349E-058
   116.386875000000        -1.856591511644498E-058
   116.600625000000        -2.430683333067518E-058
   116.814375000000        -2.824673823396656E-058
   117.028125000000        -2.906395669488659E-058
   117.241875000000        -2.545202789465213E-058
   117.455625000000        -1.633750757787056E-058
   117.669375000000        -1.140345947763877E-059
   117.883125000000         1.994979418395492E-058
   118.096875000000         4.572043132843750E-058
   118.310625000000         7.375628857617115E-058
   118.524375000000         1.003888854247514E-057
   118.738125000000         1.208316707146753E-057
   118.951875000000         1.295465958650871E-057
   119.165625000000         1.208663839586446E-057
   119.379375000000         8.986285470254209E-058
   119.593125000000         3.340676791586493E-058
   119.806875000000        -4.868751889361645E-058
   120.020625000000        -1.525922086597241E-057
   120.234375000000        -2.696751868835965E-057
   120.448125000000        -3.862172511369620E-057
   120.661875000000        -4.838603716506890E-057
   120.875625000000        -5.409622513915241E-057
   121.089375000000        -5.349371748577429E-057
   121.303125000000        -4.455208272417663E-057
   121.516875000000        -2.587172435649829E-057
   121.730625000000         2.901018233121953E-058
   121.944375000000         4.069236193873444E-057
   122.158125000000         8.473201781839703E-057
   122.371875000000         1.304747372876626E-056
   122.585625000000         1.717806543297315E-056
   122.799375000000         2.013970220130610E-056
   123.013125000000         2.117428132016393E-056
   123.226875000000         1.959443058931958E-056
   123.440625000000         1.490111946229276E-056
   123.654375000000         6.898939623137308E-057
   123.868125000000        -4.210866420327126E-057