  -1.60312500000000         0.000000000000000E+000
  -1.38937500000000        -2.995551670504835E-012
  -1.17562500000000        -2.092719515910045E-011
 -0.961875000000000        -1.000136213628225E-010
 -0.748125000000000        -3.853614388791265E-010
 -0.534375000000000        -1.246896591671992E-009
 -0.320625000000000        -3.448541362696987E-009
 -0.106875000000000        -8.270880300633005E-009
  0.106875000000000        -1.744711319676651E-008
  0.320625000000000        -3.286324904838525E-008
  0.534375000000000        -5.612604229636546E-008
  0.748125000000000        -8.824029264023475E-008
  0.961875000000000        -1.295167060020706E-007
   1.17562500000000        -1.796531977124921E-007
   1.38937500000000        -2.378949601668005E-007
   1.60312500000000        -3.031078993687401E-007
   1.81687500000000        -3.738572293534485E-007
   2.03062500000000        -4.484547363756488E-007
   2.24437500000000        -5.236730679495267E-007
   2.45812500000000        -6.008356301979118E-007
   2.67187500000000        -6.741756713874673E-007
   2.88562500000000        -7.464646683004765E-007
   3.09937500000000        -8.131664710427233E-007
   3.31312500000000        -8.727554848198923E-007
   3.52687500000000        -9.242449353991410E-007
   3.74062500000000        -9.667709956527447E-007
   3.95437500000000        -9.994646826394922E-007
   4.16812500000000        -1.021657120399676E-006
   4.38187500000000        -1.033382000097981E-006
   4.59562500000000        -1.034668849860002E-006
   4.80937500000000        -1.026117433625767E-006
   5.02312500000000        -1.009539404026858E-006
   5.23687500000000        -9.858070345746950E-007
   5.45062500000000        -9.572729973109881E-007
   5.66437500000000        -9.266145693987058E-007
   5.87812500000000        -8.969697112020700E-007
   6.09187500000000        -8.716137735014018E-007
   6.30562500000000        -8.538013471002978E-007
   6.51937500000000        -8.471109899063330E-007
   6.73312500000000        -8.540744315221219E-007
   6.94687500000000        -8.742003316402576E-007
   7.16062500000000        -9.113103420357736E-007
   7.37437500000000        -9.638333109374854E-007
   7.58812500000000        -1.028963632886636E-006
   7.80187500000000        -1.103096448835910E-006
   8.01562500000000        -1.181238837674274E-006
   8.22937500000000        -1.257680087197985E-006
   8.44312500000000        -1.326422204008779E-006
   8.65687500000000        -1.381759767600197E-006
   8.87062500000000        -1.418328496414759E-006
   9.08437500000000        -1.432594912225404E-006
   9.29812500000000        -1.422906128526716E-006
   9.51187500000000        -1.387691749132374E-006
   9.72562500000000        -1.328121246306974E-006
   9.93937500000000        -1.248373473791803E-006
   10.1531250000000        -1.152445922722741E-006
   10.3668750000000        -1.045741895053504E-006
   10.5806250000000        -9.339406856107875E-007
   10.7943750000000        -8.227202430887911E-007
   11.0081250000000        -7.172603358398644E-007
   11.2218750000000        -6.252967193641922E-007
   11.4356250000000        -5.421525801573113E-007
   11.6493750000000        -4.797763896499820E-007
   11.8631250000000        -4.259557817503836E-007
   12.0768750000000        -3.957129662014467E-007
   12.2906250000000        -3.716388288666197E-007
   12.5043750000000        -3.680091382143330E-007
   12.7181250000000        -3.662779996019917E-007
   12.9318750000000        -3.790632720975814E-007
   13.1456250000000        -3.941078980979016E-007
   13.3593750000000        -4.162378089537516E-007
   13.5731250000000        -4.415968822207617E-007
   13.7868750000000        -4.690716131417803E-007
   14.0006250000000        -4.971980867013418E-007
   14.2143750000000        -5.244473900782531E-007
   14.4281250000000        -5.493725469577044E-007
   14.6418750000000        -5.706333507573427E-007
   14.8556250000000        -5.873957929110961E-007
   15.0693750000000        -5.982738187664398E-007
   15.2831250000000        -6.031253290679743E-007
   15.4968750000000        -6.009222255675548E-007
   15.7106250000000        -5.928168055198697E-007
   15.9243750000000        -5.785098771186488E-007
   16.1381250000000        -5.587762851453139E-007
   16.3518750000000        -5.348392820711280E-007
   16.5656250000000        -5.082771044340730E-007
   16.7793750000000        -4.801751095930224E-007
   16.9931250000000        -4.517349544042936E-007
   17.2068750000000        -4.238615849868271E-007
   17.4206250000000        -3.952883160642675E-007
   17.6343750000000        -3.668625861028999E-007
   17.8481250000000        -3.484854220745765E-007
   18.0618750000000        -3.253766812588655E-007
   18.2756250000000        -3.146667830153694E-007
   18.4893750000000        -2.965458585394107E-007
   18.7031250000000        -2.852345096532641E-007
   18.9168750000000        -2.698009412144759E-007
   19.1306250000000        -2.539221142132008E-007
   19.3443750000000        -2.363041367271104E-007
   19.5581250000000        -2.173742607825414E-007
   19.7718750000000        -1.983430674497281E-007
   19.9856250000000        -1.808827722875533E-007
   20.1993750000000        -1.668215836078468E-007
   20.4131250000000        -1.580838085398808E-007
   20.6268750000000        -1.565589622659335E-007
   20.8406250000000        -1.638199585104510E-007
   21.0543750000000        -1.802137642414545E-007
   21.2681250000000        -2.061999614230892E-007
   21.4818750000000        -2.416659397396748E-007
   21.6956250000000        -2.859072153912449E-007
   21.9093750000000        -3.372533884944867E-007
   22.1231250000000        -3.935544771896190E-007
   22.3368750000000        -4.526678112945834E-007
   22.5506250000000        -5.121467316481519E-007
   22.7643750000000        -5.697001022145375E-007
   22.9781250000000        -6.232853161306982E-007
   23.1918750000000        -6.713269054697692E-007
   23.4056250000000        -7.131962246205690E-007
   23.6193750000000        -7.485783156968161E-007
   23.8331250000000        -7.779529345430847E-007
   24.0468750000000        -8.017653816287011E-007
   24.2606250000000        -8.211114378910336E-007
   24.4743750000000        -8.364594686139102E-007
   24.6881250000000        -8.483804469645983E-007
   24.9018750000000        -8.573437099490814E-007
   25.1156250000000        -8.632881338948871E-007
   25.3293750000000        -8.659234403029483E-007
   25.5431250000000        -8.657139135529965E-007
   25.7568750000000        -8.619904640436659E-007
   25.9706250000000        -8.556807377786696E-007
   26.1843750000000        -8.509314272730896E-007
   26.3981250000000        -8.323815221185839E-007
   26.6118750000000        -8.194972669670563E-007
   26.8256250000000        -7.914357793348217E-007
   27.0393750000000        -7.697148736132223E-007
   27.2531250000000        -7.350686029418464E-007
   27.4668750000000        -7.017202739939030E-007
   27.6806250000000        -6.680174024288766E-007
   27.8943750000000        -6.343167376541005E-007
   28.1081250000000        -6.012544966790346E-007
   28.3218750000000        -5.694119358118415E-007
   28.5356250000000        -5.393570418906250E-007
   28.7493750000000        -5.109964212261839E-007
   28.9631250000000        -4.840557706896295E-007
   29.1768750000000        -4.585546819692569E-007
   29.3906250000000        -4.338832017816201E-007
   29.6043750000000        -4.096237089735511E-007
   29.8181250000000        -3.853801316149836E-007
   30.0318750000000        -3.603080052000960E-007
   30.2456250000000        -3.326026990490201E-007
   30.4593750000000        -3.032663657259041E-007
   30.6731250000000        -2.710578841008708E-007
   30.8868750000000        -2.355335820995772E-007
   31.1006250000000        -1.964787269012335E-007
   31.3143750000000        -1.539530643002160E-007
   31.5281250000000        -1.082742334058429E-007
   31.7418750000000        -6.005746711987174E-008
   31.9556250000000        -1.012505358944634E-008
   32.1693750000000         4.048498176857702E-008
   32.3831250000000         9.061180664008017E-008
   32.5968750000000         1.385295104919995E-007
   32.8106250000000         1.839976017708918E-007
   33.0243750000000         2.254152082108443E-007
   33.2381250000000         2.618468102616257E-007
   33.4518750000000         2.924720286559402E-007
   33.6656250000000         3.166427291744750E-007
   33.8793750000000         3.338509972498341E-007
   34.0931250000000         3.437615679683741E-007
   34.3068750000000         3.461551969402793E-007
   34.5206250000000         3.408298600143098E-007
   34.7343750000000         3.278920238037367E-007
   34.9481250000000         3.075364541690063E-007
   35.1618750000000         2.794184670723688E-007
   35.3756250000000         2.442796760633375E-007
   35.5893750000000         2.027096652489233E-007
   35.8031250000000         1.555482798160213E-007
   36.0168750000000         1.046344490613007E-007
   36.2306250000000         5.189503276047163E-008
   36.4443750000000        -5.460460559930471E-010
   36.6581250000000        -4.997341420586453E-008
   36.8718750000000        -9.687057366555494E-008
   37.0856250000000        -1.292489317390587E-007
   37.2993750000000        -1.539138874273679E-007
   37.5131250000000        -1.628648893735049E-007
   37.7268750000000        -1.674195616188723E-007
   37.9406250000000        -1.483439262271416E-007
   38.1543750000000        -1.219850696467918E-007
   38.3681250000000        -8.708219011721972E-008
   38.5818750000000        -4.664270470992787E-008
   38.7956250000000        -4.360353952290010E-009
   39.0093750000000         3.578305688566785E-008
   39.2231250000000         7.000583947575999E-008
   39.4368750000000         9.529328134352397E-008
   39.6506250000000         1.143661631080203E-007
   39.8643750000000         1.141322347106132E-007
   40.0781250000000         9.880762881656294E-008
   40.2918750000000         6.782328880622517E-008
   40.5056250000000         2.273381802613415E-008
   40.7193750000000        -3.409438833202454E-008
   40.9331250000000        -1.036052056727113E-007
   41.1468750000000        -1.702564231384637E-007
   41.3606250000000        -2.450105269391333E-007
   41.5743750000000        -3.155984741262289E-007
   41.7881250000000        -3.794412504473390E-007
   42.0018750000000        -4.342297758901232E-007
   42.2156250000000        -4.780933766989986E-007
   42.4293750000000        -5.097324923631554E-007
   42.6431250000000        -5.289535502200244E-007
   42.8568750000000        -5.387093267268128E-007
   43.0706250000000        -5.240281990313390E-007
   43.2843750000000        -5.032204972212676E-007
   43.4981250000000        -4.583859236873707E-007
   43.7118750000000        -4.016046210222094E-007
   43.9256250000000        -3.308751870295934E-007
   44.1393750000000        -2.460751371892804E-007
   44.3531250000000        -1.477914698658514E-007
   44.5668750000000        -3.700737627794956E-008
   44.7806250000000         8.462150091953909E-008
   44.9943750000000         2.148227034547118E-007
   45.2081250000000         3.507130795168979E-007
   45.4218750000000         4.888063985395062E-007
   45.6356250000000         6.251587500344054E-007
   45.8493750000000         7.556138960468171E-007
   46.0631250000000         8.760273258215483E-007
   46.2768750000000         9.825075574786176E-007
   46.4906250000000         1.071615187077689E-006
   46.7043750000000         1.140683672979292E-006
   46.9181250000000         1.188294952281275E-006
   47.1318750000000         1.213852064771145E-006
   47.3456250000000         1.217592386104160E-006
   47.5593750000000         1.197120182917442E-006
   47.7731250000000         1.160297215347288E-006
   47.9868750000000         1.105538349132250E-006
   48.2006250000000         1.042005617886805E-006
   48.4143750000000         9.654237919479492E-007
   48.6281250000000         8.853553730399375E-007
   48.8418750000000         8.025941894747907E-007
   49.0556250000000         7.219370168879714E-007
   49.2693750000000         6.427304273035611E-007
   49.4831250000000         5.680187521747850E-007
   49.6968750000000         4.999208524850782E-007
   49.9106250000000         4.400189840673480E-007
   50.1243750000000         3.897955502374788E-007
   50.3381250000000         3.503364652488995E-007
   50.5518750000000         3.230265951587195E-007
   50.7656250000000         3.142663470631598E-007
   50.9793750000000         3.082173987790080E-007
   51.1931250000000         3.234235872869685E-007
   51.4068750000000         3.384763177404715E-007
   51.6206250000000         3.712849391510349E-007
   51.8343750000000         4.017214259774210E-007
   52.0481250000000         4.430505826564366E-007
   52.2618750000000         4.785886304705928E-007
   52.4756250000000         5.163302521995306E-007
   52.6893750000000         5.487633861965331E-007
   52.9031250000000         5.745218854903118E-007
   53.1168750000000         5.949574064874244E-007
   53.3306250000000         6.079071905456140E-007
   53.5443750000000         6.140651114260401E-007
   53.7581250000000         6.152991617637884E-007
   53.9718750000000         6.125157947139759E-007
   54.1856250000000         6.072438043817774E-007
   54.3993750000000         6.010314473848405E-007
   54.6131250000000         5.952304417820793E-007
   54.8268750000000         5.908110966644116E-007
   55.0406250000000         5.882726908539807E-007
   55.2543750000000         5.876482292756319E-007
   55.4681250000000         5.886617071777607E-007
   55.6818750000000         5.908575476226906E-007
   55.8956250000000         5.938291223039634E-007
   56.1093750000000         5.973932097417502E-007
   56.3231250000000         6.018268734918246E-007
   56.5368750000000         6.081588627636666E-007
   56.7506250000000         6.163635472787897E-007
   56.9643750000000         6.300577335887918E-007
   57.1781250000000         6.500816478301774E-007
   57.3918750000000         6.788406683824474E-007
   57.6056250000000         7.179484272565830E-007
   57.8193750000000         7.684717492503571E-007
   58.0331250000000         8.298243449009268E-007
   58.2468750000000         9.013311983728394E-007
   58.4606250000000         9.810482954999044E-007
   58.6743750000000         1.066375113330066E-006
   58.8881250000000         1.150004842286694E-006
   59.1018750000000         1.237877446533902E-006
   59.3156250000000         1.314137994503478E-006
   59.5293750000000         1.387931114668055E-006
   59.7431250000000         1.451380886826447E-006
   59.9568750000000         1.504460256818525E-006
   60.1706250000000         1.547529698978044E-006
   60.3843750000000         1.580198726348914E-006
   60.5981250000000         1.603908415066663E-006
   60.8118750000000         1.619865851145838E-006
   61.0256250000000         1.633744173315885E-006
   61.2393750000000         1.634000791943683E-006
   61.4531250000000         1.638670207226138E-006
   61.6668750000000         1.634297651432504E-006
   61.8806250000000         1.625302340793515E-006
   62.0943750000000         1.610280467886359E-006
   62.3081250000000         1.588950287444915E-006
   62.5218750000000         1.562096995660744E-006
   62.7356250000000         1.528350059109564E-006
   62.9493750000000         1.492369044348174E-006
   63.1631250000000         1.439907068247408E-006
   63.3768750000000         1.387520544702214E-006
   63.5906250000000         1.323079195253171E-006
   63.8043750000000         1.257105928695927E-006
   64.0181250000000         1.195142211643413E-006
   64.2318750000000         1.127964890246948E-006
   64.4456250000000         1.066486142669960E-006
   64.6593750000000         1.012994909711178E-006
   64.8731250000000         9.697307652199936E-007
   65.0868750000000         9.389439175387123E-007
   65.3006250000000         9.224482037838936E-007
   65.5143750000000         9.211961367033577E-007
   65.7281250000000         9.354353161291595E-007
   65.9418750000000         9.662912611892415E-007
   66.1556250000000         1.012421985913769E-006
   66.3693750000000         1.072161083873586E-006
   66.5831250000000         1.142913222242515E-006
   66.7968750000000         1.221984542519909E-006
   67.0106250000000         1.306180634646528E-006
   67.2243750000000         1.391954093931163E-006
   67.4381250000000         1.475571183999725E-006
   67.6518750000000         1.556979686495571E-006
   67.8656250000000         1.623607576318790E-006
   68.0793750000000         1.684261402500330E-006
   68.2931250000000         1.725136102271046E-006
   68.5068750000000         1.753493873802505E-006
   68.7206250000000         1.762673374830457E-006
   68.9343750000000         1.758841600506547E-006
   69.1481250000000         1.742195100724186E-006
   69.3618750000000         1.714581425220924E-006
   69.5756250000000         1.678406336567275E-006
   69.7893750000000         1.636367567706660E-006
   70.0031250000000         1.591388292589955E-006
   70.2168750000000         1.546420243680585E-006
   70.4306250000000         1.504308528564927E-006
   70.6443750000000         1.468130664439647E-006
   70.8581250000000         1.439782472629230E-006
   71.0718750000000         1.421766016169674E-006
   71.2856250000000         1.418718392643548E-006
   71.4993750000000         1.422957229786984E-006
   71.7131250000000         1.456592938232379E-006
   71.9268750000000         1.500709492389090E-006
   72.1406250000000         1.573789314483751E-006
   72.3543750000000         1.660263992036588E-006
   72.5681250000000         1.773060809601229E-006
   72.7818750000000         1.902573336796770E-006
   72.9956250000000         2.043182527877047E-006
   73.2093750000000         2.195904704956993E-006
   73.4231250000000         2.352863729630439E-006
   73.6368750000000         2.506696980146457E-006
   73.8506250000000         2.650796379298663E-006
   74.0643750000000         2.778781109822360E-006
   74.2781250000000         2.885257499250688E-006
   74.4918750000000         2.965396846264978E-006
   74.7056250000000         3.016572239904278E-006
   74.9193750000000         3.038306536771435E-006
   75.1331250000000         3.029268672694873E-006
   75.3468750000000         2.990033617509058E-006
   75.5606250000000         2.933228904651744E-006
   75.7743750000000         2.853777747340039E-006
   75.9881250000000         2.763830250427367E-006
   76.2018750000000         2.666451293250189E-006
   76.4156250000000         2.567438253008041E-006
   76.6293750000000         2.467736919155783E-006
   76.8431250000000         2.370874627499604E-006
   77.0568750000000         2.278704808491338E-006
   77.2706250000000         2.192503527172123E-006
   77.4843750000000         2.113246523149177E-006
   77.6981250000000         2.047153856215658E-006
   77.9118750000000         1.980131532044046E-006
   78.1256250000000         1.929720045369068E-006
   78.3393750000000         1.877588548807257E-006
   78.5531250000000         1.845022402234952E-006
   78.7668750000000         1.812876591695029E-006
   78.9806250000000         1.804168421031243E-006
   79.1943750000000         1.799032914839061E-006
   79.4081250000000         1.813461312898023E-006
   79.6218750000000         1.843770155779648E-006
   79.8356250000000         1.889203067690227E-006
   80.0493750000000         1.949573774894030E-006
   80.2631250000000         2.022137260602905E-006
   80.4768750000000         2.102729133537699E-006
   80.6906250000000         2.188030646254846E-006
   80.9043750000000         2.274519589121667E-006
   81.1181250000000         2.353031267645187E-006
   81.3318750000000         2.435216353951352E-006
   81.5456250000000         2.503058133617522E-006
   81.7593750000000         2.569678517426145E-006
   81.9731250000000         2.623691721224065E-006
   82.1868750000000         2.661423532950723E-006
   82.4006250000000         2.698933106297331E-006
   82.6143750000000         2.722513850861437E-006
   82.8281250000000         2.739159541514208E-006
   83.0418750000000         2.745014973492269E-006
   83.2556250000000         2.743865146512946E-006
   83.4693750000000         2.734466752170050E-006
   83.6831250000000         2.717818498709954E-006
   83.8968750000000         2.696141692238769E-006
   84.1106250000000         2.676141781062464E-006
   84.3243750000000         2.644639182277506E-006
   84.5381250000000         2.621987203354834E-006
   84.7518750000000         2.596021184242627E-006
   84.9656250000000         2.575763224071373E-006
   85.1793750000000         2.563589234061211E-006
   85.3931250000000         2.562650931631239E-006
   85.6068750000000         2.571166179691054E-006
   85.8206250000000         2.603578000479364E-006
   86.0343750000000         2.648903926915623E-006
   86.2481250000000         2.715707489459232E-006
   86.4618750000000         2.799700217804977E-006
   86.6756250000000         2.898019563956467E-006
   86.8893750000000         3.006451795490871E-006
   87.1031250000000         3.114369249866170E-006
   87.3168750000000         3.235593090048841E-006
   87.5306250000000         3.345268497735602E-006
   87.7443750000000         3.461265707334402E-006
   87.9581250000000         3.559980354118593E-006
   88.1718750000000         3.658199507211474E-006
   88.3856250000000         3.743805909573016E-006
   88.5993750000000         3.818067443750814E-006
   88.8131250000000         3.882122125104885E-006
   89.0268750000000         3.937351293073471E-006
   89.2406250000000         3.984525844181502E-006
   89.4543750000000         4.025680950881674E-006
   89.6681250000000         4.060488934027128E-006
   89.8818750000000         4.088280350867912E-006
   90.0956250000000         4.108438249950639E-006
   90.3093750000000         4.118389620672893E-006
   90.5231250000000         4.116162838099896E-006
   90.7368750000000         4.099586796277241E-006
   90.9506250000000         4.066571735614820E-006
   91.1643750000000         4.016512378527301E-006
   91.3781250000000         3.949570482920116E-006
   91.5918750000000         3.867105755562072E-006
   91.8056250000000         3.772188927711221E-006
   92.0193750000000         3.668935584952222E-006
   92.2331250000000         3.562459979715870E-006
   92.4468750000000         3.458530888817199E-006
   92.6606250000000         3.363083112004590E-006
   92.8743750000000         3.281457830529955E-006
   93.0881250000000         3.217949533566350E-006
   93.3018750000000         3.175650694786509E-006
   93.5156250000000         3.155676053715113E-006
   93.7293750000000         3.157377170598057E-006
   93.9431250000000         3.178585506992453E-006
   94.1568750000000         3.213687327206781E-006
   94.3706250000000         3.259033719830284E-006
   94.5843750000000         3.309021031858425E-006
   94.7981250000000         3.358681589168667E-006
   95.0118750000000         3.403925734540924E-006
   95.2256250000000         3.441317832164314E-006
   95.4393750000000         3.469587349668760E-006
   95.6531250000000         3.488548760618160E-006
   95.8668750000000         3.504669319643072E-006
   96.0806250000000         3.506772830744669E-006
   96.2943750000000         3.509108197961471E-006
   96.5081250000000         3.514664076876997E-006
   96.7218750000000         3.525861503368304E-006
   96.9356250000000         3.544670984903369E-006
   97.1493750000000         3.572083235167563E-006
   97.3631250000000         3.607139272352493E-006
   97.5768750000000         3.646693801765330E-006
   97.7906250000000         3.690459746879310E-006
   98.0043750000000         3.735029088282177E-006
   98.2181250000000         3.777205600775353E-006
   98.4318750000000         3.814280092067772E-006
   98.6456250000000         3.844769157095779E-006
   98.8593750000000         3.868069914847485E-006
   99.0731250000000         3.886101706813983E-006
   99.2868750000000         3.901834405054359E-006
   99.5006250000000         3.925937522133996E-006
   99.7143750000000         3.945349609182713E-006
   99.9281250000000         3.984231234892061E-006
   100.141875000000         4.026350573795638E-006
   100.355625000000         4.086797266424812E-006
   100.569375000000         4.160191510826189E-006
   100.783125000000         4.245554222303731E-006
   100.996875000000         4.341519267833310E-006
   101.210625000000         4.443062704100635E-006
   101.424375000000         4.544846087716638E-006
   101.638125000000         4.641421581151669E-006
   101.851875000000         4.727799546740135E-006
   102.065625000000         4.795337100136557E-006
   102.279375000000         4.855282507415210E-006
   102.493125000000         4.892309594531425E-006
   102.706875000000         4.925785806850080E-006
   102.920625000000         4.946259766958304E-006
   103.134375000000         4.960384690520509E-006
   103.348125000000         4.973353486509269E-006
   103.561875000000         4.990619827619075E-006
   103.775625000000         5.012660486384679E-006
   103.989375000000         5.041637850542423E-006
   104.203125000000         5.076946632517131E-006
   104.416875000000         5.117262080306583E-006
   104.630625000000         5.159564001722800E-006
   104.844375000000         5.200022325666180E-006
   105.058125000000         5.234704943281145E-006
   105.271875000000         5.259888108155595E-006
   105.485625000000         5.273190586816375E-006
   105.699375000000         5.273467602930340E-006
   105.913125000000         5.260873734313490E-006
   106.126875000000         5.237626671589938E-006
   106.340625000000         5.206937497081354E-006
   106.554375000000         5.172744223450322E-006
   106.768125000000         5.139448167667902E-006
   106.981875000000         5.111146977697956E-006
   107.195625000000         5.090726214207091E-006
   107.409375000000         5.079778707248017E-006
   107.623125000000         5.078364781298144E-006
   107.836875000000         5.084982015835653E-006
   108.050625000000         5.096865690158947E-006
   108.264375000000         5.110216243382252E-006
   108.478125000000         5.123735851941216E-006
   108.691875000000         5.134769373276351E-006
   108.905625000000         5.135735547468859E-006
   109.119375000000         5.130539442980059E-006
   109.333125000000         5.117318843184097E-006
   109.546875000000         5.097567237968605E-006
   109.760625000000         5.074046698994014E-006
   109.974375000000         5.049039002246205E-006
   110.188125000000         5.026050541005468E-006
   110.401875000000         5.008150325578872E-006
   110.615625000000         4.997791152935083E-006
   110.829375000000         4.995602885242982E-006
   111.043125000000         5.001202743534169E-006
   111.256875000000         5.018648976972326E-006
   111.470625000000         5.030517316026239E-006
   111.684375000000         5.046118357817611E-006
   111.898125000000         5.066885040371337E-006
   112.111875000000         5.074822543317775E-006
   112.325625000000         5.082254801269373E-006
   112.539375000000         5.087764033822901E-006
   112.753125000000         5.092324128638372E-006
   112.966875000000         5.100604983172929E-006
   113.180625000000         5.116078884078853E-006
   113.394375000000         5.142539805503619E-006
   113.608125000000         5.183277370653179E-006
   113.821875000000         5.240692527801523E-006
   114.035625000000         5.315438641836299E-006
   114.249375000000         5.406437677949563E-006
   114.463125000000         5.510345875316978E-006
   114.676875000000         5.622484866799118E-006
   114.890625000000         5.737064951882453E-006
   115.104375000000         5.848000175689126E-006
   115.318125000000         5.949617527389360E-006
   115.531875000000         6.037423517160761E-006
   115.745625000000         6.108738988293632E-006
   115.959375000000         6.163038518744851E-006
   116.173125000000         6.201978195652896E-006
   116.386875000000         6.228933571678222E-006
   116.600625000000         6.248681518757962E-006
   116.814375000000         6.266553856687514E-006
   117.028125000000         6.287700612550593E-006
   117.241875000000         6.316588900355071E-006
   117.455625000000         6.354381477696570E-006
   117.669375000000         6.401296427186267E-006
   117.883125000000         6.455436052708175E-006
   118.096875000000         6.513491874499580E-006
   118.310625000000         6.569199416951654E-006
   118.524375000000         6.616902326531403E-006
   118.738125000000         6.650651209113859E-006
   118.951875000000         6.665677645173000E-006
   119.165625000000         6.659629782724124E-006
   119.379375000000         6.633931951550082E-006
   119.593125000000         6.590139878383206E-006
   119.806875000000         6.532732566156401E-006
   120.020625000000         6.468050327982615E-006
   120.234375000000         6.403696626852017E-006
   120.448125000000         6.347243185289132E-006
   120.661875000000         6.305571141844663E-006
   120.875625000000         6.283881004600125E-006
   121.089375000000         6.287163819009422E-006
   121.303125000000         6.308207861122225E-006
   121.516875000000         6.346027947445734E-006
   121.730625000000         6.397160559462213E-006
   121.944375000000         6.456102360208702E-006
   122.158125000000         6.515769267951313E-006
   122.371875000000         6.570725753978621E-006
   122.585625000000         6.616436502267371E-006
   122.799375000000         6.650519438544760E-006
   123.013125000000         6.672882032083274E-006
   123.226875000000         6.685930767113365E-006
   123.440625000000         6.693539456517080E-006
   123.654375000000         6.700078367620955E-006
   123.868125000000         6.710577196248021E-006