  -1.60312500000000         0.000000000000000E+000
  -1.38937500000000         0.000000000000000E+000
  -1.17562500000000         0.000000000000000E+000
 -0.961875000000000         0.000000000000000E+000
 -0.748125000000000         0.000000000000000E+000
 -0.534375000000000         0.000000000000000E+000
 -0.320625000000000         0.000000000000000E+000
 -0.106875000000000         0.000000000000000E+000
  0.106875000000000         0.000000000000000E+000
  0.320625000000000         0.000000000000000E+000
  0.534375000000000         0.000000000000000E+000
  0.748125000000000         0.000000000000000E+000
  0.961875000000000         0.000000000000000E+000
   1.17562500000000         0.000000000000000E+000
   1.38937500000000         0.000000000000000E+000
   1.60312500000000         0.000000000000000E+000
   1.81687500000000         0.000000000000000E+000
   2.03062500000000         0.000000000000000E+000
   2.24437500000000         0.000000000000000E+000
   2.45812500000000         0.000000000000000E+000
   2.67187500000000         0.000000000000000E+000
   2.88562500000000         0.000000000000000E+000
   3.09937500000000         0.000000000000000E+000
   3.31312500000000         0.000000000000000E+000
   3.52687500000000         0.000000000000000E+000
   3.74062500000000         0.000000000000000E+000
   3.95437500000000         0.000000000000000E+000
   4.16812500000000         0.000000000000000E+000
   4.38187500000000         0.000000000000000E+000
   4.59562500000000         0.000000000000000E+000
   4.80937500000000         0.000000000000000E+000
   5.02312500000000         0.000000000000000E+000
   5.23687500000000         0.000000000000000E+000
   5.45062500000000         0.000000000000000E+000
   5.66437500000000         0.000000000000000E+000
   5.87812500000000         0.000000000000000E+000
   6.09187500000000         0.000000000000000E+000
   6.30562500000000         0.000000000000000E+000
   6.51937500000000         0.000000000000000E+000
   6.73312500000000         0.000000000000000E+000
   6.94687500000000         0.000000000000000E+000
   7.16062500000000         0.000000000000000E+000
   7.37437500000000         0.000000000000000E+000
   7.58812500000000         0.000000000000000E+000
   7.80187500000000         0.000000000000000E+000
   8.01562500000000         0.000000000000000E+000
   8.22937500000000         8.460135919463169E-180
   8.44312500000000        -1.808020162368015E-173
   8.65687500000000         2.234332239555569E-170
   8.87062500000000        -2.680391581510303E-168
   9.08437500000000         1.001324829135269E-166
   9.29812500000000         7.970654353416505E-166
   9.51187500000000        -2.217783409986272E-163
   9.72562500000000        -8.664715737035539E-162
   9.93937500000000        -1.619015066118243E-160
   10.1531250000000        -1.731410648148194E-159
   10.3668750000000        -1.509331268177761E-154
   10.5806250000000        -1.268534449977225E-152
   10.7943750000000        -5.345984833456845E-151
   11.0081250000000        -1.504983266945439E-149
   11.2218750000000        -3.181010572890841E-148
   11.4356250000000        -5.378684713014727E-147
   11.6493750000000        -7.568378816898178E-146
   11.8631250000000        -9.099868672142263E-145
   12.0768750000000        -9.522687697209280E-144
   12.2906250000000        -8.784383521765146E-143
   12.5043750000000        -7.201967109192221E-142
   12.7181250000000        -5.267708856964729E-141
   12.9318750000000        -3.431585022479665E-140
   13.1456250000000        -1.970166385971500E-139
   13.3593750000000        -9.679354131184306E-139
   13.5731250000000        -3.730769051147823E-138
   13.7868750000000        -7.315842830842953E-138
   14.0006250000000         4.655532020979769E-137
   14.2143750000000         7.379799091028542E-136
   14.4281250000000         6.341648075139069E-135
   14.6418750000000         4.380857715709669E-134
   14.8556250000000         2.659323142095517E-133
   15.0693750000000         1.470387706089938E-132
   15.2831250000000         7.544596366692072E-132
   15.4968750000000         3.632996546474275E-131
   15.7106250000000         1.654148050542107E-130
   15.9243750000000         7.159746372871498E-130
   16.1381250000000         2.958006830195822E-129
   16.3518750000000         1.170222766057249E-128
   16.5656250000000         4.444625722507084E-128
   16.7793750000000         1.624202838763584E-127
   16.9931250000000         5.721155191550198E-127
   17.2068750000000         1.945613897938751E-126
   17.4206250000000         6.396819622764501E-126
   17.6343750000000         2.035831498649859E-125
   17.8481250000000         6.278688862226745E-125
   18.0618750000000         1.878355597706695E-124
   18.2756250000000         5.455841386967012E-124
   18.4893750000000         1.539861336410504E-123
   18.7031250000000         4.226407861948600E-123
   18.9168750000000         1.128867675683232E-122
   19.1306250000000         2.936235688091124E-122
   19.3443750000000         7.442111854875697E-122
   19.5581250000000         1.839208692183928E-121
   19.7718750000000         4.434684322276991E-121
   19.9856250000000         1.043898258210868E-120
   20.1993750000000         2.400425364602220E-120
   20.4131250000000         5.395502607630907E-120
   20.6268750000000         1.186262285914893E-119
   20.8406250000000         2.552947134983777E-119
   21.0543750000000         5.381954490343712E-119
   21.2681250000000         1.112288135408191E-118
   21.4818750000000         2.255425649359322E-118
   21.6956250000000         4.490880398323775E-118
   21.9093750000000         8.787586753455276E-118
   22.1231250000000         1.691004670110193E-117
   22.3368750000000         3.201686396833010E-117
   22.5506250000000         5.965701820904308E-117
   22.7643750000000         1.093666899978147E-116
   22.9781250000000         1.970879571736510E-116
   23.1918750000000         3.485045325081265E-116
   23.4056250000000         6.028546502277212E-116
   23.6193750000000         1.015260830754975E-115
   23.8331250000000         1.651949652876199E-115
   24.0468750000000         2.564745623002746E-115
   24.2606250000000         3.715114860517814E-115
   24.4743750000000         4.787688990280355E-115
   24.6881250000000         4.779696217346388E-115
   24.9018750000000         1.164857626549333E-115
   25.1156250000000        -1.170227995867516E-114
   25.3293750000000        -4.545367318243049E-114
   25.5431250000000        -1.225544374069231E-113
   25.7568750000000        -2.839561858928463E-113
   25.9706250000000        -6.002067272102463E-113
   26.1843750000000        -1.185744298146686E-112
   26.3981250000000        -2.213635922249776E-112
   26.6118750000000        -3.922694305326395E-112
   26.8256250000000        -6.598800087168573E-112
   27.0393750000000        -1.049487975157487E-111
   27.2531250000000        -1.562675378638555E-111
   27.4668750000000        -2.134352422880968E-111
   27.6806250000000        -2.552359149877080E-111
   27.8943750000000        -2.320140454570874E-111
   28.1081250000000        -4.411980160766211E-112
   28.3218750000000         4.889750340074989E-111
   28.5356250000000         1.668058015851935E-110
   28.7493750000000         3.955736625586272E-110
   28.9631250000000         8.003218086478935E-110
   29.1768750000000         1.462704217177850E-109
   29.3906250000000         2.467194473851692E-109
   29.6043750000000         3.865548895189406E-109
   29.8181250000000         5.603841530906049E-109
   30.0318750000000         7.390804138782857E-109
   30.2456250000000         8.481629329222563E-109
   30.4593750000000         7.351068367781857E-109
   30.6731250000000         1.239256728196944E-109
   30.8868750000000        -1.441704670576160E-108
   31.1006250000000        -4.658979301807253E-108
   31.3143750000000        -1.050942555494886E-107
   31.5281250000000        -2.024049183229605E-107
   31.7418750000000        -3.519729784094566E-107
   31.9556250000000        -5.634167608252676E-107
   32.1693750000000        -8.317096135096674E-107
   32.3831250000000        -1.115542140644106E-106
   32.5968750000000        -1.297298268690140E-106
   32.8106250000000        -1.113962468568081E-106
   33.0243750000000        -4.651537516633569E-108
   33.2381250000000         2.840289597438976E-106
   33.4518750000000         9.094936410502126E-106
   33.6656250000000         2.104224256040381E-105
   33.8793750000000         4.171238043927881E-105
   34.0931250000000         7.408350252808186E-105
   34.3068750000000         1.187506751465962E-104
   34.5206250000000         1.684783168378636E-104
   34.7343750000000         1.972822984273571E-104
   34.9481250000000         1.410553924912122E-104
   35.1618750000000        -1.328044623440866E-104
   35.3756250000000        -8.658577505895396E-104
   35.5893750000000        -2.448303009105225E-103
   35.8031250000000        -5.424875952685777E-103
   36.0168750000000        -1.039210967413848E-102
   36.2306250000000        -1.764286179515669E-102
   36.4443750000000        -2.631548953509372E-102
   36.6581250000000        -3.269376494258674E-102
   36.8718750000000        -2.723817654532464E-102
   37.0856250000000         9.951655931925243E-103
   37.2993750000000         1.149695263337073E-101
   37.5131250000000         3.454701377452299E-101
   37.7268750000000         7.807481580745651E-101
   37.9406250000000         1.506274261209832E-100
   38.1543750000000         2.564043774397207E-100
   38.3681250000000         3.839131406436217E-100
   38.5818750000000         4.842183641905957E-100
   38.7956250000000         4.345096052700198E-100
   39.0093750000000        -1.506868521826584E-101
   39.2231250000000        -1.305760479811928E-099
   39.4368750000000        -4.122598522294798E-099
   39.6506250000000        -9.378332926391572E-099
   39.8643750000000        -1.801719438095183E-098
   40.0781250000000        -3.044788785034417E-098
   40.2918750000000        -4.532235875237837E-098
   40.5056250000000        -5.730535820572320E-098
   40.7193750000000        -5.351091807657038E-098
   40.9331250000000        -8.568588502319928E-099
   41.1468750000000         1.209264723802492E-097
   41.3606250000000         4.001804773145311E-097
   41.5743750000000         9.128859857128990E-097
   41.7881250000000         1.741074434749578E-096
   42.0018750000000         2.912534989175605E-096
   42.2156250000000         4.294169048162434E-096
   42.4293750000000         5.406698345378066E-096
   42.6431250000000         5.142853773012744E-096
   42.8568750000000         1.398820197378055E-096
   43.0706250000000        -9.305931936252119E-096
   43.2843750000000        -3.202107093867486E-095
   43.4981250000000        -7.296727099871284E-095
   43.7118750000000        -1.378549961540052E-094
   43.9256250000000        -2.278817890009442E-094
   44.1393750000000        -3.320733509026952E-094
   44.3531250000000        -4.146224238712157E-094
   44.5668750000000        -3.965811407071553E-094
   44.7806250000000        -1.333482284131551E-094
   44.9943750000000         6.062286467597350E-094
   45.2081250000000         2.145633539087147E-093
   45.4218750000000         4.866134435526194E-093
   45.6356250000000         9.091293804288946E-093
   45.8493750000000         1.483354312685160E-092
   46.0631250000000         2.133548239735192E-092
   46.2768750000000         2.634797464821040E-092
   46.4906250000000         2.513899624050145E-092
   46.7043750000000         9.354264088136936E-093
   46.9181250000000        -3.390716276534084E-092
   47.1318750000000        -1.220445063659642E-091
   47.3456250000000        -2.746163858949440E-091
   47.5593750000000        -5.067186889741865E-091
   47.7731250000000        -8.154690352838082E-091
   47.9868750000000        -1.156800957104174E-090
   48.2006250000000        -1.410672688184211E-090
   48.4143750000000        -1.335786464332819E-090
   48.6281250000000        -5.213106481206461E-091
   48.8418750000000         1.645679306938007E-090
   49.0556250000000         5.961270309257315E-090
   49.2693750000000         1.327604025028802E-089
   49.4831250000000         2.417388880675053E-089
   49.6968750000000         3.835767715169913E-089
   49.9106250000000         5.364597889335104E-089
   50.1243750000000         6.453955644284063E-089
   50.3381250000000         6.045675641178063E-089
   50.5518750000000         2.400791459521371E-089
   50.7656250000000        -6.987954648064147E-089
   50.9793750000000        -2.525467311517244E-088
   51.1931250000000        -5.556971086344801E-088
   51.4068750000000        -9.980606766793250E-088
   51.6206250000000        -1.561333877118888E-087
   51.8343750000000        -2.152725994440749E-087
   52.0481250000000        -2.553946633466785E-087
   52.2618750000000        -2.362004697539845E-087
   52.4756250000000        -9.369811595972973E-088
   52.6893750000000         2.613148047063997E-087
   52.9031250000000         9.360786730309658E-087
   53.1168750000000         2.032816163438692E-086
   53.3306250000000         3.600804405946816E-086
   53.5443750000000         5.554401297649912E-086
   53.7581250000000         7.551175831664603E-086
   53.9718750000000         8.833730044319101E-086
   54.1856250000000         8.057408740115272E-086
   54.3993750000000         3.156659336842503E-086
   54.6131250000000        -8.653553489990242E-086
   54.8268750000000        -3.059096117107073E-085
   55.0406250000000        -6.552921345090595E-085
   55.2543750000000        -1.144925250169804E-084
   55.4681250000000        -1.742046941321607E-084
   55.6818750000000        -2.336038981113399E-084
   55.8956250000000        -2.695352816174484E-084
   56.1093750000000        -2.423748350204663E-084
   56.3231250000000        -9.317022278554009E-085
   56.5368750000000         2.550005255198906E-084
   56.7506250000000         8.874748999097471E-084
   56.9643750000000         1.875148888870701E-083
   57.1781250000000         3.232797925153742E-083
   57.3918750000000         4.854256165269745E-083
   57.6056250000000         6.424157622202479E-083
   57.8193750000000         7.314201403029581E-083
   58.0331250000000         6.485695800123115E-083
   58.2468750000000         2.440062999927747E-083
   58.4606250000000        -6.715959531508936E-083
   58.6743750000000        -2.299734998173814E-082
   58.8881250000000        -4.794749065985739E-082
   59.1018750000000        -8.161294608939339E-082
   59.3156250000000        -1.210161271117061E-081
   59.5293750000000        -1.581623832227506E-081
   59.7431250000000        -1.778166408386732E-081
   59.9568750000000        -1.555951430722536E-081
   60.1706250000000        -5.734068808502403E-082
   60.3843750000000         1.587526772929784E-081
   60.5981250000000         5.353264496312117E-081
   60.8118750000000         1.102152968524032E-080
   61.0256250000000         1.853569191367144E-080
   61.2393750000000         2.716198053750974E-080
   61.4531250000000         3.508566058272400E-080
   61.6668750000000         3.898452293069527E-080
   61.8806250000000         3.370028915484164E-080
   62.0943750000000         1.220856330010789E-080
   62.3081250000000        -3.382431574085691E-080
   62.5218750000000        -1.125355800879738E-079
   62.7356250000000        -2.290270824199808E-079
   62.9493750000000        -3.808909909788753E-079
   63.1631250000000        -5.520529814267245E-079
   63.3768750000000        -7.053860120245199E-079
   63.5906250000000        -7.753515825502558E-079
   63.8043750000000        -6.630453232182712E-079
   64.0181250000000        -2.373824804225852E-079
   64.2318750000000         6.524648479241918E-079
   64.4456250000000         2.147293084995447E-078
   64.6593750000000         4.324756695511943E-078
   64.8731250000000         7.118966900641789E-078
   65.0868750000000         1.021389957487853E-077
   65.3006250000000         1.292080095446712E-077
   65.5143750000000         1.406354607337138E-077
   65.7281250000000         1.191409485366184E-077
   65.9418750000000         4.240974163931940E-078
   66.1556250000000        -1.144707695955912E-077
   66.3693750000000        -3.736971150512007E-077
   66.5831250000000        -7.457207069690694E-077
   66.7968750000000        -1.216081565733002E-076
   67.0106250000000        -1.728572009746134E-076
   67.2243750000000        -2.166686214647554E-076
   67.4381250000000        -2.337448493691648E-076
   67.6518750000000        -1.964393853597112E-076
   67.8656250000000        -6.993477923700397E-077
   68.0793750000000         1.834974025992091E-076
   68.2931250000000         5.958755269153055E-076
   68.5068750000000         1.179481861395807E-075
   68.7206250000000         1.907117061761302E-075
   68.9343750000000         2.687727063754436E-075
   69.1481250000000         3.340708668877937E-075
   69.3618750000000         3.575223165197813E-075
   69.5756250000000         2.984446979496611E-075
   69.7893750000000         1.068285287356065E-075
   70.0031250000000        -2.699361359789618E-075
   70.2168750000000        -8.742690940471720E-075
   70.4306250000000        -1.718393076301432E-074
   70.6443750000000        -2.757093652350062E-074
   70.8581250000000        -3.855246587236175E-074
   71.0718750000000        -4.755122271767309E-074
   71.2856250000000        -5.052392303343637E-074
   71.4993750000000        -4.194182694798331E-074
   71.7131250000000        -1.516595448465287E-074
   71.9268750000000         3.658530915497295E-074
   72.1406250000000         1.184917572637934E-073
   72.3543750000000         2.314993816956461E-073
   72.5681250000000         3.688493798885244E-073
   72.7818750000000         5.120810790730455E-073
   72.9956250000000         6.271971135149041E-073
   73.2093750000000         6.621453942288142E-073
   73.4231250000000         5.472699198694739E-073
   73.6368750000000         2.008001409875548E-073
   73.8506250000000        -4.583836805468625E-073
   74.0643750000000        -1.488779526231497E-072
   74.2781250000000        -2.894201452981593E-072
   74.4918750000000        -4.582771345369798E-072
   74.7056250000000        -6.321294638171286E-072
   74.9193750000000        -7.693669712748924E-072
   75.1331250000000        -8.077102798922250E-072
   75.3468750000000        -6.655047923594405E-072
   75.5606250000000        -2.489636859352173E-072
   75.7743750000000         5.323007276740601E-072
   75.9881250000000         1.739617486845701E-071
   76.2018750000000         3.368953059466415E-071
   76.4156250000000         5.305823017254305E-071
   76.6293750000000         7.276822690071123E-071
   76.8431250000000         8.807783425336899E-071
   77.0568750000000         9.203772198542240E-071
   77.2706250000000         7.571057224032876E-071
   77.4843750000000         2.904306607717507E-071
   77.6981250000000        -5.738316070412763E-071
   77.9118750000000        -1.895621801774227E-070
   78.1256250000000        -3.662291975063462E-070
   78.3393750000000        -5.742305104670345E-070
   78.5531250000000        -7.837135474531360E-070
   78.7668750000000        -9.442085834119024E-070
   78.9806250000000        -9.831662886306929E-070
   79.1943750000000        -8.089462005834981E-070
   79.4081250000000        -3.204735769341203E-070
   79.6218750000000         5.743951593268734E-070
   79.8356250000000         1.930551504369512E-069
   80.0493750000000         3.727726001457298E-069
   80.2631250000000         5.825930186802178E-069
   80.4768750000000         7.920705510289011E-069
   80.6906250000000         9.508850985605162E-069
   80.9043750000000         9.879640082192529E-069
   81.1181250000000         8.150030024486034E-069
   81.3318750000000         3.363636204292642E-069
   81.5456250000000        -5.329417343841512E-069
   81.7593750000000        -1.840308887148290E-068
   81.9731250000000        -3.560356539543189E-068
   82.1868750000000        -5.554608393225485E-068
   82.4006250000000        -7.532316849308963E-068
   82.6143750000000        -9.022349922234811E-068
   82.8281250000000        -9.369634901004867E-068
   83.0418750000000        -7.772261708243203E-068
   83.2556250000000        -3.375794087452749E-068
   83.4693750000000         4.561807313655676E-068
   83.6831250000000         1.642942819697149E-067
   83.8968750000000         3.195535774150585E-067
   84.1106250000000         4.986326441692652E-067
   84.3243750000000         6.754835429831802E-067
   84.5381250000000         8.086010311752896E-067
   84.7518750000000         8.410550650239143E-067
   84.9656250000000         7.040471953019767E-067
   85.1793750000000         3.252945532270250E-067
   85.3931250000000        -3.567753843584355E-067
   85.6068750000000        -1.372768756685722E-066
   85.8206250000000        -2.696977617383647E-066
   86.0343750000000        -4.219626122118899E-066
   86.2481250000000        -5.721509138575171E-066
   86.4618750000000        -6.858086506787704E-066
   86.6756250000000        -7.162092169154903E-066
   86.8893750000000        -6.074843827110601E-066
   87.1031250000000        -3.015946596799005E-066
   87.3168750000000         2.501840342680519E-066
   87.5306250000000         1.071189512567606E-065
   87.7443750000000         2.139620369956302E-065
   87.9581250000000         3.367323638378408E-065
   88.1718750000000         4.580923298421181E-065
   88.3856250000000         5.510722115563261E-065
   88.5993750000000         5.794169525135499E-065
   88.8131250000000         5.001328804680234E-065
   89.0268750000000         2.689160130321143E-065
   89.2406250000000        -1.510996453635666E-065
   89.4543750000000        -7.773072726373006E-065
   89.6681250000000        -1.593062915195474E-064
   89.8818750000000        -2.532305403308410E-064
   90.0956250000000        -3.466185014387788E-064
   90.3093750000000        -4.195635868350611E-064
   90.5231250000000        -4.454699953909681E-064
   90.7368750000000        -3.929732941617606E-064
   90.9506250000000        -2.299031239717105E-064
   91.1643750000000         7.044441355862691E-065
   91.3781250000000         5.207988867852647E-064
   91.5918750000000         1.109753463050711E-063
   91.8056250000000         1.791182651674896E-063
   92.0193750000000         2.475211739057575E-063
   92.2331250000000         3.023423014587590E-063
   92.4468750000000         3.251511138744235E-063
   92.6606250000000         2.942735740532052E-063
   92.8743750000000         1.875034111337032E-063
   93.0881250000000        -1.366670143947016E-064
   93.3018750000000        -3.183718944988804E-063
   93.5156250000000        -7.196715104200332E-063
   93.7293750000000        -1.187646172964880E-062
   93.9431250000000        -1.663588446353730E-062
   94.1568750000000        -2.057011803357616E-062
   94.3706250000000        -2.247501488093233E-062
   94.5843750000000        -2.093470210388742E-062
   94.7981250000000        -1.449525220180032E-062
   95.0118750000000        -1.932783387658348E-063
   95.2256250000000         1.739041040849680E-062
   95.4393750000000         4.310873794525301E-062
   95.6531250000000         7.342754143488925E-062
   95.8668750000000         1.047682022495846E-061
   96.0806250000000         1.315881875418848E-061
   96.2943750000000         1.464958809413609E-061
   96.5081250000000         1.407797571022283E-061
   96.7218750000000         1.054475671520828E-061
   96.9356250000000         3.281728172583832E-062
   97.1493750000000        -8.138589476720284E-062
   97.3631250000000        -2.355915707321014E-061
   97.5768750000000        -4.199133767464240E-061
   97.7906250000000        -6.141029237844571E-061
   98.0043750000000        -7.865160236694769E-061
   98.2181250000000        -8.947549317924759E-061
   98.4318750000000        -8.886338189831809E-061
   98.6456250000000        -7.159666275499007E-061
   98.8593750000000        -3.313663909292832E-061
   99.0731250000000         2.922397610014949E-061
   99.2868750000000         1.150319972803298E-060
   99.5006250000000         2.193362328676759E-060
   99.7143750000000         3.315866656486607E-060
   99.9281250000000         4.350785871994772E-060
   100.141875000000         5.072823244699130E-060
   100.355625000000         5.213816063376407E-060
   100.569375000000         4.492579988526004E-060
   100.783125000000         2.659924670746519E-060
   100.996875000000        -4.429470764297374E-061
   101.210625000000        -4.817656724717460E-060
   101.424375000000        -1.024210456995678E-059
   101.638125000000        -1.621629933889560E-059
   101.851875000000        -2.193541445560050E-059
   102.065625000000        -2.630599721974888E-059
   102.279375000000        -2.801982966444551E-059
   102.493125000000        -2.569527345027968E-059
   102.706875000000        -1.808760816342604E-059
   102.920625000000        -4.358002683572156E-060
   103.134375000000         1.562383059273747E-059
   103.348125000000         4.098389116454731E-059
   103.561875000000         6.960982450263372E-059
   103.775625000000         9.804280084683166E-059
   103.989375000000         1.215608663926837E-058
   104.203125000000         1.345089837230593E-058
   104.416875000000         1.309067157529894E-058
   104.630625000000         1.053257095042970E-058
   104.844375000000         5.397782180693020E-059
   105.058125000000        -2.410388118768015E-059
   105.271875000000        -1.259663198089417E-058
   105.485625000000        -2.439392982148714E-058
   105.699375000000        -3.653778917512567E-058
   105.913125000000        -4.731612649276830E-058
   106.126875000000        -5.470950229644818E-058
   106.340625000000        -5.662418892370041E-058
   106.554375000000        -5.120368289580143E-058
   106.768125000000        -3.718458830418979E-058
   106.981875000000        -1.424340596111331E-058
   107.195625000000         1.673408342523406E-058
   107.409375000000         5.353453422719088E-058
   107.623125000000         9.271467735505086E-058
   107.836875000000         1.299530971629195E-057
   108.050625000000         1.606490569428993E-057
   108.264375000000         1.807002995338286E-057
   108.478125000000         1.873229792183744E-057
   108.691875000000         1.797135099040332E-057
   108.905625000000         1.593119226428462E-057
   109.119375000000         1.294296654157923E-057
   109.333125000000         9.407104656287395E-058
   109.546875000000         5.592022997795197E-058
   109.760625000000         1.368657694085571E-058
   109.974375000000        -4.071579385296039E-058
   110.188125000000        -1.243715789805357E-057
   110.401875000000        -2.639008228985576E-057
   110.615625000000        -4.931348223084550E-057
   110.829375000000        -8.468166167651337E-057
   111.043125000000        -1.349607991852844E-056
   111.256875000000        -2.000470231868720E-056
   111.470625000000        -2.753677610391143E-056
   111.684375000000        -3.499256203488140E-056
   111.898125000000        -4.047343181620467E-056
   112.111875000000        -4.122537281371412E-056
   112.325625000000        -3.375344895757524E-056
   112.539375000000        -1.417816132112474E-056
   112.753125000000         2.111113274832279E-056
   112.966875000000         7.448652458501709E-056
   113.180625000000         1.458348621248649E-055
   113.394375000000         2.311532316356206E-055
   113.608125000000         3.212009167640125E-055
   113.821875000000         4.005202745905565E-055
   114.035625000000         4.472214344309336E-055
   114.249375000000         4.339681889838981E-055
   114.463125000000         3.305771820751490E-055
   114.676875000000         1.085223439616910E-055
   114.890625000000        -2.525994694070539E-055
   115.104375000000        -7.569453152465113E-055
   115.318125000000        -1.383419623457780E-054
   115.531875000000        -2.077099473502247E-054
   115.745625000000        -2.742946421358894E-054
   115.959375000000        -3.244093321687206E-054
   116.173125000000        -3.407191695391046E-054
   116.386875000000        -3.037121670641438E-054
   116.600625000000        -1.942666594013877E-054
   116.814375000000         2.656032425894308E-056
   117.028125000000         2.933605904865100E-054
   117.241875000000         6.702267708972945E-054
   117.455625000000         1.106682505411341E-053
   117.669375000000         1.553326723250712E-053
   117.883125000000         1.936412407270656E-053
   118.096875000000         2.160003031681504E-053
   118.310625000000         2.113025386944863E-053
   118.524375000000         1.682093601378382E-053
   118.738125000000         7.703269361212155E-054
   118.951875000000        -6.785828209314523E-054
   119.165625000000        -2.653038412850118E-053
   119.379375000000        -5.046328744354002E-053
   119.593125000000        -7.634327577844350E-053
   119.806875000000        -1.006401020688459E-052
   120.020625000000        -1.185925899480345E-052
   120.234375000000        -1.245009351511071E-052
   120.448125000000        -1.122993039479417E-052
   120.661875000000        -7.642540600219468E-053
   120.875625000000        -1.295977225246321E-053
   121.089375000000         7.904924017551277E-053
   121.303125000000         1.962234550614601E-052
   121.516875000000         3.296695414672519E-052
   121.730625000000         4.642380651683993E-052
   121.944375000000         5.785246096111615E-052
   122.158125000000         6.459022033265368E-052
   122.371875000000         6.368142905101900E-052
   122.585625000000         5.224365223123242E-052
   122.799375000000         2.796310533880492E-052
   123.013125000000        -1.031242171720909E-052
   123.226875000000        -6.194279203607933E-052
   123.440625000000        -1.239149810833633E-051
   123.654375000000        -1.904253449408421E-051
   123.868125000000        -2.527523816593871E-051