  -1.60312500000000         0.000000000000000E+000
  -1.38937500000000         0.000000000000000E+000
  -1.17562500000000         0.000000000000000E+000
 -0.961875000000000         0.000000000000000E+000
 -0.748125000000000         0.000000000000000E+000
 -0.534375000000000         0.000000000000000E+000
 -0.320625000000000         0.000000000000000E+000
 -0.106875000000000         0.000000000000000E+000
  0.106875000000000         0.000000000000000E+000
  0.320625000000000         0.000000000000000E+000
  0.534375000000000         0.000000000000000E+000
  0.748125000000000         0.000000000000000E+000
  0.961875000000000         0.000000000000000E+000
   1.17562500000000         0.000000000000000E+000
   1.38937500000000         0.000000000000000E+000
   1.60312500000000         0.000000000000000E+000
   1.81687500000000         0.000000000000000E+000
   2.03062500000000         0.000000000000000E+000
   2.24437500000000         0.000000000000000E+000
   2.45812500000000         0.000000000000000E+000
   2.67187500000000         0.000000000000000E+000
   2.88562500000000         0.000000000000000E+000
   3.09937500000000         0.000000000000000E+000
   3.31312500000000         0.000000000000000E+000
   3.52687500000000         0.000000000000000E+000
   3.74062500000000         0.000000000000000E+000
   3.95437500000000         0.000000000000000E+000
   4.16812500000000         0.000000000000000E+000
   4.38187500000000         0.000000000000000E+000
   4.59562500000000         0.000000000000000E+000
   4.80937500000000         0.000000000000000E+000
   5.02312500000000         0.000000000000000E+000
   5.23687500000000         0.000000000000000E+000
   5.45062500000000         0.000000000000000E+000
   5.66437500000000         0.000000000000000E+000
   5.87812500000000         0.000000000000000E+000
   6.09187500000000         0.000000000000000E+000
   6.30562500000000         0.000000000000000E+000
   6.51937500000000         0.000000000000000E+000
   6.73312500000000         0.000000000000000E+000
   6.94687500000000         0.000000000000000E+000
   7.16062500000000         0.000000000000000E+000
   7.37437500000000         0.000000000000000E+000
   7.58812500000000         0.000000000000000E+000
   7.80187500000000         0.000000000000000E+000
   8.01562500000000         0.000000000000000E+000
   8.22937500000000        -9.045477089137836E-180
   8.44312500000000         2.355039293093898E-172
   8.65687500000000        -2.561761925167698E-170
   8.87062500000000         2.811919275770902E-168
   9.08437500000000         7.863105574621314E-168
   9.29812500000000         2.178271209664068E-165
   9.51187500000000         3.202618545150754E-163
   9.72562500000000         1.344570651365261E-161
   9.93937500000000         3.155803382386423E-160
   10.1531250000000         4.853863905268870E-159
   10.3668750000000        -7.003957531913532E-155
   10.5806250000000        -5.810636867487650E-153
   10.7943750000000        -2.422121914336934E-151
   11.0081250000000        -6.761124186601903E-150
   11.2218750000000        -1.420186196155481E-148
   11.4356250000000        -2.390945636836794E-147
   11.6493750000000        -3.354535398549509E-146
   11.8631250000000        -4.025044749051995E-145
   12.0768750000000        -4.203796346584316E-144
   12.2906250000000        -3.866574141789146E-143
   12.5043750000000        -3.152895993280460E-142
   12.7181250000000        -2.282023860105809E-141
   12.9318750000000        -1.456594196611164E-140
   13.1456250000000        -8.026682498999619E-140
   13.3593750000000        -3.594549815937996E-139
   13.5731250000000        -1.033119309660462E-138
   13.7868750000000         1.803120893015213E-138
   14.0006250000000         5.832647757473347E-137
   14.2143750000000         5.875089881052591E-136
   14.4281250000000         4.484993034851719E-135
   14.6418750000000         2.948543852214795E-134
   14.8556250000000         1.747665091157704E-133
   15.0693750000000         9.550775048952142E-133
   15.2831250000000         4.875235128578189E-132
   15.4968750000000         2.344221770329165E-131
   15.7106250000000         1.068142430822561E-130
   15.9243750000000         4.632451886501841E-130
   16.1381250000000         1.918853835215555E-129
   16.3518750000000         7.612511403464567E-129
   16.5656250000000         2.899114016111968E-128
   16.7793750000000         1.061924946061813E-127
   16.9931250000000         3.747427694227158E-127
   17.2068750000000         1.275876099391251E-126
   17.4206250000000         4.196314645218103E-126
   17.6343750000000         1.334743744753851E-125
   17.8481250000000         4.109910896118984E-125
   18.0618750000000         1.226205107399201E-124
   18.2756250000000         3.547695294022162E-124
   18.4893750000000         9.961158070376146E-124
   18.7031250000000         2.716187391552224E-123
   18.9168750000000         7.197589885651883E-123
   19.1306250000000         1.854708300652984E-122
   19.3443750000000         4.650613715007353E-122
   19.5581250000000         1.135501664580876E-121
   19.7718750000000         2.701651300857084E-121
   19.9856250000000         6.268965792863800E-121
   20.1993750000000         1.420061562571413E-120
   20.4131250000000         3.143856764203776E-120
   20.6268750000000         6.811860925856882E-120
   20.8406250000000         1.446923126667413E-119
   21.0543750000000         3.019073010740789E-119
   21.2681250000000         6.202497586536458E-119
   21.4818750000000         1.257944051197244E-118
   21.6956250000000         2.525533809874118E-118
   21.9093750000000         5.032558122092945E-118
   22.1231250000000         9.975137200432044E-118
   22.3368750000000         1.969406285085284E-117
   22.5506250000000         3.873753387856774E-117
   22.7643750000000         7.582780555641090E-117
   22.9781250000000         1.473584622085718E-116
   23.1918750000000         2.832835138649155E-116
   23.4056250000000         5.362938365374274E-116
   23.6193750000000         9.944592558192710E-116
   23.8331250000000         1.794796891685948E-115
   24.0468750000000         3.127969947579986E-115
   24.2606250000000         5.207808007686057E-115
   24.4743750000000         8.145517780799793E-115
   24.6881250000000         1.160480291478586E-114
   24.9018750000000         1.400336006673063E-114
   25.1156250000000         1.084870471623210E-114
   25.3293750000000        -8.461626516007900E-115
   25.5431250000000        -6.637121431964584E-114
   25.7568750000000        -2.067376714202776E-113
   25.9706250000000        -5.096453779966862E-113
   26.1843750000000        -1.112251888183632E-112
   26.3981250000000        -2.234297341097681E-112
   26.6118750000000        -4.201727079711483E-112
   26.8256250000000        -7.451494091674083E-112
   27.0393750000000        -1.248210971268538E-111
   27.2531250000000        -1.968469487962736E-111
   27.4668750000000        -2.894588986418721E-111
   27.6806250000000        -3.885829702949510E-111
   27.8943750000000        -4.531564103998476E-111
   28.1081250000000        -3.923348302705707E-111
   28.3218750000000        -3.172571912762072E-112
   28.5356250000000         9.316145046305505E-111
   28.7493750000000         2.980754296797879E-110
   28.9631250000000         6.822600134315247E-110
   29.1768750000000         1.339244857723273E-109
   29.3906250000000         2.376186249872544E-109
   29.6043750000000         3.885540258600027E-109
   29.8181250000000         5.883481519754469E-109
   30.0318750000000         8.195704845276640E-109
   30.2456250000000         1.026655542846348E-108
   30.4593750000000         1.086514636965606E-108
   30.6731250000000         7.665218007444166E-109
   30.8868750000000        -3.311278278150111E-109
   31.1006250000000        -2.836514162731455E-108
   31.3143750000000        -7.681652829516692E-108
   31.5281250000000        -1.614991341722848E-107
   31.7418750000000        -2.985342982755148E-107
   31.9556250000000        -5.052692600747135E-107
   32.1693750000000        -7.940665612277955E-107
   32.3831250000000        -1.157363203608458E-106
   32.5968750000000        -1.535442368193954E-106
   32.8106250000000        -1.752107502542511E-106
   33.0243750000000        -1.395151966553318E-106
   33.2381250000000         3.890463366597183E-107
   33.4518750000000         5.215533838849383E-106
   33.6656250000000         1.589196735027578E-105
   33.8793750000000         3.685383301692850E-105
   34.0931250000000         7.424926617298600E-105
   34.3068750000000         1.348199029593553E-104
   34.5206250000000         2.218414789623226E-104
   34.7343750000000         3.250258035504889E-104
   34.9481250000000         3.995386455903927E-104
   35.1618750000000         3.277602243543350E-104
   35.3756250000000        -1.422118453559223E-104
   35.5893750000000        -1.481415244112181E-103
   35.8031250000000        -4.470228099443188E-103
   36.0168750000000        -1.023497614280987E-102
   36.2306250000000        -2.009382221329139E-102
   36.4443750000000        -3.494483991396259E-102
   36.6581250000000        -5.374301080691000E-102
   36.8718750000000        -7.039913700671557E-102
   37.0856250000000        -6.829563013539587E-102
   37.2993750000000        -1.179585150252295E-102
   37.5131250000000         1.649018920200525E-101
   37.7268750000000         5.686565296430419E-101
   37.9406250000000         1.349833401944186E-100
   38.1543750000000         2.678790414086397E-100
   38.3681250000000         4.664547090475032E-100
   38.5818750000000         7.165185497635016E-100
   38.7956250000000         9.421598863024028E-100
   39.0093750000000         9.442105184401309E-100
   39.2231250000000         3.102238939072569E-100
   39.4368750000000        -1.695106175284473E-099
   39.6506250000000        -6.221737563522151E-099
   39.8643750000000        -1.481752770802876E-098
   40.0781250000000        -2.912537550053799E-098
   40.2918750000000        -4.999501438547544E-098
   40.5056250000000        -7.557157104406761E-098
   40.7193750000000        -9.782545693939252E-098
   40.9331250000000        -9.705972010431392E-098
   41.1468750000000        -3.440486500215116E-098
   41.3606250000000         1.564461191317688E-097
   41.5743750000000         5.745053675393392E-097
   41.7881250000000         1.345710965831746E-096
   42.0018750000000         2.591669645062466E-096
   42.2156250000000         4.350467251961267E-096
   42.4293750000000         6.419530473464448E-096
   42.6431250000000         8.088504931405981E-096
   42.8568750000000         7.743355472182099E-096
   43.0706250000000         2.367253572024963E-096
   43.2843750000000        -1.293837416322277E-095
   43.4981250000000        -4.511198948026578E-095
   43.7118750000000        -1.023911393695097E-094
   43.9256250000000        -1.917205180726510E-094
   44.1393750000000        -3.129479084004639E-094
   44.3531250000000        -4.481744828085220E-094
   44.5668750000000        -5.448356168128021E-094
   44.7806250000000        -4.923673618996443E-094
   44.9943750000000        -9.552281333338803E-095
   45.2081250000000         9.463893687509516E-094
   45.4218750000000         3.034854010004108E-093
   45.6356250000000         6.608019752144379E-093
   45.8493750000000         1.196550503154743E-092
   46.0631250000000         1.891497595062318E-092
   46.2768750000000         2.617032266002459E-092
   46.4906250000000         3.045964604085452E-092
   46.7043750000000         2.538972848777615E-092
   46.9181250000000         2.997097468934409E-094
   47.1318750000000        -6.034010342058598E-092
   47.3456250000000        -1.759430570426695E-091
   47.5593750000000        -3.655671495509196E-091
   47.7731250000000        -6.381052285129987E-091
   47.9868750000000        -9.741975715847690E-091
   48.2006250000000        -1.297557325585030E-090
   48.4143750000000        -1.435419488555824E-090
   48.6281250000000        -1.072611358288408E-090
   48.8418750000000         2.873958784585126E-091
   49.0556250000000         3.327091235957988E-090
   49.2693750000000         8.838645874878133E-090
   49.4831250000000         1.749819015226815E-089
   49.6968750000000         2.940373944739469E-089
   49.9106250000000         4.328817639641559E-089
   50.1243750000000         5.535514122064135E-089
   50.3381250000000         5.779095272395776E-089
   50.5518750000000         3.721718668629113E-089
   50.7656250000000        -2.629812915068998E-089
   50.9793750000000        -1.585417154831958E-088
   51.1931250000000        -3.870053521523996E-088
   51.4068750000000        -7.308939557580646E-088
   51.6206250000000        -1.182559061036681E-087
   51.8343750000000        -1.678060170718576E-087
   52.0481250000000        -2.056497417176775E-087
   52.2618750000000        -2.012147129587492E-087
   52.4756250000000        -1.051263355339973E-087
   52.6893750000000         1.522622696463903E-087
   52.9031250000000         6.555212002006938E-087
   53.1168750000000         1.486246080020830E-086
   53.3306250000000         2.685480646340631E-086
   53.5443750000000         4.189273538073347E-086
   53.7581250000000         5.733023209283749E-086
   53.9718750000000         6.728101487040266E-086
   54.1856250000000         6.129494769934136E-086
   54.3993750000000         2.337961931663940E-086
   54.6131250000000        -6.784926393395948E-086
   54.8268750000000        -2.366832591548989E-085
   55.0406250000000        -5.038896200692347E-085
   55.2543750000000        -8.745042633626561E-085
   55.4681250000000        -1.318289696433449E-084
   55.6818750000000        -1.742471127316097E-084
   55.8956250000000        -1.958956600826127E-084
   56.1093750000000        -1.652775288810725E-084
   56.3231250000000        -3.652488579797682E-085
   56.5368750000000         2.485768240792096E-084
   56.7506250000000         7.516596124051545E-084
   56.9643750000000         1.517972156505257E-083
   57.1781250000000         2.541665778489478E-083
   57.3918750000000         3.713491040966149E-083
   57.6056250000000         4.752015749044523E-083
   57.8193750000000         5.126768030754654E-083
   58.0331250000000         3.993400237122894E-083
   58.2468750000000         1.772408762208758E-084
   58.4606250000000        -7.738862374102272E-083
   58.6743750000000        -2.114753143310614E-082
   58.8881250000000        -4.088483737763386E-082
   59.1018750000000        -6.635644724001120E-082
   59.3156250000000        -9.429076646709852E-082
   59.5293750000000        -1.171901711669204E-081
   59.7431250000000        -1.217297531922539E-081
   59.9568750000000        -8.761891796748486E-082
   60.1706250000000         1.221344075216607E-082
   60.3843750000000         2.088684408887487E-081
   60.5981250000000         5.306014308393882E-081
   60.8118750000000         9.901765809740333E-081
   61.0256250000000         1.565210255421697E-080
   61.2393750000000         2.171477796039478E-080
   61.4531250000000         2.631544352016945E-080
   61.6668750000000         2.644929167094785E-080
   61.8806250000000         1.771395694096787E-080
   62.0943750000000        -5.545027170971407E-081
   62.3081250000000        -4.952919819183478E-080
   62.5218750000000        -1.194311323438936E-079
   62.7356250000000        -2.167473449183764E-079
   62.9493750000000        -3.352947289963505E-079
   63.1631250000000        -4.560398742784465E-079
   63.3768750000000        -5.413410939295256E-079
   63.5906250000000        -5.299446750981233E-079
   63.8043750000000        -3.350553587640325E-079
   64.0181250000000         1.510876052492539E-079
   64.2318750000000         1.041692626824856E-078
   64.4456250000000         2.424038913839421E-078
   64.6593750000000         4.307984328943981E-078
   64.8731250000000         6.552702955235175E-078
   65.0868750000000         8.775420790025207E-078
   65.3006250000000         1.025492384459937E-077
   65.5143750000000         9.855496169875096E-078
   65.7281250000000         6.013043926070904E-078
   65.9418750000000        -3.157755532948716E-078
   66.1556250000000        -1.956281789642668E-077
   66.3693750000000        -4.455906750813364E-077
   66.5831250000000        -7.805803771962900E-077
   66.7968750000000        -1.172950754172085E-076
   67.0106250000000        -1.553518545079485E-076
   67.2243750000000        -1.796691551973007E-076
   67.4381250000000        -1.709902335003549E-076
   67.6518750000000        -1.034165952742692E-076
   67.8656250000000         5.350301219136932E-077
   68.0793750000000         3.295663410025180E-076
   68.2931250000000         7.445333717784935E-076
   68.5068750000000         1.293859102218113E-075
   68.7206250000000         1.929693383641682E-075
   68.9343750000000         2.538806769318465E-075
   69.1481250000000         2.921353116289928E-075
   69.3618750000000         2.777318183321616E-075
   69.5756250000000         1.710829031519945E-075
   69.7893750000000        -7.344377253809098E-076
   70.0031250000000        -4.993797730356230E-075
   70.2168750000000        -1.134029561857797E-074
   70.4306250000000        -1.967593956797999E-074
   70.6443750000000        -2.926075597542162E-074
   70.8581250000000        -3.840673257214505E-074
   71.0718750000000        -4.419486712878556E-074
   71.2856250000000        -4.231265225794718E-074
   71.4993750000000        -2.715163735018743E-074
   71.7131250000000         7.659087091218937E-075
   71.9268750000000         6.809223798997206E-074
   72.1406250000000         1.577687879131127E-073
   72.3543750000000         2.751362494184207E-073
   72.5681250000000         4.098833071336475E-073
   72.7818750000000         5.389826137245447E-073
   72.9956250000000         6.231509977506471E-073
   73.2093750000000         6.049986060992500E-073
   73.4231250000000         4.106387512434566E-073
   73.6368750000000        -4.307251030234232E-074
   73.8506250000000        -8.333859284851939E-073
   74.0643750000000        -2.006728845600536E-072
   74.2781250000000        -3.543336933357834E-072
   74.4918750000000        -5.313059865207536E-072
   74.7056250000000        -7.027453341413236E-072
   74.9193750000000        -8.197970436455712E-072
   75.1331250000000        -8.115600334960871E-072
   75.3468750000000        -5.872828470193532E-072
   75.5606250000000        -4.528686966091125E-073
   75.7743750000000         9.088337781686240E-072
   75.9881250000000         2.332748943978957E-071
   76.2018750000000         4.206149299313593E-071
   76.4156250000000         6.379845611376607E-071
   76.6293750000000         8.521284146064508E-071
   76.8431250000000         1.006772686538528E-070
   77.0568750000000         1.020428298059530E-070
   77.2706250000000         7.889709966253534E-071
   77.4843750000000         1.956846856349841E-071
   77.6981250000000        -8.685509133783487E-071
   77.9118750000000        -2.472923143593493E-070
   78.1256250000000        -4.601829082266799E-070
   78.3393750000000        -7.099963632328152E-070
   78.5531250000000        -9.613967279016014E-070
   78.7668750000000        -1.154256949238292E-069
   78.9806250000000        -1.201313952691811E-069
   79.1943750000000        -9.908163680730284E-070
   79.4081250000000        -3.968800011595476E-070
   79.6218750000000         6.997864804423024E-070
   79.8356250000000         2.378852154390497E-069
   80.0493750000000         4.634769845710248E-069
   80.2631250000000         7.321186969481734E-069
   80.4768750000000         1.009199426527641E-068
   80.6906250000000         1.235077245620776E-068
   80.9043750000000         1.322605588129276E-068
   81.1181250000000         1.159502685966558E-068
   81.3318750000000         6.181464986344522E-069
   81.5456250000000        -4.247013669702111E-069
   81.7593750000000        -2.056452993046719E-068
   81.9731250000000        -4.285325589541804E-068
   82.1868750000000        -6.987469471907079E-068
   82.4006250000000        -9.850737795882838E-068
   82.6143750000000        -1.232588136833204E-067
   82.8281250000000        -1.360100667128312E-067
   83.0418750000000        -1.261970581701216E-067
   83.2556250000000        -8.166011503890752E-068
   83.4693750000000         9.614959072561856E-069
   83.6831250000000         1.567049028410023E-067
   83.8968750000000         3.618855893339785E-067
   84.1106250000000         6.159046401676665E-067
   84.3243750000000         8.929170784001813E-067
   84.5381250000000         1.146005665129228E-066
   84.7518750000000         1.304634081706500E-066
   84.9656250000000         1.275763659184841E-066
   85.1793750000000         9.505920465416181E-067
   85.3931250000000         2.188033005139786E-067
   85.6068750000000        -1.008305878127015E-066
   85.8206250000000        -2.765591428016674E-066
   86.0343750000000        -4.994333053716769E-066
   86.2481250000000        -7.499198579838420E-066
   86.4618750000000        -9.909249234729085E-066
   86.6756250000000        -1.165373469806679E-065
   86.8893750000000        -1.196647239941425E-065
   87.1031250000000        -9.934437272240177E-066
   87.3168750000000        -4.605722838081211E-066
   87.5306250000000         4.831928754502586E-066
   87.7443750000000         1.879941827156020E-065
   87.9581250000000         3.701277733197402E-065
   88.1718750000000         5.813866214345597E-065
   88.3856250000000         7.947347773689288E-065
   88.5993750000000         9.672636972148318E-065
   88.8131250000000         1.040093500497065E-064
   89.0268750000000         9.415203811137711E-065
   89.2406250000000         5.945611893484489E-065
   89.4543750000000        -7.022889475944270E-066
   89.6681250000000        -1.096395264200616E-064
   89.8818750000000        -2.478398379290647E-064
   90.0956250000000        -4.135698511341440E-064
   90.3093750000000        -5.887891749748150E-064
   90.5231250000000        -7.436496056723106E-064
   90.7368750000000        -8.360634715867836E-064
   90.9506250000000        -8.134920095967637E-064
   91.1643750000000        -6.177778742684879E-064
   91.3781250000000        -1.936708753181120E-064
   91.5918750000000         4.987002757846049E-064
   91.8056250000000         1.467810028450512E-063
   92.0193750000000         2.672482056198313E-063
   92.2331250000000         4.003828388401804E-063
   92.4468750000000         5.271022290865735E-063
   92.6606250000000         6.195657390719798E-063
   92.8743750000000         6.420188236727968E-063
   93.0881250000000         5.535990220547909E-063
   93.3018750000000         3.135562203923145E-063
   93.5156250000000        -1.109003177731227E-063
   93.7293750000000        -7.343155126041084E-063
   93.9431250000000        -1.541010899015788E-062
   94.1568750000000        -2.472856484936948E-062
   94.3706250000000        -3.418986786860756E-062
   94.5843750000000        -4.210357202815308E-062
   94.7981250000000        -4.622526253021759E-062
   95.0118750000000        -4.390132397760542E-062
   95.2256250000000        -3.236003022835403E-062
   95.4393750000000        -9.164990568869515E-063
   95.6531250000000         2.717562740397755E-062
   95.8668750000000         7.648263077827573E-062
   96.0806250000000         1.361402524206721E-061
   96.2943750000000         2.004131286983585E-061
   96.5081250000000         2.600083542800356E-061
   96.7218750000000         3.020749062892628E-061
   96.9356250000000         3.108407756883824E-061
   97.1493750000000         2.690633634138574E-061
   97.3631250000000         1.604011247402436E-061
   97.5768750000000        -2.730237257553436E-062
   97.7906250000000        -2.979970962296209E-061
   98.0043750000000        -6.430500729505041E-061
   98.2181250000000        -1.037123964505274E-060
   98.4318750000000        -1.435137905011632E-060
   98.6456250000000        -1.771300613017954E-060
   98.8593750000000        -1.961263034636584E-060
   99.0731250000000        -1.908336094691127E-060
   99.2868750000000        -1.514412022033266E-060
   99.5006250000000        -6.956866767746379E-061
   99.7143750000000         5.974928866591321E-061
   99.9281250000000         2.358293227150331E-060
   100.141875000000         4.501266336087805E-060
   100.355625000000         6.844129815185622E-060
   100.569375000000         9.097922243937985E-060
   100.783125000000         1.087030617479646E-059
   100.996875000000         1.168641978833950E-059
   101.210625000000         1.103045389619287E-059
   101.424375000000         8.408965274225272E-060
   101.638125000000         3.433875630182836E-060
   101.851875000000        -4.080635732960410E-060
   102.065625000000        -1.401715347727143E-059
   102.279375000000        -2.586348053671889E-059
   102.493125000000        -3.864674559601296E-059
   102.706875000000        -5.091034524926734E-059
   102.920625000000        -6.074949402132046E-059
   103.134375000000        -6.591700841134366E-059
   103.348125000000        -6.400410915558684E-059
   103.561875000000        -5.269206225143778E-059
   103.775625000000        -3.006053452960772E-059
   103.989375000000         5.070759369705441E-060
   104.203125000000         5.279731089280246E-059
   104.416875000000         1.118146471720335E-058
   104.630625000000         1.791624886960528E-058
   104.844375000000         2.500497455043594E-058
   105.058125000000         3.177700905314717E-058
   105.271875000000         3.737063124165107E-058
   105.485625000000         4.074159488751892E-058
   105.699375000000         4.067975380284368E-058
   105.913125000000         3.583625646638979E-058
   106.126875000000         2.476866984573747E-058
   106.340625000000         6.018391555343347E-059
   106.554375000000        -2.175707713624825E-058
   106.768125000000        -5.956696998508594E-058
   106.981875000000        -1.077515950144461E-057
   107.195625000000        -1.654989721945308E-057
   107.409375000000        -2.302016361306177E-057
   107.623125000000        -2.966755465109274E-057
   107.836875000000        -3.563168777327726E-057
   108.050625000000        -3.963455511646396E-057
   108.264375000000        -3.993712130705806E-057
   108.478125000000        -3.436057723979377E-057
   108.691875000000        -2.041167376853718E-057
   108.905625000000         4.445996544785036E-058
   109.119375000000         4.233832988370737E-057
   109.333125000000         9.432496911440969E-057
   109.546875000000         1.595528203583045E-056
   109.760625000000         2.342769375213087E-056
   109.974375000000         3.108684037725430E-056
   110.188125000000         3.770004287267523E-056
   110.401875000000         4.152762644879604E-056
   110.615625000000         4.036213483868109E-056
   110.829375000000         3.167881250139875E-056
   111.043125000000         1.292927111144275E-056
   111.256875000000        -1.800052255887153E-056
   111.470625000000        -6.216737606270095E-056
   111.684375000000        -1.188139357856667E-055
   111.898125000000        -1.845500918337276E-055
   112.111875000000        -2.525940573837666E-055
   112.325625000000        -3.122450335518580E-055
   112.539375000000        -3.488028026975051E-055
   112.753125000000        -3.441741746725236E-055
   112.966875000000        -2.783981553470760E-055
   113.180625000000        -1.322667593179392E-055
   113.394375000000         1.088957259438017E-055
   113.608125000000         4.504125839374909E-055
   113.821875000000         8.827559779390147E-055
   114.035625000000         1.376026822387294E-054
   114.249375000000         1.875384713562700E-054
   114.463125000000         2.298685748348530E-054
   114.676875000000         2.537779960617739E-054
   114.890625000000         2.464944749277773E-054
   115.104375000000         1.945705048802238E-054
   115.318125000000         8.587425616564195E-055
   115.531875000000        -8.773222770347289E-055
   115.745625000000        -3.271783676556597E-054
   115.959375000000        -6.227450615717700E-054
   116.173125000000        -9.508877178079065E-054
   116.386875000000        -1.271981324390454E-053
   116.600625000000        -1.529778362172508E-053
   116.814375000000        -1.653423859455281E-053
   117.028125000000        -1.562804387505959E-053
   117.241875000000        -1.177779374175185E-053
   117.455625000000        -4.314245821009829E-054
   117.669375000000         7.132000231278120E-054
   117.883125000000         2.244041427828557E-053
   118.096875000000         4.081000959781593E-053
   118.310625000000         6.059962779730942E-053
   118.524375000000         7.923820693890018E-053
   118.738125000000         9.324890531051424E-053
   118.951875000000         9.843034275693610E-053
   119.165625000000         9.023025691873666E-053
   119.379375000000         6.432991081183029E-053
   119.593125000000         1.743081892380266E-053
   119.806875000000        -5.180074185063708E-053
   120.020625000000        -1.417192144626448E-052
   120.234375000000        -2.467492002011954E-052
   120.448125000000        -3.566756355624651E-052
   120.661875000000        -4.563827528155637E-052
   120.875625000000        -5.262601130611862E-052
   121.089375000000        -5.434735306978661E-052
   121.303125000000        -4.842390708809731E-052
   121.516875000000        -3.271340958335184E-052
   121.730625000000        -5.733020522333368E-053
   121.944375000000         3.285545376741850E-052
   122.158125000000         8.174974143247213E-052
   122.371875000000         1.375729950657334E-051
   122.585625000000         1.945912806109694E-051
   122.799375000000         2.446827907568090E-051
   123.013125000000         2.776575474776099E-051
   123.226875000000         2.820094177123733E-051
   123.440625000000         2.461467348684503E-051
   123.654375000000         1.600924601126098E-051
   123.868125000000         1.757097373948413E-052