  -1.60312500000000         0.000000000000000E+000
  -1.38937500000000         0.000000000000000E+000
  -1.17562500000000         0.000000000000000E+000
 -0.961875000000000         0.000000000000000E+000
 -0.748125000000000         0.000000000000000E+000
 -0.534375000000000         0.000000000000000E+000
 -0.320625000000000         0.000000000000000E+000
 -0.106875000000000         0.000000000000000E+000
  0.106875000000000         0.000000000000000E+000
  0.320625000000000         0.000000000000000E+000
  0.534375000000000         0.000000000000000E+000
  0.748125000000000         0.000000000000000E+000
  0.961875000000000         0.000000000000000E+000
   1.17562500000000         0.000000000000000E+000
   1.38937500000000         0.000000000000000E+000
   1.60312500000000         0.000000000000000E+000
   1.81687500000000         0.000000000000000E+000
   2.03062500000000         0.000000000000000E+000
   2.24437500000000         0.000000000000000E+000
   2.45812500000000         0.000000000000000E+000
   2.67187500000000         0.000000000000000E+000
   2.88562500000000         0.000000000000000E+000
   3.09937500000000         0.000000000000000E+000
   3.31312500000000         0.000000000000000E+000
   3.52687500000000         0.000000000000000E+000
   3.74062500000000         0.000000000000000E+000
   3.95437500000000         0.000000000000000E+000
   4.16812500000000         0.000000000000000E+000
   4.38187500000000         0.000000000000000E+000
   4.59562500000000         0.000000000000000E+000
   4.80937500000000         0.000000000000000E+000
   5.02312500000000         0.000000000000000E+000
   5.23687500000000         0.000000000000000E+000
   5.45062500000000         0.000000000000000E+000
   5.66437500000000         0.000000000000000E+000
   5.87812500000000         0.000000000000000E+000
   6.09187500000000         0.000000000000000E+000
   6.30562500000000         0.000000000000000E+000
   6.51937500000000         0.000000000000000E+000
   6.73312500000000         0.000000000000000E+000
   6.94687500000000         0.000000000000000E+000
   7.16062500000000         0.000000000000000E+000
   7.37437500000000         0.000000000000000E+000
   7.58812500000000         0.000000000000000E+000
   7.80187500000000         0.000000000000000E+000
   8.01562500000000         0.000000000000000E+000
   8.22937500000000         1.156066203304384E-179
   8.44312500000000         2.961017872951906E-173
   8.65687500000000        -5.663380427863947E-172
   8.87062500000000         3.065478621072640E-170
   9.08437500000000         7.276762710702722E-168
   9.29812500000000         4.722512207912248E-166
   9.51187500000000        -5.618942928753637E-166
   9.72562500000000        -6.665439533789277E-163
   9.93937500000000        -2.425059808814147E-161
   10.1531250000000        -4.832830091164990E-160
   10.3668750000000        -7.028036934612340E-155
   10.5806250000000        -5.971523094631707E-153
   10.7943750000000        -2.534506830817771E-151
   11.0081250000000        -7.157775765359392E-150
   11.2218750000000        -1.511415192251096E-148
   11.4356250000000        -2.541429360640284E-147
   11.6493750000000        -3.537586054387985E-146
   11.8631250000000        -4.181123386114962E-145
   12.0768750000000        -4.266418563356423E-144
   12.2906250000000        -3.795546309533931E-143
   12.5043750000000        -2.952545713488886E-142
   12.7181250000000        -1.995188887587240E-141
   12.9318750000000        -1.142274142455057E-140
   13.1456250000000        -5.126359022828605E-140
   13.3593750000000        -1.248462630701858E-139
   13.5731250000000         6.672578748626699E-139
   13.7868750000000         1.299552038224935E-137
   14.0006250000000         1.258379989155402E-136
   14.2143750000000         9.629532624350416E-136
   14.4281250000000         6.417492635795865E-135
   14.6418750000000         3.871034916409949E-134
   14.8556250000000         2.156036052552906E-133
   15.0693750000000         1.122281653966642E-132
   15.2831250000000         5.504226785363833E-132
   15.4968750000000         2.558583956948305E-131
   15.7106250000000         1.132332308175341E-130
   15.9243750000000         4.788369972136898E-130
   16.1381250000000         1.940608112990946E-129
   16.3518750000000         7.556582568486914E-129
   16.5656250000000         2.833389318005327E-128
   16.7793750000000         1.025003652709595E-127
   16.9931250000000         3.583785311595453E-127
   17.2068750000000         1.212961364040250E-126
   17.4206250000000         3.979940684422907E-126
   17.6343750000000         1.267716823017850E-125
   17.8481250000000         3.924982138680204E-125
   18.0618750000000         1.182616987678932E-124
   18.2756250000000         3.471630080932615E-124
   18.4893750000000         9.939620695406607E-124
   18.7031250000000         2.778367027473942E-123
   18.9168750000000         7.589272484621711E-123
   19.1306250000000         2.027575260994663E-122
   19.3443750000000         5.302252146351603E-122
   19.5581250000000         1.358159681037033E-121
   19.7718750000000         3.409606435408782E-121
   19.9856250000000         8.393186950813570E-121
   20.1993750000000         2.026611629461774E-120
   20.4131250000000         4.800958045911425E-120
   20.6268750000000         1.115908852196163E-119
   20.8406250000000         2.544695403110872E-119
   21.0543750000000         5.691690310855875E-119
   21.2681250000000         1.248135435789741E-118
   21.4818750000000         2.681831876589355E-118
   21.6956250000000         5.641472480272652E-118
   21.9093750000000         1.160584744653214E-117
   22.1231250000000         2.331744676912739E-117
   22.3368750000000         4.566904882058502E-117
   22.5506250000000         8.698954549517905E-117
   22.7643750000000         1.606257013669697E-116
   22.9781250000000         2.862116975506571E-116
   23.1918750000000         4.888065925688710E-116
   23.4056250000000         7.914913454061434E-116
   23.6193750000000         1.191945466329972E-115
   23.8331250000000         1.604307329377936E-115
   24.0468750000000         1.732075982167893E-115
   24.2606250000000         8.136778240289236E-116
   24.4743750000000        -2.851351823776042E-115
   24.6881250000000        -1.272732870941978E-114
   24.9018750000000        -3.538189809213642E-114
   25.1156250000000        -8.249148357493899E-114
   25.3293750000000        -1.735351125186464E-113
   25.5431250000000        -3.388179798169781E-113
   25.7568750000000        -6.216101336933618E-113
   25.9706250000000        -1.076523086762977E-112
   26.1843750000000        -1.758344867098245E-112
   26.3981250000000        -2.690953960491451E-112
   26.6118750000000        -3.799365135757185E-112
   26.8256250000000        -4.779792431173436E-112
   27.0393750000000        -4.874654826513198E-112
   27.2531250000000        -2.516222253815823E-112
   27.4668750000000         5.186873829292460E-112
   27.6806250000000         2.310611555387376E-111
   27.8943750000000         5.878493573720607E-111
   28.1081250000000         1.228782539294248E-110
   28.3218750000000         2.287470298473410E-110
   28.5356250000000         3.901522730222651E-110
   28.7493750000000         6.153682086434630E-110
   28.9631250000000         8.953141096537551E-110
   29.1768750000000         1.182690094464715E-109
   29.3906250000000         1.359019000455373E-109
   29.6043750000000         1.187696997665649E-109
   29.8181250000000         2.548143127763125E-110
   30.0318750000000        -2.092747823117692E-109
   30.2456250000000        -6.788644963136257E-109
   30.4593750000000        -1.502278894507927E-108
   30.6731250000000        -2.807579515770743E-108
   30.8868750000000        -4.689849804915172E-108
   31.1006250000000        -7.128400996196572E-108
   31.3143750000000        -9.845514798775841E-108
   31.5281250000000        -1.209082477415122E-107
   31.7418750000000        -1.234639149023827E-107
   31.9556250000000        -7.975186954460595E-108
   32.1693750000000         5.108907061201175E-108
   32.3831250000000         3.257353370166700E-107
   32.5968750000000         8.126842266158051E-107
   32.8106250000000         1.577247741339897E-106
   33.0243750000000         2.646691603736907E-106
   33.2381250000000         3.943103374289421E-106
   33.4518750000000         5.168939415017017E-106
   33.6656250000000         5.631925548999265E-106
   33.8793750000000         4.009343430814837E-106
   34.0931250000000        -1.909549846022716E-106
   34.3068750000000        -1.537699243353426E-105
   34.5206250000000        -4.044016195394971E-105
   34.7343750000000        -8.070491901545522E-105
   34.9481250000000        -1.360734812489548E-104
   35.1618750000000        -1.958524072266454E-104
   35.3756250000000        -2.261373349013018E-104
   35.5893750000000        -1.495189288545453E-104
   35.8031250000000         1.828853832082687E-104
   36.0168750000000         1.021077025612657E-103
   36.2306250000000         2.727930244463875E-103
   36.4443750000000         5.727534267672342E-103
   36.6581250000000         1.030146625633548E-102
   36.8718750000000         1.608292961010808E-102
   37.0856250000000         2.102988436662984E-102
   37.2993750000000         1.962015067667088E-102
   37.5131250000000         9.349590236934573E-105
   37.7268750000000        -5.905867894063132E-102
   37.9406250000000        -1.921968446406332E-101
   38.1543750000000        -4.461161416311612E-101
   38.3681250000000        -8.695749244478390E-101
   38.5818750000000        -1.481061049523538E-100
   38.7956250000000        -2.196588425373897E-100
   39.0093750000000        -2.693663570301926E-100
   39.2231250000000        -2.188329238857876E-100
   39.4368750000000         8.793547075773844E-101
   39.6506250000000         9.200463697169019E-100
   39.8643750000000         2.682048944565143E-099
   40.0781250000000         5.883513131862194E-099
   40.2918750000000         1.098083400948304E-098
   40.5056250000000         1.796813967523396E-098
   40.7193750000000         2.554324724027766E-098
   40.9331250000000         2.964944735835884E-098
   41.1468750000000         2.125548021463933E-098
   41.3606250000000        -1.650662031343205E-098
   41.5743750000000        -1.111048292161065E-097
   41.7881250000000        -3.013251106970247E-097
   42.0018750000000        -6.319877344372317E-097
   42.2156250000000        -1.135807751986883E-096
   42.4293750000000        -1.792087219849859E-096
   42.6431250000000        -2.449113039885884E-096
   42.8568750000000        -2.697729383477011E-096
   43.0706250000000        -1.692712171160644E-096
   43.2843750000000         2.055438966017070E-096
   43.4981250000000         1.084146393073069E-095
   43.7118750000000         2.770705888026890E-095
   43.9256250000000         5.584644136646718E-095
   44.1393750000000         9.697061013290926E-095
   44.3531250000000         1.479346276491944E-094
   44.5668750000000         1.948446702655961E-094
   44.7806250000000         2.040838712012726E-094
   44.9943750000000         1.105737203656637E-094
   45.2081250000000        -1.943798095785466E-094
   45.4218750000000        -8.695137243724715E-094
   45.6356250000000        -2.112077483419375E-093
   45.8493750000000        -4.107647181277693E-093
   46.0631250000000        -6.910833130271567E-093
   46.2768750000000        -1.021873967298587E-092
   46.4906250000000        -1.300049144763847E-092
   46.7043750000000        -1.296912612112132E-092
   46.9181250000000        -5.945381840294134E-093
   47.1318750000000         1.470940596581314E-092
   47.3456250000000         5.819701011550053E-092
   47.5593750000000         1.352079756097843E-091
   47.7731250000000         2.545503300754149E-091
   47.9868750000000         4.159625995446023E-091
   48.2006250000000         5.974038425766419E-091
   48.4143750000000         7.355186953099104E-091
   48.6281250000000         6.995797322686587E-091
   48.8418750000000         2.628409718771705E-091
   49.0556250000000        -9.181613726068986E-091
   49.2693750000000        -3.295497043388989E-090
   49.4831250000000        -7.358045148045170E-090
   49.6968750000000        -1.344530625570905E-089
   49.9106250000000        -2.138360073653811E-089
   50.1243750000000        -2.988244989251112E-089
   50.3381250000000        -3.566049184427314E-089
   50.5518750000000        -3.235687361405631E-089
   50.7656250000000        -9.455828368582917E-090
   50.9793750000000         4.826186060377184E-089
   51.1931250000000         1.598132448413564E-088
   51.4068750000000         3.442129087268788E-088
   51.6206250000000         6.118317659649891E-088
   51.8343750000000         9.487067164246269E-088
   52.0481250000000         1.291991265263997E-087
   52.2618750000000         1.496427905706000E-087
   52.4756250000000         1.295535093154935E-087
   52.6893750000000         2.680349326474978E-088
   52.9031250000000        -2.169432706912191E-087
   53.1168750000000        -6.708192599976687E-087
   53.3306250000000        -1.398109009885844E-086
   53.5443750000000        -2.421995093131473E-086
   53.7581250000000        -3.667221667882350E-086
   53.9718750000000        -4.873726032830728E-086
   54.1856250000000        -5.485418108351087E-086
   54.3993750000000        -4.531377293852690E-086
   54.6131250000000        -5.399494286274341E-087
   54.8268750000000         8.440568113535462E-086
   55.0406250000000         2.460000747057380E-085
   55.2543750000000         4.974773535317401E-085
   55.4681250000000         8.413800518724996E-085
   55.6818750000000         1.245812995702570E-084
   55.8956250000000         1.617923510392599E-084
   56.1093750000000         1.771746329087906E-084
   56.3231250000000         1.396865892559359E-084
   56.5368750000000         4.116222948590088E-086
   56.7506250000000        -2.870021732130366E-084
   56.9643750000000        -7.945711725147524E-084
   57.1781250000000        -1.563084756707313E-083
   57.3918750000000        -2.585408829142430E-083
   57.6056250000000        -3.749058600976942E-083
   57.8193750000000        -4.764548992500082E-083
   58.0331250000000        -5.083808211443771E-083
   58.2468750000000        -3.828862105300929E-083
   58.4606250000000         2.315527244452611E-084
   58.6743750000000         8.598185059693092E-083
   58.8881250000000         2.276898527870282E-082
   59.1018750000000         4.368230287323482E-082
   59.3156250000000         7.078491481357836E-082
   59.5293750000000         1.006782749202562E-081
   59.7431250000000         1.254021667069667E-081
   59.9568750000000         1.306063813948178E-081
   60.1706250000000         9.415500395821462E-082
   60.3843750000000        -1.389874931372522E-082
   60.5981250000000        -2.285780868905300E-081
   60.8118750000000        -5.826937254115354E-081
   61.0256250000000        -1.093032902234870E-080
   61.2393750000000        -1.738407583515820E-080
   61.4531250000000        -2.429198955512475E-080
   61.6668750000000        -2.970638934688676E-080
   61.8806250000000        -3.026417471722712E-080
   62.0943750000000        -2.095470279339412E-080
   62.3081250000000         4.773348100321436E-081
   62.5218750000000         5.427601685385750E-080
   62.7356250000000         1.339957954802631E-079
   62.9493750000000         2.464046052115851E-079
   63.1631250000000         3.853652510918424E-079
   63.3768750000000         5.299700748864288E-079
   63.5906250000000         6.374783084759671E-079
   63.8043750000000         6.368519063524303E-079
   64.0181250000000         4.255827519567850E-079
   64.2318750000000        -1.260928829874735E-079
   64.4456250000000        -1.158152797518708E-078
   64.6593750000000        -2.784687610304255E-078
   64.8731250000000        -5.033020180970528E-078
   65.0868750000000        -7.755151172010818E-078
   65.3006250000000        -1.051492943808808E-077
   65.5143750000000        -1.246517385676625E-077
   65.7281250000000        -1.224489329776882E-077
   65.9418750000000        -7.947189706697808E-078
   66.1556250000000         2.769121477662047E-078
   66.3693750000000         2.233200149054389E-077
   66.5831250000000         5.257368017177891E-077
   66.7968750000000         9.363203884340718E-077
   67.0106250000000         1.424135949628872E-076
   67.2243750000000         1.907122359506696E-076
   67.4381250000000         2.232651631509146E-076
   67.6518750000000         2.162883677913767E-076
   67.8656250000000         1.373507376929637E-076
   68.0793750000000        -5.223092273418941E-077
   68.2931250000000        -3.910569212632354E-076
   68.5068750000000        -9.059442883509536E-076
   68.7206250000000        -1.593853006888935E-075
   68.9343750000000        -2.397498218608762E-075
   69.1481250000000        -3.176641740264930E-075
   69.3618750000000        -3.679992547577101E-075
   69.5756250000000        -3.526532959105399E-075
   69.7893750000000        -2.209550281508335E-075
   70.0031250000000         8.591544850662743E-076
   70.2168750000000         6.244937107112489E-075
   70.4306250000000         1.430726820814954E-074
   70.6443750000000         2.492723179288086E-074
   70.8581250000000         3.715205342259544E-074
   71.0718750000000         4.879225098156335E-074
   71.2856250000000         5.604897560269853E-074
   71.4993750000000         5.330205122617574E-074
   71.7131250000000         3.324660164080491E-074
   71.9268750000000        -1.238488898363331E-074
   72.1406250000000        -9.125812549541605E-074
   72.3543750000000        -2.078099407781011E-073
   72.5681250000000        -3.594654518604142E-073
   72.7818750000000        -5.318572980261186E-073
   72.9956250000000        -6.936044725426128E-073
   73.2093750000000        -7.917583716196029E-073
   73.4231250000000        -7.496857357086601E-073
   73.6368750000000        -4.698337042083340E-073
   73.8506250000000         1.556645835407724E-073
   74.0643750000000         1.223496788931217E-072
   74.2781250000000         2.784420159624418E-072
   74.4918750000000         4.794707479029561E-072
   74.7056250000000         7.056573768203613E-072
   74.9193750000000         9.155404780517754E-072
   75.1331250000000         1.040825037652402E-071
   75.3468750000000         9.845680604529762E-072
   75.5606250000000         6.256408747138309E-072
   75.7743750000000        -1.671122189486917E-072
   75.9881250000000        -1.507680177550978E-071
   76.2018750000000        -3.450339423546227E-071
   76.4156250000000        -5.931805568498320E-071
   76.6293750000000        -8.702178923762554E-071
   76.8431250000000        -1.125463898975934E-070
   77.0568750000000        -1.277126485229147E-070
   77.2706250000000        -1.211051131385174E-070
   77.4843750000000        -7.869152344585919E-071
   77.6981250000000         1.444576898092678E-071
   77.9118750000000         1.709269911527861E-070
   78.1256250000000         3.962356818168008E-070
   78.3393750000000         6.822977141143643E-070
   78.5531250000000         1.000007250060057E-069
   78.7668750000000         1.291860003537805E-069
   78.9806250000000         1.466624921876999E-069
   79.1943750000000         1.398794846645011E-069
   79.4081250000000         9.362272803232095E-070
   79.6218750000000        -8.034378690563644E-071
   79.8356250000000        -1.782711386394574E-069
   80.0493750000000        -4.223881613684820E-069
   80.2631250000000        -7.311452195421812E-069
   80.4768750000000        -1.073181424754420E-068
   80.6906250000000        -1.387764925268387E-068
   80.9043750000000        -1.579866093772096E-068
   81.1181250000000        -1.520298164252610E-068
   81.3318750000000        -1.054241159486462E-068
   81.5456250000000        -2.160345021229298E-070
   81.7593750000000         1.707934022233168E-068
   81.9731250000000         4.184037886420071E-068
   82.1868750000000         7.310915972633168E-068
   82.4006250000000         1.077506562542588E-067
   82.6143750000000         1.397800547668835E-067
   82.8281250000000         1.599319321322797E-067
   83.0418750000000         1.557283864235219E-067
   83.2556250000000         1.123484530220138E-067
   83.4693750000000         1.460337218858265E-068
   83.6831250000000        -1.497459263743900E-067
   83.8968750000000        -3.852592035894784E-067
   84.1106250000000        -6.828918000921073E-067
   84.3243750000000        -1.013504490771296E-066
   84.5381250000000        -1.321961544787558E-066
   84.7518750000000        -1.523547108966093E-066
   84.9656250000000        -1.504960141887072E-066
   85.1793750000000        -1.132480308883303E-066
   85.3931250000000        -2.698348512061675E-067
   85.6068750000000         1.192384471942924E-066
   85.8206250000000         3.295420581010034E-066
   86.0343750000000         5.961335738498830E-066
   86.2481250000000         8.937960690206889E-066
   86.4618750000000         1.174980400732849E-065
   86.6756250000000         1.366954039038293E-065
   86.8893750000000         1.372876179007014E-065
   87.1031250000000         1.078893837352185E-065
   87.3168750000000         3.692434536124950E-066
   87.5306250000000        -8.492756254307468E-066
   87.7443750000000        -2.613372316299326E-065
   87.9581250000000        -4.861842499861321E-065
   88.1718750000000        -7.391413077891934E-065
   88.3856250000000        -9.817963228388733E-065
   88.5993750000000        -1.155472654734462E-064
   88.8131250000000        -1.182201696356878E-064
   89.0268750000000        -9.704449259226092E-065
   89.2406250000000        -4.270375930799392E-065
   89.4543750000000         5.236896509222940E-065
   89.6681250000000         1.913668314561212E-064
   89.8818750000000         3.699354500486246E-064
   90.0956250000000         5.728214353134306E-064
   90.3093750000000         7.709605220595932E-064
   90.5231250000000         9.198713113991255E-064
   90.7368750000000         9.604212628726594E-064
   90.9506250000000         8.231146103003360E-064
   91.1643750000000         4.369357951603927E-064
   91.3781250000000        -2.566164078631987E-064
   91.5918750000000        -1.284417435688888E-063
   91.8056250000000        -2.618769884571603E-063
   92.0193750000000        -4.153335918156418E-063
   92.2331250000000        -5.682356247859600E-063
   92.4468750000000        -6.889234608483183E-063
   92.6606250000000        -7.351857782279419E-063
   92.8743750000000        -6.572462169391231E-063
   93.0881250000000        -4.038911867853440E-063
   93.3018750000000         6.786064193893493E-064
   93.5156250000000         7.796640979567142E-063
   93.7293750000000         1.716207258777282E-062
   93.9431250000000         2.808879026296957E-062
   94.1568750000000         3.921695913811164E-062
   94.3706250000000         4.843497323636262E-062
   94.5843750000000         5.291200917899599E-062
   94.7981250000000         4.929118160471876E-062
   95.0118750000000         3.408634059472998E-062
   95.2256250000000         4.306429488937955E-063
   95.4393750000000        -4.170215830765336E-062
   95.6531250000000        -1.032530003588023E-061
   95.8668750000000        -1.762751638403403E-061
   96.0806250000000        -2.524119472310970E-061
   96.2943750000000        -3.185107674107889E-061
   96.5081250000000        -3.567964611706678E-061
   96.7218750000000        -3.460284512655194E-061
   96.9356250000000        -2.638952369577683E-061
   97.1493750000000        -9.078039450565075E-062
   97.3631250000000         1.851682001316345E-061
   97.5768750000000         5.620195146734119E-061
   97.7906250000000         1.017795720181591E-060
   98.0043750000000         1.505048137472850E-060
   98.2181250000000         1.947704175174115E-060
   98.4318750000000         2.241848784282519E-060
   98.6456250000000         2.262123321664890E-060
   98.8593750000000         1.875130262223608E-060
   99.0731250000000         9.605379588805820E-061
   99.2868750000000        -5.605616405180050E-061
   99.5006250000000        -2.692059749106553E-060
   99.7143750000000        -5.327909969441129E-060
   99.9281250000000        -8.221780114568639E-060
   100.141875000000        -1.096893596993467E-059
   100.355625000000        -1.300910665776322E-059
   100.569375000000        -1.365900528351974E-059
   100.783125000000        -1.218144714710311E-059
   100.996875000000        -7.894238098235509E-060
   101.210625000000        -3.160400983925769E-061
   101.424375000000         1.066154652166299E-059
   101.638125000000         2.459575860415956E-059
   101.851875000000         4.033785380185322E-059
   102.065625000000         5.593918475318206E-059
   102.279375000000         6.865992148366907E-059
   102.493125000000         7.512051654086807E-059
   102.706875000000         7.162632683107867E-059
   102.920625000000         5.467671476930152E-059
   103.134375000000         2.164128603441851E-059
   103.348125000000        -2.845072738877803E-059
   103.561875000000        -9.410282893534768E-059
   103.775625000000        -1.706594063175821E-058
   103.989375000000        -2.498931358640253E-058
   104.203125000000        -3.200456339953131E-058
   104.416875000000        -3.664779342595883E-058
   104.630625000000        -3.730349680739297E-058
   104.844375000000        -3.241379404858827E-058
   105.058125000000        -2.074937492649626E-058
   105.271875000000        -1.716289853536612E-059
   105.485625000000         2.434229566063949E-058
   105.699375000000         5.590272359803028E-058
   105.913125000000         9.013569211413375E-058
   106.126875000000         1.229563498436500E-057
   106.340625000000         1.492917770671694E-057
   106.554375000000         1.635798907409336E-057
   106.768125000000         1.604737002941805E-057
   106.981875000000         1.356770359790572E-057
   107.195625000000         8.679006917937878E-058
   107.409375000000         1.400588986910112E-058
   107.623125000000        -7.951428288351408E-058
   107.836875000000        -1.877376354665674E-057
   108.050625000000        -3.024115114070852E-057
   108.264375000000        -4.142398031287428E-057
   108.478125000000        -5.144004168393555E-057
   108.691875000000        -5.960498809472041E-057
   108.905625000000        -6.553094688156603E-057
   109.119375000000        -6.911429124455364E-057
   109.333125000000        -7.035747694351067E-057
   109.546875000000        -6.899138519176195E-057
   109.760625000000        -6.390740218753003E-057
   109.974375000000        -5.247273270682770E-057
   110.188125000000        -2.988325373888266E-057
   110.401875000000         1.120597622656228E-057
   110.615625000000         8.046042481112286E-057
   110.829375000000         1.887110565815458E-056
   111.043125000000         3.455554628307363E-056
   111.256875000000         5.555395243276874E-056
   111.470625000000         8.129966847244244E-056
   111.684375000000         1.095999506417056E-055
   111.898125000000         1.360361074059395E-055
   112.111875000000         1.535158721350690E-055
   112.325625000000         1.521747193455257E-055
   112.539375000000         1.198551844522294E-055
   112.753125000000         4.339241662533643E-056
   112.966875000000        -8.911691832403292E-056
   113.180625000000        -2.850017145339914E-055
   113.394375000000        -5.427894398951458E-055
   113.608125000000        -8.474576400982608E-055
   113.821875000000        -1.165872863032711E-054
   114.035625000000        -1.443457952872021E-054
   114.249375000000        -1.603416402334164E-054
   114.463125000000        -1.550005894943931E-054
   114.676875000000        -1.177298693961870E-054
   114.890625000000        -3.844991042592718E-055
   115.104375000000         9.018705092658666E-055
   115.318125000000         2.699792275238915E-054
   115.531875000000         4.940052403881847E-054
   115.745625000000         7.435362562037805E-054
   115.959375000000         9.856581971561373E-054
   116.173125000000         1.172396879679832E-053
   116.386875000000         1.242230983020973E-053
   116.600625000000         1.124846037940960E-053
   116.814375000000         7.497766941032972E-054
   117.028125000000         5.916390400926511E-055
   117.241875000000        -9.758001634148240E-054
   117.455625000000        -2.336037211881514E-053
   117.669375000000        -3.935679244989402E-053
   117.883125000000        -5.606474791216854E-053
   118.096875000000        -7.089796483705394E-053
   118.310625000000        -8.041082632461600E-053
   118.524375000000        -8.051455995944400E-053
   118.738125000000        -6.690287837625445E-053
   118.951875000000        -3.570409977082716E-053
   119.165625000000         1.565574254155476E-053
   119.379375000000         8.743793089526016E-053
   119.593125000000         1.765351019324388E-052
   119.806875000000         2.755393012505380E-052
   120.020625000000         3.721471436739256E-052
   120.234375000000         4.491463307751962E-052
   120.448125000000         4.852296922146171E-052
   120.661875000000         4.568433505609705E-052
   120.875625000000         3.411845785388802E-052
   121.089375000000         1.203173117711706E-052
   121.303125000000        -2.138283441043243E-052
   121.516875000000        -6.540491288438385E-052
   121.730625000000        -1.172789960469709E-051
   121.944375000000        -1.718367826954367E-051
   122.158125000000        -2.213641935211583E-051
   122.371875000000        -2.558319201788816E-051
   122.585625000000        -2.635950130890753E-051
   122.799375000000        -2.326310228274540E-051
   123.013125000000        -1.523249942281792E-051
   123.226875000000        -1.572371994020927E-052
   123.440625000000         1.779240805565464E-051
   123.654375000000         4.206406976850583E-051
   123.868125000000         6.936150469780972E-051