  -1.60312500000000         0.000000000000000E+000
  -1.38937500000000         0.000000000000000E+000
  -1.17562500000000         0.000000000000000E+000
 -0.961875000000000         0.000000000000000E+000
 -0.748125000000000         0.000000000000000E+000
 -0.534375000000000         0.000000000000000E+000
 -0.320625000000000         0.000000000000000E+000
 -0.106875000000000         0.000000000000000E+000
  0.106875000000000         0.000000000000000E+000
  0.320625000000000         0.000000000000000E+000
  0.534375000000000         0.000000000000000E+000
  0.748125000000000         0.000000000000000E+000
  0.961875000000000         0.000000000000000E+000
   1.17562500000000         0.000000000000000E+000
   1.38937500000000         0.000000000000000E+000
   1.60312500000000         0.000000000000000E+000
   1.81687500000000         0.000000000000000E+000
   2.03062500000000         0.000000000000000E+000
   2.24437500000000         0.000000000000000E+000
   2.45812500000000         0.000000000000000E+000
   2.67187500000000         0.000000000000000E+000
   2.88562500000000         0.000000000000000E+000
   3.09937500000000         0.000000000000000E+000
   3.31312500000000         0.000000000000000E+000
   3.52687500000000         0.000000000000000E+000
   3.74062500000000         0.000000000000000E+000
   3.95437500000000         0.000000000000000E+000
   4.16812500000000         0.000000000000000E+000
   4.38187500000000         0.000000000000000E+000
   4.59562500000000         0.000000000000000E+000
   4.80937500000000         0.000000000000000E+000
   5.02312500000000         0.000000000000000E+000
   5.23687500000000         0.000000000000000E+000
   5.45062500000000         0.000000000000000E+000
   5.66437500000000         0.000000000000000E+000
   5.87812500000000         0.000000000000000E+000
   6.09187500000000         0.000000000000000E+000
   6.30562500000000         0.000000000000000E+000
   6.51937500000000         0.000000000000000E+000
   6.73312500000000         0.000000000000000E+000
   6.94687500000000         0.000000000000000E+000
   7.16062500000000         0.000000000000000E+000
   7.37437500000000         0.000000000000000E+000
   7.58812500000000         0.000000000000000E+000
   7.80187500000000         0.000000000000000E+000
   8.01562500000000         0.000000000000000E+000
   8.22937500000000        -9.667353639016062E-181
   8.44312500000000         2.516948051147031E-173
   8.65687500000000        -2.687544094566566E-171
   8.87062500000000         2.950984454459258E-169
   9.08437500000000         1.435991726331595E-168
   9.29812500000000         2.350790966674665E-166
   9.51187500000000         3.469586753349900E-164
   9.72562500000000         1.505933736881421E-162
   9.93937500000000         3.667059226978292E-161
   10.1531250000000         5.891549457946480E-160
   10.3668750000000        -7.484371700581920E-156
   10.5806250000000        -6.359816665255570E-154
   10.7943750000000        -2.714342144121428E-152
   11.0081250000000        -7.756249968437687E-151
   11.2218750000000        -1.667646011569856E-149
   11.4356250000000        -2.873870150240426E-148
   11.6493750000000        -4.128079037160764E-147
   11.8631250000000        -5.073090449985378E-146
   12.0768750000000        -5.430293047965454E-145
   12.2906250000000        -5.124711153374894E-144
   12.5043750000000        -4.295368819559697E-143
   12.7181250000000        -3.205415641725901E-142
   12.9318750000000        -2.121167911849577E-141
   13.1456250000000        -1.225641988028360E-140
   13.3593750000000        -5.925168795892680E-140
   13.5731250000000        -2.080830653367268E-139
   13.7868750000000        -1.257891461156783E-139
   14.0006250000000         6.300561690124942E-138
   14.2143750000000         7.532422708467415E-137
   14.4281250000000         6.174478807882003E-136
   14.6418750000000         4.248037753442537E-135
   14.8556250000000         2.607746465724505E-134
   15.0693750000000         1.468295436546691E-133
   15.2831250000000         7.699442063571386E-133
   15.4968750000000         3.796371977763227E-132
   15.7106250000000         1.771753122421863E-131
   15.9243750000000         7.864263299062322E-131
   16.1381250000000         3.332294661662743E-130
   16.3518750000000         1.351894126050212E-129
   16.5656250000000         5.263909387015149E-129
   16.7793750000000         1.971166035277045E-128
   16.9931250000000         7.111161669585883E-128
   17.2068750000000         2.475215083003514E-127
   17.4206250000000         8.323618941304761E-127
   17.6343750000000         2.707350399043840E-126
   17.8481250000000         8.526325046476683E-126
   18.0618750000000         2.602385940203281E-125
   18.2756250000000         7.704491994222360E-125
   18.4893750000000         2.214207902742305E-124
   18.7031250000000         6.181731946235197E-124
   18.9168750000000         1.677708141124708E-123
   19.1306250000000         4.429170056476629E-123
   19.3443750000000         1.138173296071362E-122
   19.5581250000000         2.848775040883584E-122
   19.7718750000000         6.949732272695403E-122
   19.9856250000000         1.653707929160960E-121
   20.1993750000000         3.841394443271477E-121
   20.4131250000000         8.719082155012460E-121
   20.6268750000000         1.935925543626478E-120
   20.8406250000000         4.210342271703229E-120
   21.0543750000000         8.983375643558245E-120
   21.2681250000000         1.883892921939831E-119
   21.4818750000000         3.891212556217969E-119
   21.6956250000000         7.934804520237985E-119
   21.9093750000000         1.601251527252778E-118
   22.1231250000000         3.205198964847637E-118
   22.3368750000000         6.376094720328709E-118
   22.5506250000000         1.262097162078553E-117
   22.7643750000000         2.486514227289887E-117
   22.9781250000000         4.871817464028139E-117
   23.1918750000000         9.474303583313534E-117
   23.4056250000000         1.823353651573857E-116
   23.6193750000000         3.459346019030078E-116
   23.8331250000000         6.440363526676280E-116
   24.0468750000000         1.170157058614174E-115
   24.2606250000000         2.061043327583232E-115
   24.4743750000000         3.488180021227657E-115
   24.6881250000000         5.598995545568371E-115
   24.9018750000000         8.335867964217943E-115
   25.1156250000000         1.099193238789709E-114
   25.3293750000000         1.124705137054604E-114
   25.5431250000000         3.249291506235560E-115
   25.7568750000000        -2.593922065721876E-114
   25.9706250000000        -1.025026590636567E-113
   26.1843750000000        -2.758429293866783E-113
   26.3981250000000        -6.335053782661184E-113
   26.6118750000000        -1.321355488240098E-112
   26.8256250000000        -2.566793500931930E-112
   27.0393750000000        -4.697197407522847E-112
   27.2531250000000        -8.135024648326268E-112
   27.4668750000000        -1.333241839282145E-111
   27.6806250000000        -2.057899086708374E-111
   27.8943750000000        -2.957508049825939E-111
   28.1081250000000        -3.861126813292448E-111
   28.3218750000000        -4.314341525461765E-111
   28.5356250000000        -3.352585385955509E-111
   28.7493750000000         8.287587705711260E-112
   28.9631250000000         1.130609381882328E-110
   29.1768750000000         3.291092712929017E-110
   29.3906250000000         7.261959709172047E-110
   29.6043750000000         1.395417991510211E-109
   29.8181250000000         2.439482194071847E-109
   30.0318750000000         3.944195236834546E-109
   30.2456250000000         5.917349303590522E-109
   30.4593750000000         8.175799933264548E-109
   30.6731250000000         1.015623262606713E-108
   30.8868750000000         1.062155993463543E-108
   31.1006250000000         7.236142557238896E-109
   31.3143750000000        -4.005148415726302E-109
   31.5281250000000        -2.947513484193521E-108
   31.7418750000000        -7.864120793479380E-108
   31.9556250000000        -1.645477132334744E-107
   32.1693750000000        -3.034142291351800E-107
   32.3831250000000        -5.119732852520546E-107
   32.5968750000000        -7.997668807384375E-107
   32.8106250000000        -1.151123773173397E-106
   33.0243750000000        -1.487487128933014E-106
   33.2381250000000        -1.595014668127892E-106
   33.4518750000000        -9.960251618703577E-107
   33.6656250000000         1.259839027717394E-106
   33.8793750000000         6.897046441962351E-106
   34.0931250000000         1.877119016788447E-105
   34.3068750000000         4.111545761890345E-105
   34.5206250000000         7.923364281178277E-105
   34.7343750000000         1.376800836303395E-104
   34.9481250000000         2.151179091322713E-104
   35.1618750000000         2.928479758576141E-104
   35.3756250000000         3.126784588630694E-104
   35.5893750000000         1.391533136761659E-104
   35.8031250000000        -4.969285686663141E-104
   36.0168750000000        -2.068547272057110E-103
   36.2306250000000        -5.309937596365433E-103
   36.4443750000000        -1.119219461121570E-102
   36.6581250000000        -2.067070865700896E-102
   36.8718750000000        -3.393840070459019E-102
   37.0856250000000        -4.876140394290333E-102
   37.2993750000000        -5.732118104295591E-102
   37.5131250000000        -4.095797296264494E-102
   37.7268750000000         3.744108335259829E-102
   37.9406250000000         2.424796947909831E-101
   38.1543750000000         6.730388651292516E-101
   38.3681250000000         1.457858060929254E-100
   38.5818750000000         2.722160731283515E-100
   38.7956250000000         4.494873309828949E-100
   39.0093750000000         6.510931679897532E-100
   39.2231250000000         7.851608458093805E-100
   39.4368750000000         6.371515519871903E-100
   39.6506250000000        -2.089611225977672E-100
   39.8643750000000        -2.457532598494771E-099
   40.0781250000000        -7.153930378910341E-099
   40.2918750000000        -1.560992204797803E-098
   40.5056250000000        -2.902985086576043E-098
   40.7193750000000        -4.756165823149275E-098
   40.9331250000000        -6.839001152803887E-098
   41.1468750000000        -8.244028906129230E-098
   41.3606250000000        -6.939713002618943E-098
   41.5743750000000         8.723310111785219E-099
   41.7881250000000         2.139464307408199E-097
   42.0018750000000         6.347539835301388E-097
   42.2156250000000         1.376694864399550E-096
   42.4293750000000         2.527738371304424E-096
   42.6431250000000         4.078284655199950E-096
   42.8568750000000         5.770314735833428E-096
   43.0706250000000         6.850886077433057E-096
   43.2843750000000         5.721097564248792E-096
   43.4981250000000        -4.830350501490470E-097
   43.7118750000000        -1.624743194596880E-095
   43.9256250000000        -4.768061533509973E-095
   44.1393750000000        -1.016170534144139E-094
   44.3531250000000        -1.829620089748743E-094
   44.5668750000000        -2.890899633719032E-094
   44.7806250000000        -3.999410317217960E-094
   44.9943750000000        -4.627717941998264E-094
   45.2081250000000        -3.718354310895745E-094
   45.4218750000000         5.365995501487235E-095
   45.6356250000000         1.084242088344492E-093
   45.8493750000000         3.069287549601554E-093
   46.0631250000000         6.369638954571037E-093
   46.2768750000000         1.118813024358402E-092
   46.4906250000000         1.724045814849048E-092
   46.7043750000000         2.320936005123788E-092
   46.9181250000000         2.595491876256819E-092
   47.1318750000000         1.953810168869230E-092
   47.3456250000000        -5.714661085818140E-093
   47.5593750000000        -6.358856441550798E-092
   47.7731250000000        -1.708560498210893E-091
   47.9868750000000        -3.431709115815382E-091
   48.2006250000000        -5.859647162165604E-091
   48.4143750000000        -8.780516132278647E-091
   48.6281250000000        -1.146097409984342E-090
   48.8418750000000        -1.230017314391162E-090
   49.0556250000000        -8.437190040378988E-091
   49.2693750000000         4.564941496827109E-091
   49.4831250000000         3.271243500083969E-090
   49.6968750000000         8.283887226047933E-090
   49.9106250000000         1.605283573185516E-089
   50.1243750000000         2.659534030217812E-089
   50.3381250000000         3.868782909250715E-089
   50.5518750000000         4.884182399197748E-089
   50.7656250000000         5.000879826609485E-089
   50.9793750000000         3.025403987084832E-089
   51.1931250000000        -2.805130298270594E-089
   51.4068750000000        -1.475267915156368E-088
   51.6206250000000        -3.520270826855752E-088
   51.8343750000000        -6.577557630794181E-088
   52.0481250000000        -1.056886605285734E-087
   52.2618750000000        -1.491722991221165E-087
   52.4756250000000        -1.819124986797787E-087
   52.6893750000000        -1.768748457215168E-087
   52.9031250000000        -9.054298738160972E-088
   53.1168750000000         1.383583906920656E-087
   53.3306250000000         5.842116845719466E-087
   53.5443750000000         1.318951038031190E-086
   53.7581250000000         2.379396502904980E-086
   53.9718750000000         3.711179204824609E-086
   54.1856250000000         5.085334804788747E-086
   54.3993750000000         5.990294239772041E-086
   54.6131250000000         5.515024912924433E-086
   54.8268750000000         2.260333572412262E-086
   55.0406250000000        -5.654539074295666E-086
   55.2543750000000        -2.038612370347399E-085
   55.4681250000000        -4.382160914879486E-085
   55.6818750000000        -7.653349045261814E-085
   55.8956250000000        -1.160924992971382E-084
   56.1093750000000        -1.546928838676320E-084
   56.3231250000000        -1.762605169364554E-084
   56.5368750000000        -1.535974660326486E-084
   56.7506250000000        -4.669719688338229E-085
   56.9643750000000         1.958696984189179E-084
   57.1781250000000         6.297435027214799E-084
   57.3918750000000         1.298263387800800E-083
   57.6056250000000         2.203014425983190E-083
   57.8193750000000         3.258809442449227E-083
   58.0331250000000         4.233527426078640E-083
   58.2468750000000         4.679264695067252E-083
   58.4606250000000         3.871116397481181E-083
   58.6743750000000         7.838830593357809E-084
   58.8881250000000        -5.845826357312052E-083
   59.1018750000000        -1.730723865082287E-082
   59.3156250000000        -3.447640961577022E-082
   59.5293750000000        -5.707843482540598E-082
   59.7431250000000        -8.261300174129272E-082
   59.9568750000000        -1.049871409714898E-081
   60.1706250000000        -1.130461013488770E-081
   60.3843750000000        -8.941797524850425E-082
   60.5981250000000        -1.038713270755957E-082
   60.8118750000000         1.521460173049999E-081
   61.0256250000000         4.252529854447934E-081
   61.2393750000000         8.246115209447064E-081
   61.4531250000000         1.337934513018236E-080
   61.6668750000000         1.901857620373303E-080
   61.8806250000000         2.373852339913152E-080
   62.0943750000000         2.503907776829988E-080
   62.3081250000000         1.915301993264997E-080
   62.5218750000000         1.095384606643985E-081
   62.7356250000000        -3.483369015076112E-080
   62.9493750000000        -9.383318680039757E-080
   63.1631250000000        -1.784070725253915E-079
   63.3768750000000        -2.850021635026184E-079
   63.5906250000000        -3.994958300674483E-079
   63.8043750000000        -4.919427086864663E-079
   64.0181250000000        -5.116042623433581E-079
   64.2318750000000        -3.841258750404377E-079
   64.4456250000000        -1.372581663194295E-080
   64.6593750000000         7.057591674405329E-079
   64.8731250000000         1.866495120937180E-078
   65.0868750000000         3.504688346211883E-078
   65.3006250000000         5.538556429037385E-078
   65.5143750000000         7.687857568084344E-078
   65.7281250000000         9.383807790838572E-078
   65.9418750000000         9.688966737853506E-078
   66.1556250000000         7.260705452589007E-078
   66.3693750000000         4.076789499766227E-079
   66.5831250000000        -1.269702417124050E-077
   66.7968750000000        -3.357538813774000E-077
   67.0106250000000        -6.271452877349116E-077
   67.2243750000000        -9.851989918573965E-077
   67.4381250000000        -1.359966213528016E-076
   67.6518750000000        -1.653238511780896E-076
   67.8656250000000        -1.706583653700745E-076
   68.0793750000000        -1.297178282474778E-076
   68.2931250000000        -1.492342144400718E-077
   68.5068750000000         2.029297742143801E-076
   68.7206250000000         5.474469461406456E-076
   68.9343750000000         1.025017899988261E-075
   69.1481250000000         1.608572487762658E-075
   69.3618750000000         2.217617982908642E-075
   69.5756250000000         2.697288716494833E-075
   69.7893750000000         2.801640537338443E-075
   70.0031250000000         2.189435373006536E-075
   70.2168750000000         4.437291463391928E-076
   70.4306250000000        -2.871130989224189E-075
   70.6443750000000        -8.101240325425232E-075
   70.8581250000000        -1.533320316394642E-074
   71.0718750000000        -2.416124913198339E-074
   71.2856250000000        -3.340674026644044E-074
   71.4993750000000        -4.083073621830982E-074
   71.7131250000000        -4.291400252723710E-074
   71.9268750000000        -3.481807965918479E-074
   72.1406250000000        -1.067918251579260E-074
   72.3543750000000         3.558754334901503E-074
   72.5681250000000         1.087990084555173E-073
   72.7818750000000         2.102090537472365E-073
   72.9956250000000         3.344120834736477E-073
   73.2093750000000         4.656705723851055E-073
   73.4231250000000         5.742168149511074E-073
   73.6368750000000         6.135004569516890E-073
   73.8506250000000         5.198289613062710E-073
   74.0643750000000         2.162916948258588E-073
   74.2781250000000        -3.768715853003170E-073
   74.4918750000000        -1.323398993146991E-072
   74.7056250000000        -2.642291342104586E-072
   74.9193750000000        -4.269508508364331E-072
   75.1331250000000        -6.013021384559477E-072
   75.3468750000000        -7.508034713110352E-072
   75.5606250000000        -8.184093597812389E-072
   75.7743750000000        -7.261177839344769E-072
   75.9881250000000        -3.796736305049541E-072
   76.2018750000000         3.191711192469371E-072
   76.4156250000000         1.450549325326952E-071
   76.6293750000000         3.043107568153471E-071
   76.8431250000000         5.029808120002165E-071
   77.0568750000000         7.196379172291339E-071
   77.2706250000000         9.130174668485811E-071
   77.4843750000000         1.018252542890154E-070
   77.6981250000000         9.463399648000824E-071
   77.9118750000000         5.892199249612166E-071
   78.1256250000000        -1.668942191776018E-071
   78.3393750000000        -1.417523315549937E-070
   78.5531250000000        -3.203824681699845E-070
   78.7668750000000        -5.464929549143106E-070
   78.9806250000000        -7.982445950580906E-070
   79.1943750000000        -1.032528523089833E-069
   79.4081250000000        -1.180838572551564E-069
   79.6218750000000        -1.148465442578220E-069
   79.8356250000000        -8.194359384804649E-070
   80.0493750000000        -6.985508721969747E-071
   80.2631250000000         1.207937797403946E-069
   80.4768750000000         3.068971541868723E-069
   80.6906250000000         5.467542235227344E-069
   80.9043750000000         8.201065763797708E-069
   81.1181250000000         1.085381898173763E-068
   81.3318750000000         1.275368154777996E-068
   81.5456250000000         1.296042603224612E-068
   81.7593750000000         1.030869230997802E-068
   81.9731250000000         3.530916449836541E-069
   82.1868750000000        -8.516883272086949E-069
   82.4006250000000        -2.651271728953743E-068
   82.6143750000000        -5.021397902129205E-068
   82.8281250000000        -7.792334061363076E-068
   83.0418750000000        -1.059467270854963E-067
   83.2556250000000        -1.281614624722113E-067
   83.4693750000000        -1.358612885161145E-067
   83.6831250000000        -1.180858532741023E-067
   83.8968750000000        -6.266149442290127E-068
   84.1106250000000         4.183983635508705E-068
   84.3243750000000         2.030951575270258E-067
   84.5381250000000         4.210050257417315E-067
   84.7518750000000         6.829171486847998E-067
   84.9656250000000         9.586971572425620E-067
   85.1793750000000         1.196638923292077E-066
   85.3931250000000         1.321618051008644E-066
   85.6068750000000         1.237239963026251E-066
   85.8206250000000         8.339046884321443E-067
   86.0343750000000         4.562759446882675E-069
   86.2481250000000        -1.330683433889328E-066
   86.4618750000000        -3.191211294071229E-066
   86.6756250000000        -5.495755201888787E-066
   86.8893750000000        -8.020164835432073E-066
   87.1031250000000        -1.036082455659014E-065
   87.3168750000000        -1.191480416838074E-065
   87.5306250000000        -1.189062841106320E-065
   87.7443750000000        -9.365028197652743E-066
   87.9581250000000        -3.400099792525022E-066
   88.1718750000000         6.769210301411552E-066
   88.3856250000000         2.147650775112383E-065
   88.5993750000000         4.030786644823778E-065
   88.8131250000000         6.176149649878365E-065
   89.0268750000000         8.293999485849946E-065
   89.2406250000000         9.935686664281444E-065
   89.4543750000000         1.049606680412344E-064
   89.6681250000000         9.249237234234885E-065
   89.8818750000000         5.428676527753594E-065
   90.0956250000000        -1.640139524109451E-065
   90.3093750000000        -1.235285161564895E-064
   90.5231250000000        -2.659329108381511E-064
   90.7368750000000        -4.347647459702168E-064
   90.9506250000000        -6.110609880217086E-064
   91.1643750000000        -7.640279568598071E-064
   91.3781250000000        -8.507515419718750E-064
   91.5918750000000        -8.181515247970188E-064
   91.8056250000000        -6.079807360318906E-064
   92.0193750000000        -1.654870194850473E-064
   92.2331250000000         5.480436592815903E-064
   92.4468750000000         1.539293325628308E-063
   92.6606250000000         2.764794716597761E-063
   92.8743750000000         4.113113218031241E-063
   93.0881250000000         5.390929790652598E-063
   93.3018750000000         6.317701956017942E-063
   93.5156250000000         6.534290451942204E-063
   93.7293750000000         5.630966033226538E-063
   93.9431250000000         3.199210930807772E-063
   94.1568750000000        -1.090609835791715E-063
   94.3706250000000        -7.387517332525506E-063
   94.5843750000000        -1.554137872149179E-062
   94.7981250000000        -2.498152291491766E-062
   95.0118750000000        -3.461380184794125E-062
   95.2256250000000        -4.276423407870317E-062
   95.4393750000000        -4.720222067640643E-062
   95.6531250000000        -4.527733386465427E-062
   95.8668750000000        -3.419885752142595E-062
   96.0806250000000        -1.147478687953840E-062
   96.2943750000000         2.449435572755798E-062
   96.5081250000000         7.370190172087388E-062
   96.7218750000000         1.337745501942176E-061
   96.9356250000000         1.992799137055785E-061
   97.1493750000000         2.612571685721303E-061
   97.3631250000000         3.071561857435999E-061
   97.5768750000000         3.213811148812032E-061
   97.7906250000000         2.866147341526522E-061
   98.0043750000000         1.860403179465264E-061
   98.2181250000000         6.471717693440031E-063
   98.4318750000000        -2.577512696111793E-061
   98.6456250000000        -6.004393862255914E-061
   98.8593750000000        -9.993571260686703E-061
   99.0731250000000        -1.412920533015569E-060
   99.2868750000000        -1.778726737990489E-060
   99.5006250000000        -2.014931036425584E-060
   99.7143750000000        -2.025425497744179E-060
   99.9281250000000        -1.709525856830792E-060
   100.141875000000        -9.764104285097159E-061
   100.355625000000         2.361287851576313E-061
   100.569375000000         1.939935598976468E-060
   100.783125000000         4.074040011228713E-060
   100.996875000000         6.484790098538870E-060
   101.210625000000         8.912655973573266E-060
   101.424375000000         1.099024389741171E-059
   101.638125000000         1.225594751907032E-059
   101.851875000000         1.218682503308597E-059
   102.065625000000         1.025262381124244E-059
   102.279375000000         5.990381050997221E-060
   102.493125000000        -9.041493669384954E-061
   102.706875000000        -1.047556345102782E-059
   102.920625000000        -2.240920877307189E-059
   103.134375000000        -3.594669122056286E-059
   103.348125000000        -4.983201066052855E-059
   103.561875000000        -6.230391397965431E-059
   103.775625000000        -7.114809776062857E-059
   103.989375000000        -7.381887998084312E-059
   104.203125000000        -6.763422997153759E-059
   104.416875000000        -5.004132695335825E-059
   104.630625000000        -1.894314555745649E-059
   104.844375000000         2.692891197271252E-059
   105.058125000000         8.761465694904195E-059
   105.271875000000         1.615161975141076E-058
   105.485625000000         2.449986391896580E-058
   105.699375000000         3.320177056024830E-058
   105.913125000000         4.137941915777263E-058
   106.126875000000         4.785657065738123E-058
   106.340625000000         5.114693784462176E-058
   106.554375000000         4.946486582316254E-058
   106.768125000000         4.077335828706995E-058
   106.981875000000         2.289118665274496E-058
   107.195625000000        -6.312467717714438E-059
   107.409375000000        -4.860297023246468E-058
   107.623125000000        -1.049129691272798E-057
   107.836875000000        -1.747015344683253E-057
   108.050625000000        -2.551423315567361E-057
   108.264375000000        -3.401845607343753E-057
   108.478125000000        -4.195902260563232E-057
   108.691875000000        -4.781280693214769E-057
   108.905625000000        -4.951913868543621E-057
   109.119375000000        -4.451906379839108E-057
   109.333125000000        -2.991317371796732E-057
   109.546875000000        -2.779984968070995E-058
   109.760625000000         3.931057040531265E-057
   109.974375000000         9.757297875609304E-057
   110.188125000000         1.710889602294552E-056
   110.401875000000         2.557635318167776E-056
   110.615625000000         3.432832141927687E-056
   110.829375000000         4.202769766624790E-056
   111.043125000000         4.679518660237032E-056
   111.256875000000         4.625319660392638E-056
   111.470625000000         3.768525243874583E-056
   111.684375000000         1.834287473495154E-056
   111.898125000000        -1.407915571687121E-056
   112.111875000000        -6.079893666449088E-056
   112.325625000000        -1.211661145082357E-055
   112.539375000000        -1.918156020073865E-055
   112.753125000000        -2.658775164638082E-055
   112.966875000000        -3.324149342346529E-055
   113.180625000000        -3.763047469894765E-055
   113.394375000000        -3.788025261813374E-055
   113.608125000000        -3.190264505627743E-055
   113.821875000000        -1.765440605122228E-055
   114.035625000000         6.486335127265138E-056
   114.249375000000         4.123579591773070E-055
   114.463125000000         8.584617397940694E-055
   114.676875000000         1.375359012439840E-054
   114.890625000000         1.910025215809923E-054
   115.104375000000         2.381413412979724E-054
   115.318125000000         2.681138751347493E-054
   115.531875000000         2.679153044266436E-054
   115.745625000000         2.235717345476364E-054
   115.959375000000         1.220486680489548E-054
   116.173125000000        -4.613333524724813E-055
   116.386875000000        -2.837024641321978E-054
   116.600625000000        -5.831405306336144E-054
   116.814375000000        -9.233452680700843E-054
   117.028125000000        -1.267079661964066E-053
   117.241875000000        -1.559979551493739E-053
   117.455625000000        -1.731963224320754E-053
   117.669375000000        -1.701848474061012E-053
   117.883125000000        -1.385793293990050E-053
   118.096875000000        -7.098043888142152E-054
   118.310625000000         3.740111108461869E-054
   118.524375000000         1.868527969589427E-053
   118.738125000000         3.711983981755044E-053
   118.951875000000         5.760555945475918E-053
   119.165625000000         7.776866104509671E-053
   119.379375000000         9.428727897130106E-053
   119.593125000000         1.030254569617968E-052
   119.806875000000         9.935217144899139E-053
   120.020625000000         7.866972611800942E-053
   120.234375000000         3.715216430081147E-053
   120.448125000000        -2.733886502142974E-053
   120.661875000000        -1.142344802793315E-052
   120.875625000000        -2.192544365699091E-052
   121.089375000000        -3.335822197466579E-052
   121.303125000000        -4.434190040403962E-052
   121.516875000000        -5.301345112330076E-052
   121.730625000000        -5.712241334084586E-052
   121.944375000000        -5.422370328777738E-052
   122.158125000000        -4.197527305078908E-052
   122.371875000000        -1.853515558754334E-052
   122.585625000000         1.696490137540427E-052
   122.799375000000         6.391231775283557E-052
   123.013125000000         1.197374414016391E-051
   123.226875000000         1.795518483063185E-051
   123.440625000000         2.359985371133940E-051
   123.654375000000         2.794153510769948E-051
   123.868125000000         2.984031305699372E-051