  -1.60312500000000         0.000000000000000E+000
  -1.38937500000000         0.000000000000000E+000
  -1.17562500000000         0.000000000000000E+000
 -0.961875000000000         0.000000000000000E+000
 -0.748125000000000         0.000000000000000E+000
 -0.534375000000000         0.000000000000000E+000
 -0.320625000000000         0.000000000000000E+000
 -0.106875000000000         0.000000000000000E+000
  0.106875000000000         0.000000000000000E+000
  0.320625000000000         0.000000000000000E+000
  0.534375000000000         0.000000000000000E+000
  0.748125000000000         0.000000000000000E+000
  0.961875000000000         0.000000000000000E+000
   1.17562500000000         0.000000000000000E+000
   1.38937500000000         0.000000000000000E+000
   1.60312500000000         0.000000000000000E+000
   1.81687500000000         0.000000000000000E+000
   2.03062500000000         0.000000000000000E+000
   2.24437500000000         0.000000000000000E+000
   2.45812500000000         0.000000000000000E+000
   2.67187500000000         0.000000000000000E+000
   2.88562500000000         0.000000000000000E+000
   3.09937500000000         0.000000000000000E+000
   3.31312500000000         0.000000000000000E+000
   3.52687500000000         0.000000000000000E+000
   3.74062500000000         0.000000000000000E+000
   3.95437500000000         0.000000000000000E+000
   4.16812500000000         0.000000000000000E+000
   4.38187500000000         0.000000000000000E+000
   4.59562500000000         0.000000000000000E+000
   4.80937500000000         0.000000000000000E+000
   5.02312500000000         0.000000000000000E+000
   5.23687500000000         0.000000000000000E+000
   5.45062500000000         0.000000000000000E+000
   5.66437500000000         0.000000000000000E+000
   5.87812500000000         0.000000000000000E+000
   6.09187500000000         0.000000000000000E+000
   6.30562500000000         0.000000000000000E+000
   6.51937500000000         0.000000000000000E+000
   6.73312500000000         0.000000000000000E+000
   6.94687500000000         0.000000000000000E+000
   7.16062500000000         0.000000000000000E+000
   7.37437500000000         0.000000000000000E+000
   7.58812500000000         0.000000000000000E+000
   7.80187500000000         0.000000000000000E+000
   8.01562500000000         0.000000000000000E+000
   8.22937500000000         1.235545754781560E-180
   8.44312500000000         3.164590322808858E-174
   8.65687500000000        -5.419820014827042E-173
   8.87062500000000         3.161504697800496E-171
   9.08437500000000         7.841417496804227E-169
   9.29812500000000         5.203369498644893E-167
   9.51187500000000         4.245309165745007E-167
   9.72562500000000        -7.125448437826632E-164
   9.93937500000000        -2.734274040065755E-162
   10.1531250000000        -5.697692831006171E-161
   10.3668750000000        -7.511323101666849E-156
   10.5806250000000        -6.532290683142972E-154
   10.7943750000000        -2.837897735341798E-152
   11.0081250000000        -8.204538040305677E-151
   11.2218750000000        -1.773869095613694E-149
   11.4356250000000        -3.055072037417507E-148
   11.6493750000000        -4.357917562287340E-147
   11.8631250000000        -5.282446884701814E-146
   12.0768750000000        -5.534837089948389E-145
   12.2906250000000        -5.065947311267948E-144
   12.5043750000000        -4.067776974249478E-143
   12.7181250000000        -2.854689144162932E-142
   12.9318750000000        -1.719510216526020E-141
   13.1456250000000        -8.419111911922931E-141
   13.3593750000000        -2.724085248319719E-140
   13.5731250000000         3.072938852712422E-140
   13.7868750000000         1.490938814755970E-138
   14.0006250000000         1.632877118970719E-137
   14.2143750000000         1.326933372465507E-136
   14.4281250000000         9.214784926199810E-136
   14.6418750000000         5.744516584983795E-135
   14.8556250000000         3.292432046355612E-134
   15.0693750000000         1.759108075429001E-133
   15.2831250000000         8.841188969963450E-133
   15.4968750000000         4.206869738670607E-132
   15.7106250000000         1.904315788628306E-131
   15.9243750000000         8.232066350712010E-131
   16.1381250000000         3.408988596602405E-130
   16.3518750000000         1.355911113743187E-129
   16.5656250000000         5.191705709368421E-129
   16.7793750000000         1.917461708132042E-128
   16.9931250000000         6.843104913733059E-128
   17.2068750000000         2.363680004368086E-127
   17.4206250000000         7.913594068663087E-127
   17.6343750000000         2.571587922114334E-126
   17.8481250000000         8.121284937429129E-126
   18.0618750000000         2.495532865396218E-125
   18.2756250000000         7.469759419974813E-125
   18.4893750000000         2.180303368718735E-124
   18.7031250000000         6.211980091153092E-124
   18.9168750000000         1.729239481970533E-123
   19.1306250000000         4.707314038952523E-123
   19.3443750000000         1.254106708055384E-122
   19.5581250000000         3.272318065305041E-122
   19.7718750000000         8.367868102256503E-122
   19.9856250000000         2.098210353378164E-121
   20.1993750000000         5.161173387733636E-121
   20.4131250000000         1.245813847828874E-120
   20.6268750000000         2.951543824770306E-120
   20.8406250000000         6.863814622629699E-120
   21.0543750000000         1.566645185443166E-119
   21.2681250000000         3.508889334416172E-119
   21.4818750000000         7.709041899521330E-119
   21.6956250000000         1.660457343091760E-118
   21.9093750000000         3.503764660269022E-118
   22.1231250000000         7.236191729567634E-118
   22.3368750000000         1.460912344571814E-117
   22.5506250000000         2.878701071321543E-117
   22.7643750000000         5.525089022160756E-117
   22.9781250000000         1.030066372309289E-116
   23.1918750000000         1.858367169874534E-116
   23.4056250000000         3.226685591085331E-116
   23.6193750000000         5.346483683628306E-116
   23.8331250000000         8.334978859041132E-116
   24.0468750000000         1.190073852325574E-115
   24.2606250000000         1.462151290362858E-115
   24.4743750000000         1.244374881639886E-115
   24.6881250000000        -4.205966003454169E-116
   24.9018750000000        -5.562270214761732E-115
   25.1156250000000        -1.815998788043042E-114
   25.3293750000000        -4.552283033793234E-114
   25.5431250000000        -1.002805670813022E-113
   25.7568750000000        -2.029263217127198E-113
   25.9706250000000        -3.844143096489909E-113
   26.1843750000000        -6.873908222179089E-113
   26.3981250000000        -1.162909634416558E-112
   26.6118750000000        -1.856562487828130E-112
   26.8256250000000        -2.773459952793841E-112
   27.0393750000000        -3.805279003459101E-112
   27.2531250000000        -4.595178991419264E-112
   27.4668750000000        -4.309753104290198E-112
   27.6806250000000        -1.285939863964307E-112
   27.8943750000000         7.466166242769849E-112
   28.1081250000000         2.688141963839102E-111
   28.3218750000000         6.446137184203286E-111
   28.5356250000000         1.306062348362220E-110
   28.7493750000000         2.380712363142468E-110
   28.9631250000000         3.995254090822619E-110
   29.1768750000000         6.216121083974234E-110
   29.3906250000000         8.932572679170079E-110
   29.6043750000000         1.165437540216191E-109
   29.8181250000000         1.319605936519677E-109
   30.0318750000000         1.123176792601942E-109
   30.2456250000000         1.739779385710509E-110
   30.4593750000000        -2.157119060369485E-109
   30.6731250000000        -6.763280236354811E-109
   30.8868750000000        -1.477615782283788E-108
   31.1006250000000        -2.740691336652606E-108
   31.3143750000000        -4.554778587240281E-108
   31.5281250000000        -6.899224879096861E-108
   31.7418750000000        -9.510952367353487E-108
   31.9556250000000        -1.168282106363068E-107
   32.1693750000000        -1.198915472722278E-107
   32.3831250000000        -7.961843870691242E-108
   32.5968750000000         4.205015215630834E-108
   32.8106250000000         2.974741312315741E-107
   33.0243750000000         7.489076487366575E-107
   33.2381250000000         1.453191987013221E-106
   33.4518750000000         2.427041560120346E-106
   33.6656250000000         3.581384003149588E-106
   33.8793750000000         4.611794625367218E-106
   34.0931250000000         4.836210064741876E-106
   34.3068750000000         2.988710858614217E-106
   34.5206250000000        -2.976747516548130E-106
   34.7343750000000        -1.592412804515329E-105
   34.9481250000000        -3.909231957341211E-105
   35.1618750000000        -7.456689890424191E-105
   35.3756250000000        -1.196670525941663E-104
   35.5893750000000        -1.598153157830724E-104
   35.8031250000000        -1.562492759740181E-104
   36.0168750000000        -2.757579353128164E-105
   36.2306250000000         3.730993584581479E-104
   36.4443750000000         1.276777128192707E-103
   36.6581250000000         2.989876559196043E-103
   36.8718750000000         5.809708867422195E-103
   37.0856250000000         9.776140861186061E-103
   37.2993750000000         1.412061335643882E-102
   37.5131250000000         1.622750933457374E-102
   37.7268750000000         9.925605397359479E-103
   37.9406250000000        -1.692732868538817E-102
   38.1543750000000        -8.514702909318617E-102
   38.3681250000000        -2.257615117803794E-101
   38.5818750000000        -4.769857314985704E-101
   38.7956250000000        -8.700345191282333E-101
   39.0093750000000        -1.392680201166087E-100
   39.2231250000000        -1.914443182645041E-100
   39.4368750000000        -2.054339835675645E-100
   39.6506250000000        -9.770592436683733E-101
   39.8643750000000         2.872680123470564E-100
   40.0781250000000         1.202712459265227E-099
   40.2918750000000         3.005089559996500E-099
   40.5056250000000         6.099011122550627E-099
   40.7193750000000         1.074929059914594E-098
   40.9331250000000         1.664800983437520E-098
   41.1468750000000         2.208847396873938E-098
   41.3606250000000         2.259600837068092E-098
   41.5743750000000         8.957534702211511E-099
   41.7881250000000        -3.512091512600435E-098
   42.0018750000000        -1.348687254497281E-097
   42.2156250000000        -3.238018680613054E-097
   42.4293750000000        -6.367206431763571E-097
   42.6431250000000        -1.089998920935615E-096
   42.8568750000000        -1.640067704932524E-096
   43.0706250000000        -2.109296146084423E-096
   43.2843750000000        -2.070529719884143E-096
   43.4981250000000        -6.921732227942253E-097
   43.7118750000000         3.427700152631360E-096
   43.9256250000000         1.235748049150127E-095
   44.1393750000000         2.868980287049714E-095
   44.3531250000000         5.486405015845947E-095
   44.5668750000000         9.149858762310266E-095
   44.7806250000000         1.341340754923742E-094
   44.9943750000000         1.677631055910906E-094
   45.2081250000000         1.588063298064638E-094
   45.4218750000000         4.510270836544874E-095
   45.6356250000000        -2.735548519673052E-094
   45.8493750000000        -9.382879255068042E-094
   46.0631250000000        -2.115888008803632E-093
   46.2768750000000        -3.946611102151770E-093
   46.4906250000000        -6.428166428168494E-093
   46.7043750000000        -9.203669305829698E-093
   46.9181250000000        -1.122515734420598E-092
   47.1318750000000        -1.028850226579112E-092
   47.3456250000000        -2.496629047100733E-093
   47.5593750000000         1.817352880228908E-092
   47.7731250000000         5.982894772239471E-092
   47.9868750000000         1.314900170755341E-091
   48.2006250000000         2.397935555772421E-091
   48.4143750000000         3.822496518138674E-091
   48.6281250000000         5.356257962613272E-091
   48.8418750000000         6.384845090169123E-091
   49.0556250000000         5.684471411889227E-091
   49.2693750000000         1.181123979793619E-091
   49.4831250000000        -1.020484923730163E-090
   49.6968750000000        -3.243843105006396E-090
   49.9106250000000        -6.966182539802812E-090
   50.1243750000000        -1.244524170078245E-089
   50.3381250000000        -1.945014359890127E-089
   50.5518750000000        -2.671949953226022E-089
   50.7656250000000        -3.118823205665479E-089
   50.9793750000000        -2.704083736151898E-089
   51.1931250000000        -4.802810467070892E-090
   51.4068750000000         4.906498469553427E-089
   51.6206250000000         1.512422593032276E-088
   51.8343750000000         3.180248096086178E-088
   52.0481250000000         5.574994064015897E-088
   52.2618750000000         8.555117052990078E-088
   52.4756250000000         1.153902750802271E-087
   52.6893750000000         1.321009297309905E-087
   52.9031250000000         1.117797410185365E-087
   53.1168750000000         1.690012055116167E-088
   53.3306250000000        -2.042165882926387E-087
   53.5443750000000        -6.124902143026145E-087
   53.7581250000000        -1.263275255635967E-086
   53.9718750000000        -2.176089041149677E-086
   54.1856250000000        -3.283222571238483E-086
   54.3993750000000        -4.353767579849012E-086
   54.6131250000000        -4.895765623314075E-086
   54.8268750000000        -4.051387001364530E-086
   55.0406250000000        -5.201754858128534E-087
   55.2543750000000         7.425739528475195E-086
   55.4681250000000         2.173477804873300E-085
   55.6818750000000         4.404165374469157E-085
   55.8956250000000         7.464783765358367E-085
   56.1093750000000         1.108749340630315E-084
   56.3231250000000         1.447394771818867E-084
   56.5368750000000         1.601084027362454E-084
   56.7506250000000         1.298749668017326E-084
   56.9643750000000         1.428181547707520E-085
   57.1781250000000        -2.376926619585330E-084
   57.3918750000000        -6.810629139462245E-084
   57.6056250000000        -1.358059120540232E-083
   57.8193750000000        -2.267950932093089E-083
   58.0331250000000        -3.320494108264588E-083
   58.2468750000000        -4.273035748366678E-083
   58.4606250000000        -4.657498188445628E-083
   58.6743750000000        -3.713819962765843E-083
   58.8881250000000        -3.614536328497811E-084
   59.1018750000000         6.740527788388553E-083
   59.3156250000000         1.897421167866672E-082
   59.5293750000000         3.729934008147027E-082
   59.7431250000000         6.146168728037973E-082
   59.9568750000000         8.882260085875794E-082
   60.1706250000000         1.128439739183633E-081
   60.3843750000000         1.214213611334931E-081
   60.5981250000000         9.550664926416324E-082
   60.8118750000000         8.801974324380032E-083
   61.0256250000000        -1.702913090053295E-081
   61.2393750000000        -4.729015109199344E-081
   61.4531250000000        -9.183144597785835E-081
   61.6668750000000        -1.495422134293831E-080
   61.8806250000000        -2.136357537729048E-080
   62.0943750000000        -2.683759291123813E-080
   62.3081250000000        -2.856697519406028E-080
   62.5218750000000        -2.225607431458240E-080
   62.7356250000000        -2.134524371373253E-081
   62.9493750000000         3.852076845256803E-080
   63.1631250000000         1.060411718449968E-079
   63.3768750000000         2.038676348089245E-079
   63.5906250000000         3.286386807807806E-079
   63.8043750000000         4.648327224905656E-079
   64.0181250000000         5.783804265973631E-079
   64.2318750000000         6.103884063434581E-079
   64.4456250000000         4.731346492393598E-079
   64.6593750000000         5.174358065328076E-080
   64.8731250000000        -7.837739395392113E-079
   65.0868750000000        -2.150509752889092E-078
   65.3006250000000        -4.103124618093413E-078
   65.5143750000000        -6.559123157730968E-078
   65.7281250000000        -9.200011584871904E-078
   65.9418750000000        -1.135804045597427E-077
   66.1556250000000        -1.191144649795247E-077
   66.3693750000000        -9.228763980725460E-078
   66.5831250000000        -1.223219253064713E-078
   66.7968750000000         1.440251696668330E-077
   67.0106250000000         3.962989407973101E-077
   67.2243750000000         7.523271725861738E-077
   67.4381250000000         1.194765517875992E-076
   67.6518750000000         1.664538354070566E-076
   67.8656250000000         2.042490148056954E-076
   68.0793750000000         2.133461950294145E-076
   68.2931250000000         1.659698067021897E-076
   68.5068750000000         2.735280242467326E-077
   68.7206250000000        -2.398130335040897E-076
   68.9343750000000        -6.663886957291561E-076
   69.1481250000000        -1.262124903833782E-075
   69.3618750000000        -1.994927693346899E-075
   69.5756250000000        -2.765125106873591E-075
   69.7893750000000        -3.378169003214184E-075
   70.0031250000000        -3.522492553958928E-075
   70.2168750000000        -2.763242765044824E-075
   70.4306250000000        -5.667258219761933E-076
   70.6443750000000         3.626461365633929E-075
   70.8581250000000         1.026118497303796E-074
   71.0718750000000         1.944648250623243E-074
   71.2856250000000         3.065138859742542E-074
   71.4993750000000         4.233827958976136E-074
   71.7131250000000         5.158816686491992E-074
   71.9268750000000         5.381776240515514E-074
   72.1406250000000         4.274091523270672E-074
   72.3543750000000         1.077801564972458E-074
   72.5681250000000        -4.984954193851674E-074
   72.7818750000000        -1.451096608326399E-073
   72.9956250000000        -2.760808875621731E-073
   73.2093750000000        -4.348290415320099E-073
   73.4231250000000        -5.995708805027179E-073
   73.6368750000000        -7.299070206438469E-073
   73.8506250000000        -7.634838454151924E-073
   74.0643750000000        -6.160859737322486E-073
   74.2781250000000        -1.877398498553651E-073
   74.4918750000000         6.222794165257790E-073
   74.7056250000000         1.888885099823824E-072
   74.9193750000000         3.621540307218421E-072
   75.1331250000000         5.712405952127260E-072
   75.3468750000000         7.877044825727381E-072
   75.5606250000000         9.597955625186904E-072
   75.7743750000000         1.008800812603590E-071
   75.9881250000000         8.298073752276877E-072
   76.2018750000000         2.999190303604241E-072
   76.4156250000000        -7.027977156643366E-072
   76.6293750000000        -2.266804808274717E-071
   76.8431250000000        -4.399689722782370E-071
   77.0568750000000        -6.967458195901548E-071
   77.2706250000000        -9.626698023658103E-071
   77.4843750000000        -1.176202457715363E-070
   77.6981250000000        -1.244865107799759E-070
   77.9118750000000        -1.046747970406854E-070
   78.1256250000000        -4.405928636706079E-071
   78.3393750000000         7.120897032308249E-071
   78.5531250000000         2.510053133692237E-070
   78.7668750000000         4.959486260974952E-070
   78.9806250000000         7.907617025012025E-070
   79.1943750000000         1.097003440261992E-069
   79.4081250000000         1.346558930081721E-069
   79.6218750000000         1.438031478440724E-069
   79.8356250000000         1.238917456794264E-069
   80.0493750000000         5.969628299107788E-070
   80.2631250000000        -6.358759709374925E-070
   80.4768750000000        -2.564250072029485E-069
   80.6906250000000        -5.194386483616360E-069
   80.9043750000000        -8.366042135215876E-069
   81.1181250000000        -1.167934268597978E-068
   81.3318750000000        -1.443088158822591E-068
   81.5456250000000        -1.558069051484145E-068
   81.7593750000000        -1.377842471599414E-068
   81.9731250000000        -7.481379738620998E-069
   82.1868750000000         4.803852198242154E-069
   82.4006250000000         2.413324503116776E-068
   82.6143750000000         5.058808977155234E-068
   82.8281250000000         8.261980837140038E-068
   83.0418750000000         1.163560049170517E-067
   83.2556250000000         1.450067171327933E-067
   83.4693750000000         1.585746934521758E-067
   83.6831250000000         1.441313329735676E-067
   83.8968750000000         8.695265970867920E-068
   84.1106250000000        -2.720597880979026E-068
   84.3243750000000        -2.085083323958165E-067
   84.5381250000000        -4.581112649461690E-067
   84.7518750000000        -7.622250023160905E-067
   84.9656250000000        -1.085896714751022E-066
   85.1793750000000        -1.367773162927106E-066
   85.3931250000000        -1.517645595661668E-066
   85.6068750000000        -1.419048104945427E-066
   85.8206250000000        -9.394139399110803E-067
   86.0343750000000         4.990189173642953E-068
   86.2481250000000         1.642264197554353E-066
   86.4618750000000         3.853269049603446E-066
   86.6756250000000         6.569961482108853E-066
   86.8893750000000         9.498155027644777E-066
   87.1031250000000         1.211848423262867E-065
   87.3168750000000         1.366618096234717E-065
   87.5306250000000         1.315314657871641E-065
   87.7443750000000         9.452441590992400E-066
   87.9581250000000         1.463305756220709E-066
   88.1718750000000        -1.163236114250308E-065
   88.3856250000000        -3.002488206984055E-065
   88.5993750000000        -5.286694426765557E-065
   88.8131250000000        -7.785083889494426E-065
   89.0268750000000        -1.008572496705563E-064
   89.2406250000000        -1.157928440923960E-064
   89.4543750000000        -1.147598752242059E-064
   89.6681250000000        -8.871061196810088E-065
   89.8818750000000        -2.872143063228120E-065
   90.0956250000000         7.203571149078843E-065
   90.3093750000000         2.156524081850303E-064
   90.5231250000000         3.963600603859309E-064
   90.7368750000000         5.973163292612279E-064
   90.9506250000000         7.879317257065919E-064
   91.1643750000000         9.225996127902071E-064
   91.3781250000000         9.418712473075947E-064
   91.5918750000000         7.771732552779655E-064
   91.8056250000000         3.600201104251256E-064
   92.0193750000000        -3.637486972414313E-064
   92.2331250000000        -1.414938297484393E-063
   92.4468750000000        -2.758527070256028E-063
   92.6606250000000        -4.280543819518780E-063
   92.8743750000000        -5.768705514353581E-063
   93.0881250000000        -6.902796114584107E-063
   93.3018750000000        -7.261928759388705E-063
   93.5156250000000        -6.356136693625231E-063
   93.7293750000000        -3.688674181115773E-063
   93.9431250000000         1.147511786057318E-063
   94.1568750000000         8.340813753297873E-063
   94.3706250000000         1.770861402581981E-062
   94.5843750000000         2.854007277146126E-062
   94.7981250000000         3.946303878647076E-062
   95.0118750000000         4.837401147153686E-062
   95.2256250000000         5.247723877422886E-062
   95.4393750000000         4.848057025672865E-062
   95.6531250000000         3.298848767425121E-062
   95.8668750000000         3.113915125467848E-063
   96.0806250000000        -4.270201987029199E-062
   96.2943750000000        -1.037193849976435E-061
   96.5081250000000        -1.758928450522867E-061
   96.7218750000000        -2.510072575689042E-061
   96.9356250000000        -3.161928517477680E-061
   97.1493750000000        -3.540988098604210E-061
   97.3631250000000        -3.440111131341441E-061
   97.5768750000000        -2.641554261143547E-061
   97.7906250000000        -9.531267288922634E-062
   98.0043750000000         1.743162643975920E-061
   98.2181250000000         5.433291678117364E-061
   98.4318750000000         9.910876403536642E-061
   98.6456250000000         1.472449659176794E-060
   98.8593750000000         1.914618635954877E-060
   99.0731250000000         2.217680677085387E-060
   99.2868750000000         2.260428146110387E-060
   99.5006250000000         1.912804235094263E-060
   99.7143750000000         1.055669971424479E-060
   99.9281250000000        -3.924531563040649E-061
   100.141875000000        -2.443460937835356E-060
   100.355625000000        -5.006114243670569E-060
   100.569375000000        -7.856268707395183E-060
   100.783125000000        -1.061796706091800E-059
   100.996875000000        -1.276355592151356E-059
   101.210625000000        -1.364102940377819E-059
   101.424375000000        -1.253535340479117E-059
   101.638125000000        -8.767228919468883E-060
   101.851875000000        -1.827449093576266E-060
   102.065625000000         8.462159401993130E-060
   102.279375000000         2.177868888105659E-059
   102.493125000000         3.714522319492900E-059
   102.706875000000         5.282879208030580E-059
   102.920625000000         6.632742965134643E-059
   103.134375000000         7.448391598724402E-059
   103.348125000000         7.375615694249684E-059
   103.561875000000         6.065824561035590E-059
   103.775625000000         3.236178171769904E-059
   103.989375000000        -1.258477122796024E-059
   104.203125000000        -7.349697725667704E-059
   104.416875000000        -1.468691836139196E-058
   104.630625000000        -2.259046250508143E-058
   104.844375000000        -3.004149796531442E-058
   105.058125000000        -3.572331164952659E-058
   105.271875000000        -3.812432957289260E-058
   105.485625000000        -3.570617520225848E-058
   105.699375000000        -2.712998876898814E-058
   105.913125000000        -1.152213308975062E-058
   106.126875000000         1.125207889448752E-058
   106.340625000000         4.034859745808134E-058
   106.554375000000         7.378675695507237E-058
   106.768125000000         1.084199844969502E-057
   106.981875000000         1.400710944361525E-057
   107.195625000000         1.638472662999603E-057
   107.409375000000         1.746198344232666E-057
   107.623125000000         1.676186249198512E-057
   107.836875000000         1.390560761461863E-057
   108.050625000000         8.667138607406461E-058
   108.264375000000         1.007927683304805E-058
   108.478125000000        -8.916914667604249E-058
   108.691875000000        -2.078485222519810E-057
   108.905625000000        -3.415875527578871E-057
   109.119375000000        -4.854896510051775E-057
   109.333125000000        -6.345501032561713E-057
   109.546875000000        -7.834791996632439E-057
   109.760625000000        -9.255147786748621E-057
   109.974375000000        -1.049896047843207E-056
   110.188125000000        -1.137914008357060E-056
   110.401875000000        -1.157875348698352E-056
   110.615625000000        -1.059906882589326E-056
   110.829375000000        -7.722298618509115E-057
   111.043125000000        -2.012325192290350E-057
   111.256875000000         7.618127482965303E-057
   111.470625000000         2.224435821720975E-056
   111.684375000000         4.264675501003431E-056
   111.898125000000         6.889910871387638E-056
   112.111875000000         9.984497652732164E-056
   112.325625000000         1.325156584918102E-055
   112.539375000000         1.615888544601953E-055
   112.753125000000         1.790359418253601E-055
   112.966875000000         1.741491357063119E-055
   113.180625000000         1.341652068196107E-055
   113.394375000000         4.569502718999662E-056
   113.608125000000        -1.028876294842987E-055
   113.821875000000        -3.180623270064212E-055
   114.035625000000        -5.969345579562395E-055
   114.249375000000        -9.225692546689005E-055
   114.463125000000        -1.259591262690497E-054
   114.676875000000        -1.551071940629805E-054
   114.890625000000        -1.717989080314689E-054
   115.104375000000        -1.662695011404609E-054
   115.318125000000        -1.277767301310661E-054
   115.531875000000        -4.612589012296291E-055
   115.745625000000         8.613635732530338E-055
   115.959375000000         2.709440145281446E-054
   116.173125000000         5.015861508649887E-054
   116.386875000000         7.596495036911371E-054
   116.600625000000         1.012630860306444E-053
   116.814375000000         1.212981164793674E-053
   117.028125000000         1.299436691216954E-053
   117.241875000000         1.201471190992985E-053
   117.455625000000         8.475185715081884E-054
   117.669375000000         1.772288751801094E-054
   117.883125000000        -8.425888374394339E-054
   118.096875000000        -2.199502829946749E-053
   118.310625000000        -3.816615535487096E-053
   118.524375000000        -5.536505601397988E-053
   118.738125000000        -7.112029473610763E-053
   118.951875000000        -8.208641552557699E-053
   119.165625000000        -8.422908370445547E-053
   119.379375000000        -7.321094735589588E-053
   119.593125000000        -4.499882947243555E-053
   119.806875000000         3.316622367745086E-054
   120.020625000000         7.253811116904712E-053
   120.234375000000         1.603138512507970E-052
   120.448125000000         2.601752887078333E-052
   120.661875000000         3.608593451544742E-052
   120.875625000000         4.461485800770208E-052
   121.089375000000         4.954715946039075E-052
   121.303125000000         4.854776030233016E-052
   121.516875000000         3.927231981019667E-052
   121.730625000000         1.974797704315813E-052
   121.944375000000        -1.115127180993668E-052
   122.158125000000        -5.317462614308528E-052
   122.371875000000        -1.041749607947770E-051
   122.585625000000        -1.596887142877899E-051
   122.799375000000        -2.127228718763690E-051
   123.013125000000        -2.538650461991898E-051
   123.226875000000        -2.718252525259363E-051
   123.440625000000        -2.544900889850653E-051
   123.654375000000        -1.905184783104938E-051
   123.868125000000        -7.143239559961900E-052