  -1.60312500000000         0.000000000000000E+000
  -1.38937500000000        -6.304067997915197E-012
  -1.17562500000000        -4.406429269841722E-011
 -0.961875000000000        -2.107672515655866E-010
 -0.748125000000000        -8.129798948935539E-010
 -0.534375000000000        -2.633307221981010E-009
 -0.320625000000000        -7.292617737874823E-009
 -0.106875000000000        -1.751523416104855E-008
  0.106875000000000        -3.700890219562965E-008
  0.320625000000000        -6.984167593388819E-008
  0.534375000000000        -1.195784130646822E-007
  0.748125000000000        -1.886106369896498E-007
  0.961875000000000        -2.779191394798582E-007
   1.17562500000000        -3.872695327958334E-007
   1.38937500000000        -5.155301060591506E-007
   1.60312500000000        -6.606635867992477E-007
   1.81687500000000        -8.199393544346254E-007
   2.03062500000000        -9.899772034671167E-007
   2.24437500000000        -1.166021749751836E-006
   2.45812500000000        -1.345280921204546E-006
   2.67187500000000        -1.521637693598058E-006
   2.88562500000000        -1.692613514311768E-006
   3.09937500000000        -1.852783446037605E-006
   3.31312500000000        -1.997246662156212E-006
   3.52687500000000        -2.122639205938611E-006
   3.74062500000000        -2.225993193695056E-006
   3.95437500000000        -2.305194120079211E-006
   4.16812500000000        -2.358959190665254E-006
   4.38187500000000        -2.386904020585992E-006
   4.59562500000000        -2.389696918888287E-006
   4.80937500000000        -2.369820100749115E-006
   5.02312500000000        -2.330876811408323E-006
   5.23687500000000        -2.276841868483571E-006
   5.45062500000000        -2.213361506216542E-006
   5.66437500000000        -2.146967587110488E-006
   5.87812500000000        -2.084806379693046E-006
   6.09187500000000        -2.034179370864377E-006
   6.30562500000000        -2.002075488496102E-006
   6.51937500000000        -1.995071747756035E-006
   6.73312500000000        -2.017614125471937E-006
   6.94687500000000        -2.070785149097922E-006
   7.16062500000000        -2.158133614050436E-006
   7.37437500000000        -2.276135629986080E-006
   7.58812500000000        -2.419386170067828E-006
   7.80187500000000        -2.579991412495222E-006
   8.01562500000000        -2.747962767319577E-006
   8.22937500000000        -2.911911620081426E-006
   8.44312500000000        -3.060003685428630E-006
   8.65687500000000        -3.180720389595133E-006
   8.87062500000000        -3.264116399718832E-006
   9.08437500000000        -3.302606774885079E-006
   9.29812500000000        -3.291705275867733E-006
   9.51187500000000        -3.229771392451465E-006
   9.72562500000000        -3.118150416868570E-006
   9.93937500000000        -2.963248989418052E-006
   10.1531250000000        -2.772879528734645E-006
   10.3668750000000        -2.556905091785784E-006
   10.5806250000000        -2.326330965517624E-006
   10.7943750000000        -2.092106105549376E-006
   11.0081250000000        -1.864655457792582E-006
   11.2218750000000        -1.655658472012884E-006
   11.4356250000000        -1.466063595337161E-006
   11.6493750000000        -1.308599142155949E-006
   11.8631250000000        -1.174801371730798E-006
   12.0768750000000        -1.079448395382360E-006
   12.2906250000000        -1.005490177151692E-006
   12.5043750000000        -9.667782512306024E-007
   12.7181250000000        -9.440251197954168E-007
   12.9318750000000        -9.475587715993939E-007
   13.1456250000000        -9.632373664733827E-007
   13.3593750000000        -9.947522404063361E-007
   13.5731250000000        -1.035710680120587E-006
   13.7868750000000        -1.082882677083489E-006
   14.0006250000000        -1.132651262023167E-006
   14.2143750000000        -1.181499525498215E-006
   14.4281250000000        -1.226173790905699E-006
   14.6418750000000        -1.263566455099033E-006
   14.8556250000000        -1.291496836289733E-006
   15.0693750000000        -1.308015330463270E-006
   15.2831250000000        -1.312090674137850E-006
   15.4968750000000        -1.303469630394380E-006
   15.7106250000000        -1.284593485892420E-006
   15.9243750000000        -1.255457003117746E-006
   16.1381250000000        -1.219076816452220E-006
   16.3518750000000        -1.178795567463028E-006
   16.5656250000000        -1.137962058633782E-006
   16.7793750000000        -1.099486336650378E-006
   16.9931250000000        -1.066171339056176E-006
   17.2068750000000        -1.039252006244162E-006
   17.4206250000000        -1.016472044036744E-006
   17.6343750000000        -9.985746414674956E-007
   17.8481250000000        -9.939550641085174E-007
   18.0618750000000        -9.845836601484981E-007
   18.2756250000000        -9.856243118795100E-007
   18.4893750000000        -9.757258149433919E-007
   18.7031250000000        -9.655787264021836E-007
   18.9168750000000        -9.438394985109491E-007
   19.1306250000000        -9.139643997866180E-007
   19.3443750000000        -8.751962936107292E-007
   19.5581250000000        -8.296543353953551E-007
   19.7718750000000        -7.811427799540978E-007
   19.9856250000000        -7.344932753110556E-007
   20.1993750000000        -6.949896481209866E-007
   20.4131250000000        -6.679417512040352E-007
   20.6268750000000        -6.581815985885158E-007
   20.8406250000000        -6.695922995932291E-007
   21.0543750000000        -7.037655908184204E-007
   21.2681250000000        -7.615174239941378E-007
   21.4818750000000        -8.416798772028519E-007
   21.6956250000000        -9.423210575991376E-007
   21.9093750000000        -1.059291380788109E-006
   22.1231250000000        -1.187843812379902E-006
   22.3368750000000        -1.322846696383473E-006
   22.5506250000000        -1.459293356214371E-006
   22.7643750000000        -1.592661701820918E-006
   22.9781250000000        -1.718954939723551E-006
   23.1918750000000        -1.835389155011728E-006
   23.4056250000000        -1.940485465749515E-006
   23.6193750000000        -2.033636131990562E-006
   23.8331250000000        -2.114989246672915E-006
   24.0468750000000        -2.185058702560746E-006
   24.2606250000000        -2.244460738067644E-006
   24.4743750000000        -2.293201710694380E-006
   24.6881250000000        -2.331341164262481E-006
   24.9018750000000        -2.358370454069745E-006
   25.1156250000000        -2.373323364255786E-006
   25.3293750000000        -2.375497971007131E-006
   25.5431250000000        -2.363567830753041E-006
   25.7568750000000        -2.337881092029872E-006
   25.9706250000000        -2.299143319497553E-006
   26.1843750000000        -2.252242516030988E-006
   26.3981250000000        -2.184824568803975E-006
   26.6118750000000        -2.116944113697367E-006
   26.8256250000000        -2.032186943373319E-006
   27.0393750000000        -1.953026822802733E-006
   27.2531250000000        -1.865681310674615E-006
   27.4668750000000        -1.784608081093762E-006
   27.6806250000000        -1.710944824930372E-006
   27.8943750000000        -1.646199493779413E-006
   28.1081250000000        -1.591273091494745E-006
   28.3218750000000        -1.546409654069521E-006
   28.5356250000000        -1.510385055484406E-006
   28.7493750000000        -1.481205126812032E-006
   28.9631250000000        -1.456093420036476E-006
   29.1768750000000        -1.432216479035435E-006
   29.3906250000000        -1.406468409908732E-006
   29.6043750000000        -1.376186241718664E-006
   29.8181250000000        -1.339458105393496E-006
   30.0318750000000        -1.294767946543331E-006
   30.2456250000000        -1.240032386964775E-006
   30.4593750000000        -1.176859244596397E-006
   30.6731250000000        -1.105110466815803E-006
   30.8868750000000        -1.025755045680397E-006
   31.1006250000000        -9.402256563162748E-007
   31.3143750000000        -8.500697026701039E-007
   31.5281250000000        -7.569106839723556E-007
   31.7418750000000        -6.622137458007793E-007
   31.9556250000000        -5.673192025828532E-007
   32.1693750000000        -4.733518159207130E-007
   32.3831250000000        -3.812877276745466E-007
   32.5968750000000        -2.924531026713412E-007
   32.8106250000000        -2.069970754275439E-007
   33.0243750000000        -1.264115722242690E-007
   33.2381250000000        -5.206210958149076E-008
   33.4518750000000         1.428011126822605E-008
   33.6656250000000         7.050257509004823E-008
   33.8793750000000         1.142547494633675E-007
   34.0931250000000         1.429750413874434E-007
   34.3068750000000         1.540884790476948E-007
   34.5206250000000         1.451415074455962E-007
   34.7343750000000         1.147698686490471E-007
   34.9481250000000         6.225825654171092E-008
   35.1618750000000        -1.245935619594536E-008
   35.3756250000000        -1.078287629716954E-007
   35.5893750000000        -2.208387362890309E-007
   35.8031250000000        -3.470707872980224E-007
   36.0168750000000        -4.808207044273220E-007
   36.2306250000000        -6.154605104225050E-007
   36.4443750000000        -7.439881687620566E-007
   36.6581250000000        -8.592168983650487E-007
   36.8718750000000        -9.578908707905319E-007
   37.0856250000000        -1.024878707540174E-006
   37.2993750000000        -1.065699199643903E-006
   37.5131250000000        -1.071765580047034E-006
   37.7268750000000        -1.056540561704873E-006
   37.9406250000000        -1.003418613013289E-006
   38.1543750000000        -9.313006397650652E-007
   38.3681250000000        -8.443866110979582E-007
   38.5818750000000        -7.505992578006950E-007
   38.7956250000000        -6.587575246939571E-007
   39.0093750000000        -5.776309343776202E-007
   39.2231250000000        -5.149451168617427E-007
   39.4368750000000        -4.769932257413684E-007
   39.6506250000000        -4.638223275812285E-007
   39.8643750000000        -4.888214806208673E-007
   40.0781250000000        -5.473560354028047E-007
   40.2918750000000        -6.385378823377040E-007
   40.5056250000000        -7.593132652118125E-007
   40.7193750000000        -9.042705169747028E-007
   40.9331250000000        -1.070522631105810E-006
   41.1468750000000        -1.239512198828999E-006
   41.3606250000000        -1.416992982552563E-006
   41.5743750000000        -1.588079221403729E-006
   41.7881250000000        -1.745936824217218E-006
   42.0018750000000        -1.884755438307327E-006
   42.2156250000000        -1.999473531862272E-006
   42.4293750000000        -2.085910245887351E-006
   42.6431250000000        -2.141274727088517E-006
   42.8568750000000        -2.166320902357550E-006
   43.0706250000000        -2.145979531109623E-006
   43.2843750000000        -2.095188650895358E-006
   43.4981250000000        -1.999907131036431E-006
   43.7118750000000        -1.869571835050143E-006
   43.9256250000000        -1.704856447688987E-006
   44.1393750000000        -1.507890890991887E-006
   44.3531250000000        -1.282280988726042E-006
   44.5668750000000        -1.032588322690752E-006
   44.7806250000000        -7.644070422034148E-007
   44.9943750000000        -4.842351550168583E-007
   45.2081250000000        -1.992398591542595E-007
   45.4218750000000         8.301442491287362E-008
   45.6356250000000         3.548734993884557E-007
   45.8493750000000         6.089430672291980E-007
   46.0631250000000         8.384541071814747E-007
   46.2768750000000         1.037498510622286E-006
   46.4906250000000         1.201530824913047E-006
   46.7043750000000         1.327255713137993E-006
   46.9181250000000         1.412904908525778E-006
   47.1318750000000         1.458420079057920E-006
   47.3456250000000         1.464741280747912E-006
   47.5593750000000         1.429773191692526E-006
   47.7731250000000         1.362903986592247E-006
   47.9868750000000         1.264166264337367E-006
   48.2006250000000         1.143702793399408E-006
   48.4143750000000         9.994143552772174E-007
   48.6281250000000         8.430926344058164E-007
   48.8418750000000         6.775016805725121E-007
   49.0556250000000         5.102437711355466E-007
   49.2693750000000         3.433695216086080E-007
   49.4831250000000         1.829850856213821E-007
   49.6968750000000         3.394536639319706E-008
   49.9106250000000        -9.947553246492508E-008
   50.1243750000000        -2.136179815973097E-007
   50.3381250000000        -3.054999168094846E-007
   50.5518750000000        -3.727821448701015E-007
   50.7656250000000        -4.098271936016315E-007
   50.9793750000000        -4.293388720121694E-007
   51.1931250000000        -4.188075799436627E-007
   51.4068750000000        -3.970662277868620E-007
   51.6206250000000        -3.517142651771940E-007
   51.8343750000000        -3.034820940570478E-007
   52.0481250000000        -2.426635633703099E-007
   52.2618750000000        -1.881224108582632E-007
   52.4756250000000        -1.340769611123608E-007
   52.6893750000000        -8.955262918542857E-008
   52.9031250000000        -5.733110087714334E-008
   53.1168750000000        -3.680999679113379E-008
   53.3306250000000        -3.042871541483525E-008
   53.5443750000000        -3.648283934707221E-008
   53.7581250000000        -5.317005939886606E-008
   53.9718750000000        -7.859804527764066E-008
   54.1856250000000        -1.102002589722399E-007
   54.3993750000000        -1.452447055389316E-007
   54.6131250000000        -1.812913194782019E-007
   54.8268750000000        -2.162574355138335E-007
   55.0406250000000        -2.485631000579031E-007
   55.2543750000000        -2.771473416677748E-007
   55.4681250000000        -3.013511145319609E-007
   55.6818750000000        -3.207536875781359E-007
   55.8956250000000        -3.349297952044922E-007
   56.1093750000000        -3.432575971376816E-007
   56.3231250000000        -3.444002867651531E-007
   56.5368750000000        -3.367437588644435E-007
   56.7506250000000        -3.200187766283042E-007
   56.9643750000000        -2.902115766975329E-007
   57.1781250000000        -2.454595783810051E-007
   57.3918750000000        -1.833068567807374E-007
   57.6056250000000        -1.022079936797920E-007
   57.8193750000000        -1.224468059663882E-009
   58.0331250000000         1.189670097993962E-007
   58.2468750000000         2.571846224742673E-007
   58.4606250000000         4.108754110987417E-007
   58.6743750000000         5.764470928573503E-007
   58.8881250000000         7.459331165447580E-007
   59.1018750000000         9.223106697034480E-007
   59.3156250000000         1.090087762635207E-006
   59.5293750000000         1.254588202120199E-006
   59.7431250000000         1.407235188199559E-006
   59.9568750000000         1.545583585096890E-006
   60.1706250000000         1.667327828155579E-006
   60.3843750000000         1.770721851766900E-006
   60.5981250000000         1.855318776065404E-006
   60.8118750000000         1.921356964867081E-006
   61.0256250000000         1.972740141380785E-006
   61.2393750000000         1.997375545237621E-006
   61.4531250000000         2.013055144695858E-006
   61.6668750000000         2.006691292424685E-006
   61.8806250000000         1.982048996568766E-006
   62.0943750000000         1.939086585799556E-006
   62.3081250000000         1.877991696336658E-006
   62.5218750000000         1.799438306488863E-006
   62.7356250000000         1.702623585323695E-006
   62.9493750000000         1.592240315597674E-006
   63.1631250000000         1.456943800452944E-006
   63.3768750000000         1.310928255868033E-006
   63.5906250000000         1.145626503809196E-006
   63.8043750000000         9.716737707503743E-007
   64.0181250000000         7.973757875124857E-007
   64.2318750000000         6.176009727586110E-007
   64.4456250000000         4.457067853862050E-007
   64.6593750000000         2.889562501174272E-007
   64.8731250000000         1.542285915092207E-007
   65.0868750000000         4.839296180995353E-008
   65.3006250000000        -2.273114746844151E-008
   65.5143750000000        -5.479170434024780E-008
   65.7281250000000        -4.495655523947738E-008
   65.9418750000000         7.640076540482301E-009
   66.1556250000000         1.000887315197185E-007
   66.3693750000000         2.284635984495036E-007
   66.5831250000000         3.850873067390247E-007
   66.7968750000000         5.612877643641738E-007
   67.0106250000000         7.470193476176922E-007
   67.2243750000000         9.316992079389002E-007
   67.4381250000000         1.105116615757656E-006
   67.6518750000000         1.261622606561507E-006
   67.8656250000000         1.383560290754468E-006
   68.0793750000000         1.478400367025662E-006
   68.2931250000000         1.530686054194052E-006
   68.5068750000000         1.549382816385543E-006
   68.7206250000000         1.530242126699351E-006
   68.9343750000000         1.482933496470250E-006
   69.1481250000000         1.411826633114735E-006
   69.3618750000000         1.323177816026627E-006
   69.5756250000000         1.223483579377537E-006
   69.7893750000000         1.118975149303063E-006
   70.0031250000000         1.015429859971261E-006
   70.2168750000000         9.177386171470177E-007
   70.4306250000000         8.302663536948949E-007
   70.6443750000000         7.573851090759292E-007
   70.8581250000000         7.020417776643124E-007
   71.0718750000000         6.681874867589567E-007
   71.2856250000000         6.615688987349983E-007
   71.4993750000000         6.780337174257918E-007
   71.7131250000000         7.395110857147585E-007
   71.9268750000000         8.335554946644972E-007
   72.1406250000000         9.757674338183752E-007
   72.3543750000000         1.155925974908342E-006
   72.5681250000000         1.384058693145600E-006
   72.7818750000000         1.650472594548575E-006
   72.9956250000000         1.946271792692028E-006
   73.2093750000000         2.264997033223103E-006
   73.4231250000000         2.594479604779705E-006
   73.6368750000000         2.918754116003736E-006
   73.8506250000000         3.223163297331529E-006
   74.0643750000000         3.493377615189591E-006
   74.2781250000000         3.716961220183601E-006
   74.4918750000000         3.884327117623020E-006
   74.7056250000000         3.989573897367883E-006
   74.9193750000000         4.031149387185071E-006
   75.1331250000000         4.010462441965680E-006
   75.3468750000000         3.929413508962801E-006
   75.5606250000000         3.806807549576255E-006
   75.7743750000000         3.642796670187475E-006
   75.9881250000000         3.456165874705409E-006
   76.2018750000000         3.254487525178942E-006
   76.4156250000000         3.047960134231043E-006
   76.6293750000000         2.840410817558403E-006
   76.8431250000000         2.636995030366694E-006
   77.0568750000000         2.439871815122218E-006
   77.2706250000000         2.249717783441799E-006
   77.4843750000000         2.066499925346019E-006
   77.6981250000000         1.895443544081639E-006
   77.9118750000000         1.723550795909324E-006
   78.1256250000000         1.567694015072092E-006
   78.3393750000000         1.412956762833276E-006
   78.5531250000000         1.282851827944348E-006
   78.7668750000000         1.162787237055725E-006
   78.9806250000000         1.079351230203429E-006
   79.1943750000000         1.018886440719408E-006
   79.4081250000000         9.990441504544983E-007
   79.6218750000000         1.019405515664152E-006
   79.8356250000000         1.080051092723533E-006
   80.0493750000000         1.179601948429348E-006
   80.2631250000000         1.312594861313968E-006
   80.4768750000000         1.470716212784549E-006
   80.6906250000000         1.645425554034222E-006
   80.9043750000000         1.827071410504292E-006
   81.1181250000000         2.001231393448323E-006
   81.3318750000000         2.172686477645896E-006
   81.5456250000000         2.321642927678289E-006
   81.7593750000000         2.455133643632994E-006
   81.9731250000000         2.562777564478153E-006
   82.1868750000000         2.640263704493179E-006
   82.4006250000000         2.701486770477699E-006
   82.6143750000000         2.737876900439226E-006
   82.8281250000000         2.756104825178484E-006
   83.0418750000000         2.753891767703497E-006
   83.2556250000000         2.736817268579179E-006
   83.4693750000000         2.704127899056474E-006
   83.6831250000000         2.657569324315887E-006
   83.8968750000000         2.599498753183253E-006
   84.1106250000000         2.535279196753064E-006
   84.3243750000000         2.456237342338854E-006
   84.5381250000000         2.380486395376070E-006
   84.7518750000000         2.298928055772447E-006
   84.9656250000000         2.224715832698384E-006
   85.1793750000000         2.163312003602882E-006
   85.3931250000000         2.123151414933465E-006
   85.6068750000000         2.107626724938056E-006
   85.8206250000000         2.133873172997086E-006
   86.0343750000000         2.196884557059930E-006
   86.2481250000000         2.307545366617274E-006
   86.4618750000000         2.462434816821056E-006
   86.6756250000000         2.658564951405100E-006
   86.8893750000000         2.888997599687643E-006
   87.1031250000000         3.139613516008115E-006
   87.3168750000000         3.415374667440680E-006
   87.5306250000000         3.689419489166118E-006
   87.7443750000000         3.967508468162134E-006
   87.9581250000000         4.224565621628540E-006
   88.1718750000000         4.466414259004932E-006
   88.3856250000000         4.679700840225940E-006
   88.5993750000000         4.861184441090024E-006
   88.8131250000000         5.010113936157000E-006
   89.0268750000000         5.127564778985351E-006
   89.2406250000000         5.215061985212211E-006
   89.4543750000000         5.276016414298892E-006
   89.6681250000000         5.312325926871697E-006
   89.8818750000000         5.325343662398771E-006
   90.0956250000000         5.316080495052130E-006
   90.3093750000000         5.283272648653179E-006
   90.5231250000000         5.225506424643846E-006
   90.7368750000000         5.140860865351411E-006
   90.9506250000000         5.027375812803238E-006
   91.1643750000000         4.884421687008370E-006
   91.3781250000000         4.712592249419819E-006
   91.5918750000000         4.514508503489266E-006
   91.8056250000000         4.295265743587643E-006
   92.0193750000000         4.061978244060898E-006
   92.2331250000000         3.823797289347420E-006
   92.4468750000000         3.591171181042036E-006
   92.6606250000000         3.375005303529812E-006
   92.8743750000000         3.185638715070656E-006
   93.0881250000000         3.031720058467694E-006
   93.3018750000000         2.919660048697292E-006
   93.5156250000000         2.852790220113316E-006
   93.7293750000000         2.830154271834112E-006
   93.9431250000000         2.849043579417859E-006
   94.1568750000000         2.900900429864512E-006
   94.3706250000000         2.976961627276415E-006
   94.5843750000000         3.067584602988400E-006
   94.7981250000000         3.161922956691118E-006
   95.0118750000000         3.250966141890577E-006
   95.2256250000000         3.326504624270842E-006
   95.4393750000000         3.384155336056898E-006
   95.6531250000000         3.422031998539568E-006
   95.8668750000000         3.445357560847340E-006
   96.0806250000000         3.446448090572700E-006
   96.2943750000000         3.440390568306761E-006
   96.5081250000000         3.433713477424109E-006
   96.7218750000000         3.432904827058163E-006
   96.9356250000000         3.443286152888003E-006
   97.1493750000000         3.468725718528559E-006
   97.3631250000000         3.510209708337853E-006
   97.5768750000000         3.565307090087471E-006
   97.7906250000000         3.632980879454195E-006
   98.0043750000000         3.708077286758481E-006
   98.2181250000000         3.784715795458956E-006
   98.4318750000000         3.856955291956843E-006
   98.6456250000000         3.920536364179235E-006
   98.8593750000000         3.972319091781078E-006
   99.0731250000000         4.012108055812626E-006
   99.2868750000000         4.042567567397390E-006
   99.5006250000000         4.073551827459892E-006
   99.7143750000000         4.097302310733333E-006
   99.9281250000000         4.136872441043792E-006
   100.141875000000         4.182421286778766E-006
   100.355625000000         4.251420342783997E-006
   100.569375000000         4.342305957706049E-006
   100.783125000000         4.456188725220917E-006
   100.996875000000         4.593360892022219E-006
   101.210625000000         4.748779824019122E-006
   101.424375000000         4.915802770305355E-006
   101.638125000000         5.086377007289088E-006
   101.851875000000         5.252085829795868E-006
   102.065625000000         5.400900188793842E-006
   102.279375000000         5.537579914030838E-006
   102.493125000000         5.646164205814235E-006
   102.706875000000         5.740315878249354E-006
   102.920625000000         5.810935339446606E-006
   103.134375000000         5.863500244882372E-006
   103.348125000000         5.903775480473534E-006
   103.561875000000         5.938493433799882E-006
   103.775625000000         5.972242057344802E-006
   103.989375000000         6.008924211134813E-006
   104.203125000000         6.050087398551779E-006
   104.416875000000         6.096565571802267E-006
   104.630625000000         6.146483760714592E-006
   104.844375000000         6.196006842179225E-006
   105.058125000000         6.240117279802568E-006
   105.271875000000         6.273046057523820E-006
   105.485625000000         6.290496267436150E-006
   105.699375000000         6.289028006926786E-006
   105.913125000000         6.266416149652355E-006
   106.126875000000         6.223458450883101E-006
   106.340625000000         6.163203184695001E-006
   106.554375000000         6.090502609874461E-006
   106.768125000000         6.011646975817254E-006
   106.981875000000         5.933696339642189E-006
   107.195625000000         5.863217709118130E-006
   107.409375000000         5.805611665731065E-006
   107.623125000000         5.764672718813181E-006
   107.836875000000         5.741710500578147E-006
   108.050625000000         5.735749146871703E-006
   108.264375000000         5.743320790135067E-006
   108.478125000000         5.761822957639653E-006
   108.691875000000         5.786552565496071E-006
   108.905625000000         5.806353462106649E-006
   109.119375000000         5.820690566408437E-006
   109.333125000000         5.823555667456275E-006
   109.546875000000         5.812206317171470E-006
   109.760625000000         5.785990785826529E-006
   109.974375000000         5.744325612969376E-006
   110.188125000000         5.689622940639875E-006
   110.401875000000         5.625276484695907E-006
   110.615625000000         5.554740418789526E-006
   110.829375000000         5.481380222528728E-006
   111.043125000000         5.408219300700860E-006
   111.256875000000         5.343219027431076E-006
   111.470625000000         5.273150749954370E-006
   111.684375000000         5.211117247809246E-006
   111.898125000000         5.162051561725629E-006
   112.111875000000         5.111611059770628E-006
   112.325625000000         5.073525433856968E-006
   112.539375000000         5.048315309223545E-006
   112.753125000000         5.037514848035533E-006
   112.966875000000         5.046309836964491E-006
   113.180625000000         5.077537134541741E-006
   113.394375000000         5.134155711851510E-006
   113.608125000000         5.218471596715622E-006
   113.821875000000         5.332102307958676E-006
   114.035625000000         5.473723266965284E-006
   114.249375000000         5.640120749301458E-006
   114.463125000000         5.826399330435975E-006
   114.676875000000         6.025956700593156E-006
   114.890625000000         6.230956912631006E-006
   115.104375000000         6.433247322470917E-006
   115.318125000000         6.625149199268985E-006
   115.531875000000         6.800188799755651E-006
   115.745625000000         6.953925868193819E-006
   115.959375000000         7.084158716226528E-006
   116.173125000000         7.191111845018703E-006
   116.386875000000         7.277080591160053E-006
   116.600625000000         7.346012708003601E-006
   116.814375000000         7.402709000932233E-006
   117.028125000000         7.452024742573489E-006
   117.241875000000         7.498461994279560E-006
   117.455625000000         7.543948551310429E-006
   117.669375000000         7.588789669119779E-006
   117.883125000000         7.631973322449953E-006
   118.096875000000         7.671125974802223E-006
   118.310625000000         7.701376489364066E-006
   118.524375000000         7.718424357235620E-006
   118.738125000000         7.718119160190336E-006
   118.951875000000         7.697747034440635E-006
   119.165625000000         7.656662184760832E-006
   119.379375000000         7.598497133037059E-006
   119.593125000000         7.526418235486687E-006
   119.806875000000         7.446561001232651E-006
   120.020625000000         7.366540728078611E-006
   120.234375000000         7.294425314832285E-006
   120.448125000000         7.237933816005150E-006
   120.661875000000         7.202856375883438E-006
   120.875625000000         7.193096481483337E-006
   121.089375000000         7.210820784313370E-006
   121.303125000000         7.246459981139718E-006
   121.516875000000         7.296911008955787E-006
   121.730625000000         7.355312159293473E-006
   121.944375000000         7.414849105791724E-006
   122.158125000000         7.466629427129866E-006
   122.371875000000         7.504948859522791E-006
   122.585625000000         7.526035863454937E-006
   122.799375000000         7.529382064791903E-006
   123.013125000000         7.517744006855078E-006
   123.226875000000         7.497148672089568E-006
   123.440625000000         7.475319344044386E-006
   123.654375000000         7.460738508345903E-006
   123.868125000000         7.461949518374541E-006