  -1.60312500000000         0.000000000000000E+000
  -1.38937500000000         2.859256237011444E-012
  -1.17562500000000         2.004218015211533E-011
 -0.961875000000000         9.606556676682081E-011
 -0.748125000000000         3.712560331134376E-010
 -0.534375000000000         1.204785699888609E-009
 -0.320625000000000         3.344401782172456E-009
 -0.106875000000000         8.054742231141809E-009
  0.106875000000000         1.708002496215436E-008
  0.320625000000000         3.238645539196114E-008
  0.534375000000000         5.578318345357390E-008
  0.748125000000000         8.862074929212590E-008
  0.961875000000000         1.317244456840556E-007
   1.17562500000000         1.854021433296627E-007
   1.38937500000000         2.495037486219358E-007
   1.60312500000000         3.235154741610552E-007
   1.81687500000000         4.065244362634171E-007
   2.03062500000000         4.971696319225126E-007
   2.24437500000000         5.948138608714697E-007
   2.45812500000000         6.945853036557266E-007
   2.67187500000000         7.964376670410132E-007
   2.88562500000000         8.943566390843975E-007
   3.09937500000000         9.866536041424767E-007
   3.31312500000000         1.070934816725336E-006
   3.52687500000000         1.144152496026308E-006
   3.74062500000000         1.203645060919060E-006
   3.95437500000000         1.247910062817059E-006
   4.16812500000000         1.275799408182084E-006
   4.38187500000000         1.287993622532116E-006
   4.59562500000000         1.285288060097120E-006
   4.80937500000000         1.268656243360815E-006
   5.02312500000000         1.242170500335617E-006
   5.23687500000000         1.208586913493039E-006
   5.45062500000000         1.172020531251266E-006
   5.66437500000000         1.136833104919695E-006
   5.87812500000000         1.107272512382555E-006
   6.09187500000000         1.087166507255048E-006
   6.30562500000000         1.080030608352017E-006
   6.51937500000000         1.089581916712120E-006
   6.73312500000000         1.116108984094971E-006
   6.94687500000000         1.160438982718908E-006
   7.16062500000000         1.219773675961679E-006
   7.37437500000000         1.292532063290238E-006
   7.58812500000000         1.375441448274952E-006
   7.80187500000000         1.464176207450042E-006
   8.01562500000000         1.553737186835948E-006
   8.22937500000000         1.638826972801024E-006
   8.44312500000000         1.714158865791628E-006
   8.65687500000000         1.774846698942443E-006
   8.87062500000000         1.816841026734179E-006
   9.08437500000000         1.836607064853933E-006
   9.29812500000000         1.832941006726148E-006
   9.51187500000000         1.804912713231151E-006
   9.72562500000000         1.753934978712701E-006
   9.93937500000000         1.681468238097829E-006
   10.1531250000000         1.590357857584098E-006
   10.3668750000000         1.484387532681338E-006
   10.5806250000000         1.367752177338067E-006
   10.7943750000000         1.244982908723450E-006
   11.0081250000000         1.120453609004820E-006
   11.2218750000000         9.950425355998544E-007
   11.4356250000000         8.793743765786983E-007
   11.6493750000000         7.678202371168975E-007
   11.8631250000000         6.739688058519229E-007
   12.0768750000000         5.863100383677450E-007
   12.2906250000000         5.202928864067168E-007
   12.5043750000000         4.628911654257058E-007
   12.7181250000000         4.259863437237175E-007
   12.9318750000000         4.000942232403805E-007
   13.1456250000000         3.913467547266955E-007
   13.3593750000000         3.917718330390833E-007
   13.5731250000000         4.005601495769551E-007
   13.7868750000000         4.158093520988609E-007
   14.0006250000000         4.349933669653007E-007
   14.2143750000000         4.553617314769121E-007
   14.4281250000000         4.741078631106850E-007
   14.6418750000000         4.887599546809514E-007
   14.8556250000000         4.968669441569697E-007
   15.0693750000000         4.975331254680659E-007
   15.2831250000000         4.895097897164631E-007
   15.4968750000000         4.724430990702448E-007
   15.7106250000000         4.494702684686549E-007
   15.9243750000000         4.226113775577141E-007
   16.1381250000000         3.945309598885481E-007
   16.3518750000000         3.683606798399839E-007
   16.5656250000000         3.471721652705895E-007
   16.7793750000000         3.337247442857317E-007
   16.9931250000000         3.297023372580258E-007
   17.2068750000000         3.369001125511401E-007
   17.4206250000000         3.582303933301215E-007
   17.6343750000000         3.875488784278182E-007
   17.8481250000000         4.151110261008058E-007
   18.0618750000000         4.490055458062592E-007
   18.2756250000000         4.722859959375828E-007
   18.4893750000000         4.947564601282293E-007
   18.7031250000000         5.025144072364469E-007
   18.9168750000000         5.025875294357905E-007
   19.1306250000000         4.928626893531682E-007
   19.3443750000000         4.745700258114506E-007
   19.5581250000000         4.500792334038231E-007
   19.7718750000000         4.227216600750922E-007
   19.9856250000000         3.963397166729805E-007
   20.1993750000000         3.747462927492581E-007
   20.4131250000000         3.613284025738579E-007
   20.6268750000000         3.587557176635579E-007
   20.8406250000000         3.686737725451887E-007
   21.0543750000000         3.906741367034725E-007
   21.2681250000000         4.238319250913064E-007
   21.4818750000000         4.668436690817424E-007
   21.6956250000000         5.162064505039185E-007
   21.9093750000000         5.695141545943307E-007
   22.1231250000000         6.241069101004473E-007
   22.3368750000000         6.777927091487710E-007
   22.5506250000000         7.291404980605471E-007
   22.7643750000000         7.773836796866592E-007
   22.9781250000000         8.229671580448762E-007
   23.1918750000000         8.664269819869728E-007
   23.4056250000000         9.082819175674504E-007
   23.6193750000000         9.490533500103536E-007
   23.8331250000000         9.887168900439305E-007
   24.0468750000000         1.027046547854941E-006
   24.2606250000000         1.062776536140164E-006
   24.4743750000000         1.094885637239166E-006
   24.6881250000000         1.121118008597068E-006
   24.9018750000000         1.139108761706795E-006
   25.1156250000000         1.146467499432911E-006
   25.3293750000000         1.141613161729678E-006
   25.5431250000000         1.124023174923118E-006
   25.7568750000000         1.091810872564376E-006
   25.9706250000000         1.045115787081266E-006
   26.1843750000000         9.830554591427698E-007
   26.3981250000000         9.171770143345607E-007
   26.6118750000000         8.389244040288172E-007
   26.8256250000000         7.652789241250437E-007
   27.0393750000000         6.864425729427456E-007
   27.2531250000000         6.182876243739061E-007
   27.4668750000000         5.558112110628620E-007
   27.6806250000000         5.020046690110846E-007
   27.8943750000000         4.584664623451284E-007
   28.1081250000000         4.258279503780928E-007
   28.3218750000000         4.022632924848277E-007
   28.5356250000000         3.871845429335675E-007
   28.7493750000000         3.786848401066269E-007
   28.9631250000000         3.746846592913995E-007
   29.1768750000000         3.726025544311036E-007
   29.3906250000000         3.701493425621767E-007
   29.6043750000000         3.652343644864037E-007
   29.8181250000000         3.563557096515616E-007
   30.0318750000000         3.424550121421902E-007
   30.2456250000000         3.243916322513180E-007
   30.4593750000000         2.992529172132025E-007
   30.6731250000000         2.689023898886149E-007
   30.8868750000000         2.340906507121351E-007
   31.1006250000000         1.956431513362015E-007
   31.3143750000000         1.544889394853660E-007
   31.5281250000000         1.114222199165277E-007
   31.7418750000000         6.716817043512678E-008
   31.9556250000000         2.224098036914444E-008
   32.1693750000000        -2.294506283692493E-008
   32.3831250000000        -6.804147218384612E-008
   32.5968750000000        -1.127967318261967E-007
   32.8106250000000        -1.566855704912636E-007
   33.0243750000000        -1.989232910509852E-007
   33.2381250000000        -2.388052216237738E-007
   33.4518750000000        -2.752580170120515E-007
   33.6656250000000        -3.069951582180601E-007
   33.8793750000000        -3.325928341412889E-007
   34.0931250000000        -3.505925924459453E-007
   34.3068750000000        -3.596355740484868E-007
   34.5206250000000        -3.583980458012796E-007
   34.7343750000000        -3.467811391590729E-007
   34.9481250000000        -3.242171573441501E-007
   35.1618750000000        -2.913780539196256E-007
   35.3756250000000        -2.499846607792728E-007
   35.5893750000000        -2.020257964734782E-007
   35.8031250000000        -1.503051956608593E-007
   36.0168750000000        -9.794824542175287E-008
   36.2306250000000        -4.854018818382423E-008
   36.4443750000000        -5.741223723868285E-009
   36.6581250000000         2.691627372115282E-008
   36.8718750000000         4.252021739593482E-008
   37.0856250000000         5.173821500033052E-008
   37.2993750000000         4.088724756537006E-008
   37.5131250000000         1.766630182517916E-008
   37.7268750000000        -2.562879990324873E-008
   37.9406250000000        -7.289947925503561E-008
   38.1543750000000        -1.303981114083619E-007
   38.3681250000000        -1.911010255465666E-007
   38.5818750000000        -2.501504937768537E-007
   38.7956250000000        -3.022499758583308E-007
   39.0093750000000        -3.424154019948961E-007
   39.2231250000000        -3.659540995217048E-007
   39.4368750000000        -3.685399573299612E-007
   39.6506250000000        -3.446709582348717E-007
   39.8643750000000        -3.032927855079639E-007
   40.0781250000000        -2.402249627347986E-007
   40.2918750000000        -1.589152073311578E-007
   40.5056250000000        -6.430808410214631E-008
   40.7193750000000         3.933164838730894E-008
   40.9331250000000         1.428910570871146E-007
   41.1468750000000         2.531837208138301E-007
   41.3606250000000         3.511927241957647E-007
   41.5743750000000         4.403262415780095E-007
   41.7881250000000         5.166270590953470E-007
   42.0018750000000         5.768661820243817E-007
   42.2156250000000         6.187767599617432E-007
   42.4293750000000         6.408383168700541E-007
   42.6431250000000         6.414504819535949E-007
   42.8568750000000         6.178634195971807E-007
   43.0706250000000         5.836095027597566E-007
   43.2843750000000         5.247941555435841E-007
   43.4981250000000         4.539772984679534E-007
   43.7118750000000         3.655596212574496E-007
   43.9256250000000         2.614993705886528E-007
   44.1393750000000         1.437264688703286E-007
   44.3531250000000         1.448174930656488E-008
   44.5668750000000        -1.237274717415391E-007
   44.7806250000000        -2.680211852960812E-007
   44.9943750000000        -4.152411119041444E-007
   45.2081250000000        -5.619954980562038E-007
   45.4218750000000        -7.048880127823843E-007
   45.6356250000000        -8.406657357473769E-007
   45.8493750000000        -9.663845354134949E-007
   46.0631250000000        -1.079664967699989E-006
   46.2768750000000        -1.178702450664782E-006
   46.4906250000000        -1.262372517498512E-006
   46.7043750000000        -1.330131013223679E-006
   46.9181250000000        -1.381946731865035E-006
   47.1318750000000        -1.418556360962949E-006
   47.3456250000000        -1.441996423266872E-006
   47.5593750000000        -1.453256826174209E-006
   47.7731250000000        -1.452323218246468E-006
   47.9868750000000        -1.443127216132797E-006
   48.2006250000000        -1.419534351676883E-006
   48.4143750000000        -1.391318007484120E-006
   48.6281250000000        -1.352201185894668E-006
   48.8418750000000        -1.306151401715350E-006
   49.0556250000000        -1.252019217504066E-006
   49.2693750000000        -1.194945104791377E-006
   49.4831250000000        -1.135784559860370E-006
   49.6968750000000        -1.076592815477468E-006
   49.9106250000000        -1.019192228872531E-006
   50.1243750000000        -9.657350673134962E-007
   50.3381250000000        -9.179981053672903E-007
   50.5518750000000        -8.770750095967565E-007
   50.7656250000000        -8.401537079597259E-007
   50.9793750000000        -8.174677025108300E-007
   51.1931250000000        -7.981269583495386E-007
   51.4068750000000        -7.934751067255456E-007
   51.6206250000000        -7.888930113526314E-007
   51.8343750000000        -7.980477100598144E-007
   52.0481250000000        -8.034750252835949E-007
   52.2618750000000        -8.191514315518402E-007
   52.4756250000000        -8.308607648428474E-007
   52.6893750000000        -8.430363217821663E-007
   52.9031250000000        -8.557888589589366E-007
   53.1168750000000        -8.631589414192195E-007
   53.3306250000000        -8.670470512103597E-007
   53.5443750000000        -8.678802717628910E-007
   53.7581250000000        -8.653342547896799E-007
   53.9718750000000        -8.594783380690539E-007
   54.1856250000000        -8.506458446560761E-007
   54.3993750000000        -8.392673189229563E-007
   54.6131250000000        -8.257560098131077E-007
   54.8268750000000        -8.105694871808297E-007
   55.0406250000000        -7.942628141896130E-007
   55.2543750000000        -7.775163915306332E-007
   55.4681250000000        -7.611786896346416E-007
   55.6818750000000        -7.462278111955305E-007
   55.8956250000000        -7.339122776598528E-007
   56.1093750000000        -7.254705341574291E-007
   56.3231250000000        -7.221556403035722E-007
   56.5368750000000        -7.257745731655757E-007
   56.7506250000000        -7.369642309140531E-007
   56.9643750000000        -7.558271093059781E-007
   57.1781250000000        -7.835632137135565E-007
   57.3918750000000        -8.212399980889052E-007
   57.6056250000000        -8.694381712272999E-007
   57.8193750000000        -9.283612642556390E-007
   58.0331250000000        -9.981797345577551E-007
   58.2468750000000        -1.079040880037538E-006
   58.4606250000000        -1.170793858096677E-006
   58.6743750000000        -1.272863897882672E-006
   58.8881250000000        -1.388698588336610E-006
   59.1018750000000        -1.506903965032146E-006
   59.3156250000000        -1.638439880485109E-006
   59.5293750000000        -1.769569261489497E-006
   59.7431250000000        -1.902061823200473E-006
   59.9568750000000        -2.031948583630770E-006
   60.1706250000000        -2.155739597467450E-006
   60.3843750000000        -2.270202030609889E-006
   60.5981250000000        -2.372160816661755E-006
   60.8118750000000        -2.459037271833444E-006
   61.0256250000000        -2.526435799471578E-006
   61.2393750000000        -2.581804486722151E-006
   61.4531250000000        -2.612820648583204E-006
   61.6668750000000        -2.627799232541604E-006
   61.8806250000000        -2.627408103617577E-006
   62.0943750000000        -2.611360769984730E-006
   62.3081250000000        -2.580229108852109E-006
   62.5218750000000        -2.534708639400667E-006
   62.7356250000000        -2.476290487112427E-006
   62.9493750000000        -2.401954317543045E-006
   63.1631250000000        -2.324221474281819E-006
   63.3768750000000        -2.232096381473333E-006
   63.5906250000000        -2.138444496716490E-006
   63.8043750000000        -2.038329941917900E-006
   64.0181250000000        -1.930611874658160E-006
   64.2318750000000        -1.829547174756969E-006
   64.4456250000000        -1.732645937453879E-006
   64.6593750000000        -1.644199174764199E-006
   64.8731250000000        -1.569081688752936E-006
   65.0868750000000        -1.511565413682878E-006
   65.3006250000000        -1.475374882579589E-006
   65.5143750000000        -1.463583204948069E-006
   65.7281250000000        -1.475960888574651E-006
   65.9418750000000        -1.513147633519716E-006
   66.1556250000000        -1.572856798038947E-006
   66.3693750000000        -1.650746791628389E-006
   66.5831250000000        -1.741928907427402E-006
   66.7968750000000        -1.840361925889222E-006
   67.0106250000000        -1.939642878167313E-006
   67.2243750000000        -2.033489069375103E-006
   67.4381250000000        -2.116201498414222E-006
   67.6518750000000        -2.178982522524294E-006
   67.8656250000000        -2.231206958363148E-006
   68.0793750000000        -2.256117011706184E-006
   68.2931250000000        -2.269591136785013E-006
   68.5068750000000        -2.262338766923246E-006
   68.7206250000000        -2.244800312127796E-006
   68.9343750000000        -2.214617476501423E-006
   69.1481250000000        -2.176968940175682E-006
   69.3618750000000        -2.135466033461244E-006
   69.5756250000000        -2.093448248897898E-006
   69.7893750000000        -2.053778319471586E-006
   70.0031250000000        -2.018760684850016E-006
   70.2168750000000        -1.990203224855283E-006
   70.4306250000000        -1.969584298852957E-006
   70.6443750000000        -1.957931214697952E-006
   70.8581250000000        -1.957190358337128E-006
   71.0718750000000        -1.969626649569875E-006
   71.2856250000000        -1.998792855227122E-006
   71.4993750000000        -2.045976044971103E-006
   71.7131250000000        -2.105039300537054E-006
   71.9268750000000        -2.189281263246903E-006
   72.1406250000000        -2.287893620941335E-006
   72.3543750000000        -2.413406772446734E-006
   72.5681250000000        -2.550814392610408E-006
   72.7818750000000        -2.705803840728207E-006
   72.9956250000000        -2.876260027388202E-006
   73.2093750000000        -3.051438206352109E-006
   73.4231250000000        -3.226883167525008E-006
   73.6368750000000        -3.397449775979389E-006
   73.8506250000000        -3.556525738295053E-006
   74.0643750000000        -3.698250276752420E-006
   74.2781250000000        -3.818094346150496E-006
   74.4918750000000        -3.912776220702605E-006
   74.7056250000000        -3.980559243611179E-006
   74.9193750000000        -4.021540771094949E-006
   75.1331250000000        -4.036952692496698E-006
   75.3468750000000        -4.036775005350332E-006
   75.5606250000000        -4.009680761155064E-006
   75.7743750000000        -3.973435759869346E-006
   75.9881250000000        -3.921279585939204E-006
   76.2018750000000        -3.859753689093492E-006
   76.4156250000000        -3.789228853800817E-006
   76.6293750000000        -3.714174631671722E-006
   76.8431250000000        -3.634328647446303E-006
   77.0568750000000        -3.549503127146762E-006
   77.2706250000000        -3.459164074657207E-006
   77.4843750000000        -3.362959425947942E-006
   77.6981250000000        -3.256076163730303E-006
   77.9118750000000        -3.153108480882531E-006
   78.1256250000000        -3.041582249472060E-006
   78.3393750000000        -2.941836807726243E-006
   78.5531250000000        -2.841205480392987E-006
   78.7668750000000        -2.761878921246126E-006
   78.9806250000000        -2.692664862649107E-006
   79.1943750000000        -2.652254707126864E-006
   79.4081250000000        -2.635095071970983E-006
   79.6218750000000        -2.646590691792671E-006
   79.8356250000000        -2.683239352847583E-006
   80.0493750000000        -2.745291196393526E-006
   80.2631250000000        -2.830378205211735E-006
   80.4768750000000        -2.934076804437588E-006
   80.6906250000000        -3.050908523230840E-006
   80.9043750000000        -3.175138181294511E-006
   81.1181250000000        -3.305767803874462E-006
   81.3318750000000        -3.425272218098544E-006
   81.5456250000000        -3.541748977705841E-006
   81.7593750000000        -3.640895103693145E-006
   81.9731250000000        -3.728127268393375E-006
   82.1868750000000        -3.805660748049872E-006
   82.4006250000000        -3.861293001778704E-006
   82.6143750000000        -3.905361525494025E-006
   82.8281250000000        -3.935339448714943E-006
   83.0418750000000        -3.951208184466945E-006
   83.2556250000000        -3.955634624506090E-006
   83.4693750000000        -3.948370534578204E-006
   83.6831250000000        -3.929115349724260E-006
   83.8968750000000        -3.897050367576538E-006
   84.1106250000000        -3.849845468655097E-006
   84.3243750000000        -3.798022000246859E-006
   84.5381250000000        -3.731960086901277E-006
   84.7518750000000        -3.668182743398847E-006
   84.9656250000000        -3.604544760066313E-006
   85.1793750000000        -3.549236659076371E-006
   85.3931250000000        -3.507842829806580E-006
   85.6068750000000        -3.489007021215857E-006
   85.8206250000000        -3.492522069908091E-006
   86.0343750000000        -3.531015412544824E-006
   86.2481250000000        -3.597842171738414E-006
   86.4618750000000        -3.697344056464525E-006
   86.6756250000000        -3.827761609203739E-006
   86.8893750000000        -3.985322710380310E-006
   87.1031250000000        -4.170093950323117E-006
   87.3168750000000        -4.358255477878576E-006
   87.5306250000000        -4.558509123526864E-006
   87.7443750000000        -4.745383595828004E-006
   87.9581250000000        -4.927115749599143E-006
   88.1718750000000        -5.083992475912080E-006
   88.3856250000000        -5.219300200649493E-006
   88.5993750000000        -5.331001767205857E-006
   88.8131250000000        -5.418584107847612E-006
   89.0268750000000        -5.483687573727291E-006
   89.2406250000000        -5.529528538788199E-006
   89.4543750000000        -5.559300764664840E-006
   89.6681250000000        -5.575618661099657E-006
   89.8818750000000        -5.581619738767650E-006
   90.0956250000000        -5.579201913768767E-006
   90.3093750000000        -5.569810150809267E-006
   90.5231250000000        -5.552553213155650E-006
   90.7368750000000        -5.526363974514038E-006
   90.9506250000000        -5.489523492812264E-006
   91.1643750000000        -5.440299756320912E-006
   91.3781250000000        -5.377610117717960E-006
   91.5918750000000        -5.301625488586789E-006
   91.8056250000000        -5.213879770563033E-006
   92.0193750000000        -5.117618089139468E-006
   92.2331250000000        -5.017475365989661E-006
   92.4468750000000        -4.919091545278672E-006
   92.6606250000000        -4.828536845957962E-006
   92.8743750000000        -4.751670012834450E-006
   93.0881250000000        -4.693403458639724E-006
   93.3018750000000        -4.657152865501614E-006
   93.5156250000000        -4.644187974929110E-006
   93.7293750000000        -4.654480834037482E-006
   93.9431250000000        -4.684862182161564E-006
   94.1568750000000        -4.731373330005505E-006
   94.3706250000000        -4.788606469727716E-006
   94.5843750000000        -4.849722127359914E-006
   94.7981250000000        -4.909198897057359E-006
   95.0118750000000        -4.961639169529932E-006
   95.2256250000000        -5.003819706578700E-006
   95.4393750000000        -5.033767710425815E-006
   95.6531250000000        -5.051640902688367E-006
   95.8668750000000        -5.056859949140393E-006
   96.0806250000000        -5.063569379265744E-006
   96.2943750000000        -5.066627501758603E-006
   96.5081250000000        -5.072261425034465E-006
   96.7218750000000        -5.084735421864434E-006
   96.9356250000000        -5.106998193177348E-006
   97.1493750000000        -5.141380513626479E-006
   97.3631250000000        -5.187885886582420E-006
   97.5768750000000        -5.245612963272584E-006
   97.7906250000000        -5.311229957481691E-006
   98.0043750000000        -5.380312184520576E-006
   98.2181250000000        -5.448165919184488E-006
   98.4318750000000        -5.510556620203503E-006
   98.6456250000000        -5.564180143215753E-006
   98.8593750000000        -5.606633237548576E-006
   99.0731250000000        -5.636937898222169E-006
   99.2868750000000        -5.655497623874824E-006
   99.5006250000000        -5.659713565518649E-006
   99.7143750000000        -5.666193984008873E-006
   99.9281250000000        -5.664530932526034E-006
   100.141875000000        -5.675474641269520E-006
   100.355625000000        -5.692904405700126E-006
   100.569375000000        -5.725249028453689E-006
   100.783125000000        -5.774384211699729E-006
   100.996875000000        -5.839607542283497E-006
   101.210625000000        -5.920764274550132E-006
   101.424375000000        -6.015601347521155E-006
   101.638125000000        -6.120717308295126E-006
   101.851875000000        -6.231789098523101E-006
   102.065625000000        -6.348447385876685E-006
   102.279375000000        -6.455247237035055E-006
   102.493125000000        -6.559915261457808E-006
   102.706875000000        -6.647547736759072E-006
   102.920625000000        -6.724858481734175E-006
   103.134375000000        -6.790802609678673E-006
   103.348125000000        -6.845930436705887E-006
   103.561875000000        -6.891112435191563E-006
   103.775625000000        -6.930116633341429E-006
   103.989375000000        -6.965526060648307E-006
   104.203125000000        -7.000046096865845E-006
   104.416875000000        -7.034446938658332E-006
   104.630625000000        -7.068746538071356E-006
   104.844375000000        -7.102305902378953E-006
   105.058125000000        -7.133661908609841E-006
   105.271875000000        -7.161007807477736E-006
   105.485625000000        -7.182708077280505E-006
   105.699375000000        -7.197099460741098E-006
   105.913125000000        -7.202444675349503E-006
   106.126875000000        -7.199238338517427E-006
   106.340625000000        -7.188566881900164E-006
   106.554375000000        -7.172546437823220E-006
   106.768125000000        -7.154247273056801E-006
   106.981875000000        -7.136998881273361E-006
   107.195625000000        -7.124407614043233E-006
   107.409375000000        -7.119683641712874E-006
   107.623125000000        -7.125011846594478E-006
   107.836875000000        -7.141698678363519E-006
   108.050625000000        -7.169755083390500E-006
   108.264375000000        -7.208111285025323E-006
   108.478125000000        -7.253234764572603E-006
   108.691875000000        -7.300522894683045E-006
   108.905625000000        -7.348896951600639E-006
   109.119375000000        -7.393364210266479E-006
   109.333125000000        -7.430885564545482E-006
   109.546875000000        -7.458699236387322E-006
   109.760625000000        -7.474926658482952E-006
   109.974375000000        -7.478386292695897E-006
   110.188125000000        -7.469479677983666E-006
   110.401875000000        -7.448426724447635E-006
   110.615625000000        -7.417013312860533E-006
   110.829375000000        -7.377470269940167E-006
   111.043125000000        -7.332242538205477E-006
   111.256875000000        -7.279708700794923E-006
   111.470625000000        -7.234748152799379E-006
   111.684375000000        -7.190937372053182E-006
   111.898125000000        -7.148087468800195E-006
   112.111875000000        -7.120548749688166E-006
   112.325625000000        -7.101998591160804E-006
   112.539375000000        -7.095700069557829E-006
   112.753125000000        -7.105361030719228E-006
   112.966875000000        -7.129288203768237E-006
   113.180625000000        -7.168713090198957E-006
   113.394375000000        -7.223732039812875E-006
   113.608125000000        -7.293632624600834E-006
   113.821875000000        -7.377016161411739E-006
   114.035625000000        -7.471684748665675E-006
   114.249375000000        -7.575240547619005E-006
   114.463125000000        -7.684534413536920E-006
   114.676875000000        -7.796576003569824E-006
   114.890625000000        -7.908654237718543E-006
   115.104375000000        -8.018449836576925E-006
   115.318125000000        -8.124126659189834E-006
   115.531875000000        -8.224534863061372E-006
   115.745625000000        -8.318997448411483E-006
   115.959375000000        -8.407390310328899E-006
   116.173125000000        -8.489946484451930E-006
   116.386875000000        -8.566906055090820E-006
   116.600625000000        -8.638530397526507E-006
   116.814375000000        -8.704712778812430E-006
   117.028125000000        -8.765035977516147E-006
   117.241875000000        -8.818120994438555E-006
   117.455625000000        -8.863903692445031E-006
   117.669375000000        -8.901857471823758E-006
   117.883125000000        -8.930878747581671E-006
   118.096875000000        -8.949692340682169E-006
   118.310625000000        -8.959218359971787E-006
   118.524375000000        -8.960386309875860E-006
   118.738125000000        -8.955032083334975E-006
   118.951875000000        -8.945960246887406E-006
   119.165625000000        -8.937299342505696E-006
   119.379375000000        -8.929246697659258E-006
   119.593125000000        -8.925444711319151E-006
   119.806875000000        -8.929231125922699E-006
   120.020625000000        -8.942311419473012E-006
   120.234375000000        -8.965435018596523E-006
   120.448125000000        -8.997602973554750E-006
   120.661875000000        -9.036647944065155E-006
   120.875625000000        -9.079199247712532E-006
   121.089375000000        -9.123437439847016E-006
   121.303125000000        -9.166732931222244E-006
   121.516875000000        -9.207808783978133E-006
   121.730625000000        -9.244134131365416E-006
   121.944375000000        -9.271723208842406E-006
   122.158125000000        -9.291727637994206E-006
   122.371875000000        -9.304311794368130E-006
   122.585625000000        -9.311511003927321E-006
   122.799375000000        -9.315995720280650E-006
   123.013125000000        -9.321049804869722E-006
   123.226875000000        -9.329722858682010E-006
   123.440625000000        -9.345233832759919E-006
   123.654375000000        -9.371160665031659E-006
   123.868125000000        -9.410555874902526E-006