  -1.60312500000000         0.000000000000000E+000
  -1.38937500000000         0.000000000000000E+000
  -1.17562500000000         0.000000000000000E+000
 -0.961875000000000         0.000000000000000E+000
 -0.748125000000000         0.000000000000000E+000
 -0.534375000000000         0.000000000000000E+000
 -0.320625000000000         0.000000000000000E+000
 -0.106875000000000         0.000000000000000E+000
  0.106875000000000         0.000000000000000E+000
  0.320625000000000         0.000000000000000E+000
  0.534375000000000         0.000000000000000E+000
  0.748125000000000         0.000000000000000E+000
  0.961875000000000         0.000000000000000E+000
   1.17562500000000         0.000000000000000E+000
   1.38937500000000         0.000000000000000E+000
   1.60312500000000         0.000000000000000E+000
   1.81687500000000         0.000000000000000E+000
   2.03062500000000         0.000000000000000E+000
   2.24437500000000         0.000000000000000E+000
   2.45812500000000         0.000000000000000E+000
   2.67187500000000         0.000000000000000E+000
   2.88562500000000         0.000000000000000E+000
   3.09937500000000         0.000000000000000E+000
   3.31312500000000         0.000000000000000E+000
   3.52687500000000         0.000000000000000E+000
   3.74062500000000         0.000000000000000E+000
   3.95437500000000         0.000000000000000E+000
   4.16812500000000         0.000000000000000E+000
   4.38187500000000         0.000000000000000E+000
   4.59562500000000         0.000000000000000E+000
   4.80937500000000         0.000000000000000E+000
   5.02312500000000         0.000000000000000E+000
   5.23687500000000         0.000000000000000E+000
   5.45062500000000         0.000000000000000E+000
   5.66437500000000         0.000000000000000E+000
   5.87812500000000         0.000000000000000E+000
   6.09187500000000         0.000000000000000E+000
   6.30562500000000         0.000000000000000E+000
   6.51937500000000         0.000000000000000E+000
   6.73312500000000         0.000000000000000E+000
   6.94687500000000         0.000000000000000E+000
   7.16062500000000         0.000000000000000E+000
   7.37437500000000         0.000000000000000E+000
   7.58812500000000         0.000000000000000E+000
   7.80187500000000         0.000000000000000E+000
   8.01562500000000         0.000000000000000E+000
   8.22937500000000         0.000000000000000E+000
   8.44312500000000         0.000000000000000E+000
   8.65687500000000         0.000000000000000E+000
   8.87062500000000         0.000000000000000E+000
   9.08437500000000         0.000000000000000E+000
   9.29812500000000         0.000000000000000E+000
   9.51187500000000         0.000000000000000E+000
   9.72562500000000         0.000000000000000E+000
   9.93937500000000         0.000000000000000E+000
   10.1531250000000         0.000000000000000E+000
   10.3668750000000         2.247764655860822E-233
   10.5806250000000         5.500943285961344E-222
   10.7943750000000         4.097713994655063E-210
   11.0081250000000         2.083740173875037E-207
   11.2218750000000         1.609873710863694E-203
   11.4356250000000         1.128918563752239E-201
   11.6493750000000         4.186779496928751E-200
   11.8631250000000         1.327600787709992E-198
   12.0768750000000         4.303040282154208E-197
   12.2906250000000         1.275034923057974E-195
   12.5043750000000         3.093288912089147E-194
   12.7181250000000         5.979621238600661E-193
   12.9318750000000         9.237486015706422E-192
   13.1456250000000         1.137595803678404E-190
   13.3593750000000         1.075495443652307E-189
   13.5731250000000         6.489443258801760E-189
   13.7868750000000        -1.021854363101618E-188
   14.0006250000000        -1.026247447325806E-186
   14.2143750000000        -1.926366687821477E-185
   14.4281250000000        -2.632178939446663E-184
   14.6418750000000        -3.043506359367544E-183
   14.8556250000000        -3.139004840617336E-182
   15.0693750000000        -2.960624105009690E-181
   15.2831250000000        -2.588059300169678E-180
   15.4968750000000        -2.113063504153471E-179
   15.7106250000000        -1.618865764925315E-178
   15.9243750000000        -1.167198081484609E-177
   16.1381250000000        -7.935606505694334E-177
   16.3518750000000        -5.095080494937892E-176
   16.5656250000000        -3.092748763574556E-175
   16.7793750000000        -1.776377935147631E-174
   16.9931250000000        -9.660198494661314E-174
   17.2068750000000        -4.975394436764461E-173
   17.4206250000000        -2.426720618314304E-172
   17.6343750000000        -1.120187589635185E-171
   17.8481250000000        -4.886973416189267E-171
   18.0618750000000        -2.009924715701078E-170
   18.2756250000000        -7.759874700400658E-170
   18.4893750000000        -2.791905039000691E-169
   18.7031250000000        -9.240177592325582E-169
   18.9168750000000        -2.742542526105938E-168
   19.1306250000000        -6.878334682733058E-168
   19.3443750000000        -1.188642625703090E-167
   19.5581250000000         5.751045246202601E-168
   19.7718750000000         1.828318395308540E-166
   19.9856250000000         1.131769495229674E-165
   20.1993750000000         5.224566040260085E-165
   20.4131250000000         2.073490839027089E-164
   20.6268750000000         7.411581495072511E-164
   20.8406250000000         2.436022030660180E-163
   21.0543750000000         7.446423910745121E-163
   21.2681250000000         2.135080189115787E-162
   21.4818750000000         5.803029173533948E-162
   21.6956250000000         1.523172258691767E-161
   21.9093750000000         3.995309045156979E-161
   22.1231250000000         1.102591025629278E-160
   22.3368750000000         3.357577371957897E-160
   22.5506250000000         1.134333919548112E-159
   22.7643750000000         4.079938383466500E-159
   22.9781250000000         1.484464501425922E-158
   23.1918750000000         5.276053907035666E-158
   23.4056250000000         1.799764610715668E-157
   23.6193750000000         5.850051036491118E-157
   23.8331250000000         1.807769602234233E-156
   24.0468750000000         5.308561871766343E-156
   24.2606250000000         1.481220849103540E-155
   24.4743750000000         3.924906329662444E-155
   24.6881250000000         9.860945867091921E-155
   24.9018750000000         2.341456523572769E-154
   25.1156250000000         5.223626973799659E-154
   25.3293750000000         1.083330204089144E-153
   25.5431250000000         2.046641308030275E-153
   25.7568750000000         3.369249194296060E-153
   25.9706250000000         4.245769681994422E-153
   26.1843750000000         1.548910281838157E-153
   26.3981250000000        -1.378700818186647E-152
   26.6118750000000        -6.429491150641134E-152
   26.8256250000000        -2.001163318824507E-151
   27.0393750000000        -5.227792365652474E-151
   27.2531250000000        -1.220150227692235E-150
   27.4668750000000        -2.608877503940374E-150
   27.6806250000000        -5.170316030540060E-150
   27.8943750000000        -9.553341017629931E-150
   28.1081250000000        -1.651669603564624E-149
   28.3218750000000        -2.682746469468641E-149
   28.5356250000000        -4.126583184804610E-149
   28.7493750000000        -6.110440028993140E-149
   28.9631250000000        -8.947750220768929E-149
   29.1768750000000        -1.329709997117931E-148
   29.3906250000000        -1.981131002630035E-148
   29.6043750000000        -2.645658864946818E-148
   29.8181250000000        -1.894302505617495E-148
   30.0318750000000         5.471000806804890E-148
   30.2456250000000         3.386241345268888E-147
   30.4593750000000         1.161646344168008E-146
   30.6731250000000         3.144484077692310E-146
   30.8868750000000         7.196863011741729E-146
   31.1006250000000         1.405586761450606E-145
   31.3143750000000         2.263817958393229E-145
   31.5281250000000         2.606530956969731E-145
   31.7418750000000         4.315385856447144E-146
   31.9556250000000        -8.553110622482530E-145
   32.1693750000000        -3.138555113489617E-144
   32.3831250000000        -7.554497810562851E-144
   32.5968750000000        -1.392096045979712E-143
   32.8106250000000        -1.870935524755851E-143
   33.0243750000000        -1.071468955073126E-143
   33.2381250000000         3.381528082574022E-143
   33.4518750000000         1.494247186203579E-142
   33.6656250000000         3.525412391949186E-142
   33.8793750000000         5.404871477913410E-142
   34.0931250000000         2.401661472347300E-142
   34.3068750000000        -1.892728519713323E-141
   34.5206250000000        -8.864564028179636E-141
   34.7343750000000        -2.617367633624435E-140
   34.9481250000000        -6.162254466139086E-140
   35.1618750000000        -1.213351775438307E-139
   35.3756250000000        -1.962287658018887E-139
   35.5893750000000        -2.292643314450969E-139
   35.8031250000000        -5.119453733299669E-140
   36.0168750000000         7.221315117646961E-139
   36.2306250000000         2.810162518409665E-138
   36.4443750000000         7.309777640341011E-138
   36.6581250000000         1.540607959002436E-137
   36.8718750000000         2.723187910587619E-137
   37.0856250000000         3.900399723032370E-137
   37.2993750000000         3.730382470456214E-137
   37.5131250000000        -1.030252737163128E-137
   37.7268750000000        -1.671475762604632E-136
   37.9406250000000        -5.353239675674351E-136
   38.1543750000000        -1.241873907401822E-135
   38.3681250000000        -2.366916168093434E-135
   38.5818750000000        -3.752530941767271E-135
   38.7956250000000        -4.611361225074418E-135
   39.0093750000000        -2.869158748610109E-135
   39.2231250000000         5.712243629409407E-135
   39.4368750000000         2.827348974309670E-134
   39.6506250000000         7.445657999191015E-134
   39.8643750000000         1.527857596045333E-133
   40.0781250000000         2.603243059056079E-133
   40.2918750000000         3.608959099212309E-133
   40.5056250000000         3.477197711345388E-133
   40.7193750000000        -8.273624248711496E-135
   40.9331250000000        -1.107895533840700E-132
   41.1468750000000        -3.522870482012293E-132
   41.3606250000000        -7.844110932995822E-132
   41.5743750000000        -1.420855163297724E-131
   41.7881250000000        -2.127228194570506E-131
   42.0018750000000        -2.441196739231018E-131
   42.2156250000000        -1.316036562842378E-131
   42.4293750000000         3.147163341741210E-131
   42.6431250000000         1.377968342178585E-130
   42.8568750000000         3.381528539586006E-130
   43.0706250000000         6.502743740273949E-130
   43.2843750000000         1.035309967655511E-129
   43.4981250000000         1.322440128172996E-129
   43.7118750000000         1.097860678472200E-129
   43.9256250000000        -4.204672908081667E-130
   44.1393750000000        -4.451349607522440E-129
   44.3531250000000        -1.250756558445580E-128
   44.5668750000000        -2.577244526799965E-128
   44.7806250000000        -4.361211259606611E-128
   44.9943750000000        -6.081026204581542E-128
   45.2081250000000        -6.333439387126411E-128
   45.4218750000000        -2.318153231781258E-128
   45.6356250000000         1.055524269154361E-127
   45.8493750000000         3.844849690358288E-127
   46.0631250000000         8.738622677271984E-127
   46.2768750000000         1.587622001638942E-126
   46.4906250000000         2.405572251299827E-126
   46.7043750000000         2.932474889639707E-126
   46.9181250000000         2.313294485619126E-126
   47.1318750000000        -9.418104209542760E-127
   47.3456250000000        -8.990331008016323E-126
   47.5593750000000        -2.430018509177445E-125
   47.7731250000000        -4.852077342278737E-125
   47.9868750000000        -8.010655696279654E-125
   48.2006250000000        -1.102828455341708E-124
   48.4143750000000        -1.173669802552934E-124
   48.6281250000000        -6.050877283633643E-125
   48.8418750000000         1.241310305596518E-124
   49.0556250000000         5.187588435709665E-124
   49.2693750000000         1.201171673783888E-123
   49.4831250000000         2.190878866442016E-123
   49.6968750000000         3.351001153675235E-123
   49.9106250000000         4.240139417253441E-123
   50.1243750000000         3.929422437228910E-123
   50.3381250000000         8.415396055832190E-124
   50.5518750000000        -7.264744658718954E-123
   50.7656250000000        -2.295287049604025E-122
   50.9793750000000        -4.810841916038838E-122
   51.1931250000000        -8.193693832648317E-122
   51.4068750000000        -1.177053166615442E-121
   51.6206250000000        -1.383183635660350E-121
   51.8343750000000        -1.115719320619672E-121
   52.0481250000000         1.280226212539618E-122
   52.2618750000000         3.003894131819138E-121
   52.4756250000000         8.176892508136721E-121
   52.6893750000000         1.598557286696623E-120
   52.9031250000000         2.584324781907248E-120
   53.1168750000000         3.534779503768647E-120
   53.3306250000000         3.918229436456003E-120
   53.5443750000000         2.809198655189367E-120
   53.7581250000000        -1.146898942575503E-120
   53.9718750000000        -9.603845432202751E-120
   54.1856250000000        -2.408284947342053E-119
   54.3993750000000        -4.508250965312316E-119
   54.6131250000000        -7.060219696436220E-119
   54.8268750000000        -9.406665469516892E-119
   55.0406250000000        -1.018892848502109E-118
   55.2543750000000        -7.133353014211403E-119
   55.4681250000000         3.006271270139043E-119
   55.6818750000000         2.414902787606733E-118
   55.8956250000000         5.995417317122661E-118
   56.1093750000000         1.119304831493598E-117
   56.3231250000000         1.762812116056941E-117
   56.5368750000000         2.393250863846954E-117
   56.7506250000000         2.716911959485320E-117
   56.9643750000000         2.221602803712400E-117
   57.1781250000000         1.314980523865194E-118
   57.3918750000000        -4.584321635858298E-117
   57.6056250000000        -1.308772242392352E-116
   57.8193750000000        -2.633763987188535E-116
   58.0331250000000        -4.441620326206896E-116
   58.2468750000000        -6.535667858121522E-116
   58.4606250000000        -8.332419761994652E-116
   58.6743750000000        -8.610307783343221E-116
   58.8881250000000        -5.213692595361999E-116
   59.1018750000000         5.201116486412454E-116
   59.3156250000000         2.717975007951808E-115
   59.5293750000000         6.587277809066514E-115
   59.7431250000000         1.252298994386968E-114
   59.9568750000000         2.041581200736337E-114
   60.1706250000000         2.897213046700261E-114
   60.3843750000000         3.467620329433812E-114
   60.5981250000000         3.044575989589487E-114
   60.8118750000000         4.285799869379279E-115
   61.0256250000000        -6.130022508035404E-114
   61.2393750000000        -1.876965964169551E-113
   61.4531250000000        -3.940549674712454E-113
   61.6668750000000        -6.835754993915122E-113
   61.8806250000000        -1.018928368377519E-112
   62.0943750000000        -1.284973277839743E-112
   62.3081250000000        -1.241370023062050E-112
   62.5218750000000        -4.768502381141222E-113
   62.7356250000000         1.607685739722648E-112
   62.9493750000000         5.738386535153172E-112
   63.1631250000000         1.255632276507197E-111
   63.3768750000000         2.216156963268519E-111
   63.5906250000000         3.332622027536036E-111
   63.8043750000000         4.234697203685137E-111
   64.0181250000000         4.165723601692342E-111
   64.2318750000000         1.860046824296248E-111
   64.4456250000000        -4.479392336748115E-111
   64.6593750000000        -1.696159082783659E-110
   64.8731250000000        -3.734549388315137E-110
   65.0868750000000        -6.570198516810083E-110
   65.3006250000000        -9.820876610435528E-110
   65.5143750000000        -1.240770649720869E-109
   65.7281250000000        -1.220352332135126E-109
   65.9418750000000        -5.753741578812885E-110
   66.1556250000000         1.170491681800504E-109
   66.3693750000000         4.557062934488008E-109
   66.5831250000000         1.000702854700749E-108
   66.7968750000000         1.748061675520236E-108
   67.0106250000000         2.593016695321351E-108
   67.2243750000000         3.257094918021595E-108
   67.4381250000000         3.208955548433782E-108
   67.6518750000000         1.608280954079869E-108
   67.8656250000000        -2.674339482741422E-108
   68.0793750000000        -1.088180026951951E-107
   68.2931250000000        -2.393802743011394E-107
   68.5068750000000        -4.165734414848240E-107
   68.7206250000000        -6.153922268829129E-107
   68.9343750000000        -7.721264353476638E-107
   69.1481250000000        -7.682178060093127E-107
   69.3618750000000        -4.199755178213921E-107
   69.5756250000000         5.147821537353027E-107
   69.7893750000000         2.297183360530560E-106
   70.0031250000000         5.115486354502307E-106
   70.2168750000000         8.922842731662965E-106
   70.4306250000000         1.319677118227435E-105
   70.6443750000000         1.663715637835330E-105
   70.8581250000000         1.686361829093200E-105
   71.0718750000000         1.023852808765663E-105
   71.2856250000000        -7.975919649535226E-106
   71.4993750000000        -4.283582806948976E-105
   71.7131250000000        -9.796927869628819E-105
   71.9268750000000        -1.725651704501132E-104
   72.1406250000000        -2.569989956196790E-104
   72.3543750000000        -3.274476582420515E-104
   72.5681250000000        -3.406156915500021E-104
   72.7818750000000        -2.308016072161974E-104
   72.9956250000000         8.712564656777300E-105
   73.2093750000000         7.039892578705832E-104
   73.4231250000000         1.686299338708252E-103
   73.6368750000000         3.025319617480085E-103
   73.8506250000000         4.564049451592002E-103
   74.0643750000000         5.908379900243413E-103
   74.2781250000000         6.340976704150279E-103
   74.4918750000000         4.773648851087881E-103
   74.7056250000000        -2.057295536128358E-104
   74.9193750000000        -1.011698281242841E-102
   75.1331250000000        -2.611885046211113E-102
   75.3468750000000        -4.821911019807233E-102
   75.5606250000000        -7.414938796907365E-102
   75.7743750000000        -9.800164224868706E-102
   75.9881250000000        -1.089036928020297E-101
   76.2018750000000        -9.025899692793135E-102
   76.4156250000000        -2.036311870608784E-102
   76.6293750000000         1.245322520905631E-101
   76.8431250000000         3.635276477105483E-101
   77.0568750000000         6.997927255888703E-101
   77.2706250000000         1.104489174113829E-100
   77.4843750000000         1.497226300621333E-100
   77.6981250000000         1.726823450136082E-100
   77.9118750000000         1.559478631674343E-100
   78.1256250000000         6.852596449326420E-101
   78.3393750000000        -1.242758598066178E-100
   78.5531250000000        -4.520943071724089E-100
   78.7668750000000        -9.246127893249531E-100
   78.9806250000000        -1.510190606099466E-099
   79.1943750000000        -2.109625894007640E-099
   79.4081250000000        -2.529744832550391E-099
   79.6218750000000        -2.465684318627499E-099
   79.8356250000000        -1.505521443211548E-099
   80.0493750000000         8.247933187963021E-100
   80.2631250000000         4.956284677433007E-099
   80.4768750000000         1.109471380001053E-098
   80.6906250000000         1.895566207795046E-098
   80.9043750000000         2.743406812196296E-098
   81.1181250000000         3.426161853379045E-098
   81.3318750000000         3.575460795607972E-098
   81.5456250000000         2.681168932785364E-098
   81.7593750000000         1.373068698921592E-099
   81.9731250000000        -4.642067558839500E-098
   82.1868750000000        -1.201604997212937E-097
   82.4006250000000        -2.181016091694226E-097
   82.6143750000000        -3.292540276103672E-097
   82.8281250000000        -4.291867336459249E-097
   83.0418750000000        -4.766472818165400E-097
   83.2556250000000        -4.127381990070481E-097
   83.4693750000000        -1.649966804730464E-097
   83.6831250000000         3.409227799619022E-097
   83.8968750000000         1.159474045104767E-096
   84.1106250000000         2.292021374067082E-096
   84.3243750000000         3.643377206726902E-096
   84.5381250000000         4.973339840514671E-096
   84.7518750000000         5.854212277057254E-096
   84.9656250000000         5.652114765280345E-096
   85.1793750000000         3.556622951401024E-096
   85.3931250000000        -1.312267621507559E-096
   85.6068750000000        -9.691731226288852E-096
   85.8206250000000        -2.184022190730826E-095
   86.0343750000000        -3.708337735544819E-095
   86.2481250000000        -5.328661737369078E-095
   86.4618750000000        -6.635583678333339E-095
   86.6756250000000        -6.993689408344008E-095
   86.8893750000000        -5.555575598449187E-095
   87.1031250000000        -1.349446735684821E-095
   87.3168750000000         6.529558639685577E-095
   87.5306250000000         1.860194109573574E-094
   87.7443750000000         3.455810807141177E-094
   87.9581250000000         5.271799902251203E-094
   88.1718750000000         6.948247096902099E-094
   88.3856250000000         7.892958873111379E-094
   88.5993750000000         7.278067485090616E-094
   88.8131250000000         4.102059337590569E-094
   89.0268750000000        -2.652172715653434E-094
   89.2406250000000        -1.373770079494135E-093
   89.4543750000000        -2.923283977123337E-093
   89.6681250000000        -4.802021665681966E-093
   89.8818750000000        -6.722301214113428E-093
   90.0956250000000        -8.172674147775173E-093
   90.3093750000000        -8.398357943168647E-093
   90.5231250000000        -6.435865551277658E-093
   90.7368750000000        -1.231198860878201E-093
   90.9506250000000         8.131381457751149E-093
   91.1643750000000         2.207456579886174E-092
   91.3781250000000         4.005580823558272E-092
   91.5918750000000         6.002504557762059E-092
   91.8056250000000         7.791246514497569E-092
   92.0193750000000         8.730877365609719E-092
   92.2331250000000         7.956164513927508E-092
   92.4468750000000         4.455458963467083E-092
   92.6606250000000        -2.756622488399144E-092
   92.8743750000000        -1.435253892883478E-091
   93.0881250000000        -3.028971051934149E-091
   93.3018750000000        -4.932178537824930E-091
   93.5156250000000        -6.849549230357830E-091
   93.7293750000000        -8.275888442193361E-091
   93.9431250000000        -8.486312400566813E-091
   94.1568750000000        -6.578573832801332E-091
   94.3706250000000        -1.591902298376209E-091
   94.5843750000000         7.277155228333126E-091
   94.7981250000000         2.035338919704614E-090
   95.0118750000000         3.706990402254735E-090
   95.2256250000000         5.551091910014103E-090
   95.4393750000000         7.200156235870833E-090
   95.6531250000000         8.088456709483223E-090
   95.8668750000000         7.466808801188763E-090
   96.0806250000000         4.475408227192136E-090
   96.2943750000000        -1.705640984886294E-090
   96.5081250000000        -1.161580552609824E-089
   96.7218750000000        -2.518669430827393E-089
   96.9356250000000        -4.135551434110515E-089
   97.1493750000000        -5.768087305348343E-089
   97.3631250000000        -7.006209723498396E-089
   97.5768750000000        -7.270258623631493E-089
   97.7906250000000        -5.848625587829831E-089
   98.0043750000000        -1.993947000611975E-089
   98.2181250000000         4.908813077132329E-089
   98.4318750000000         1.509889970455317E-088
   98.6456250000000         2.813451890326186E-088
   98.8593750000000         4.256396237640160E-088
   99.0731250000000         5.564177436471180E-088
   99.2868750000000         6.319106629507768E-088
   99.5006250000000         5.974038012890906E-088
   99.7143750000000         3.907543924697558E-088
   99.9281250000000        -4.670028573863064E-089
   100.141875000000        -7.531804111999973E-088
   100.355625000000        -1.723893365530379E-087
   100.569375000000        -2.884996084928593E-087
   100.783125000000        -4.068444555993896E-087
   100.996875000000        -4.994585232065781E-087
   101.210625000000        -5.271677803870865E-087
   101.424375000000        -4.423018903432366E-087
   101.638125000000        -1.952063339625942E-087
   101.851875000000         2.547097526158013E-087
   102.065625000000         9.233279734132405E-087
   102.279375000000         1.782617953474498E-086
   102.493125000000         2.740436971650996E-086
   102.706875000000         3.623702331022023E-086
   102.920625000000         4.171138176826572E-086
   103.134375000000         4.043209360280215E-086
   103.348125000000         2.857243207789158E-086
   103.561875000000         2.543946743059566E-087
   103.775625000000        -3.998677665797067E-086
   103.989375000000        -9.877318760466500E-086
   104.203125000000        -1.694931196554411E-085
   104.416875000000        -2.423435275369546E-085
   104.630625000000        -3.011202573215836E-085
   104.844375000000        -3.232941739195135E-085
   105.058125000000        -2.816564582145646E-085
   105.271875000000        -1.480647959280603E-085
   105.485625000000         1.003716594040904E-085
   105.699375000000         4.727196252203588E-085
   105.913125000000         9.539162320467424E-085
   106.126875000000         1.494183613209822E-084
   106.340625000000         2.000528846789975E-084
   106.554375000000         2.333568448893286E-084
   106.768125000000         2.313520126744488E-084
   106.981875000000         1.739237818436720E-084
   107.195625000000         4.232946211705847E-085
   107.409375000000        -1.755966797845149E-084
   107.623125000000        -4.787989929747291E-084
   107.836875000000        -8.456610674486363E-084
   108.050625000000        -1.227303115275656E-083
   108.264375000000        -1.543452753584261E-083
   108.478125000000        -1.683315404551148E-083
   108.691875000000        -1.514064458240990E-083
   108.905625000000        -8.992585189883269E-084
   109.119375000000         2.715357386927322E-084
   109.333125000000         2.042538244960769E-083
   109.546875000000         4.344404166216438E-083
   109.760625000000         6.946734235310318E-083
   109.974375000000         9.421368355473686E-083
   110.188125000000         1.113091686295123E-082
   110.401875000000         1.125910503261529E-082
   110.615625000000         8.898951719647356E-083
   110.829375000000         3.210242140792728E-083
   111.043125000000        -6.351935020057648E-083
   111.256875000000        -1.975117726969726E-082
   111.470625000000        -3.606043294179681E-082
   111.684375000000        -5.318731201374851E-082
   111.898125000000        -6.771538625837966E-082
   112.111875000000        -7.496014239984731E-082
   112.325625000000        -6.934232366578013E-082
   112.539375000000        -4.516422961985381E-082
   112.753125000000         2.171225189103128E-083
   112.966875000000         7.453799755709069E-082
   113.180625000000         1.692123192470850E-081
   113.394375000000         2.770343598149937E-081
   113.608125000000         3.810384197227034E-081
   113.821875000000         4.561059208644682E-081
   114.035625000000         4.702565417802113E-081
   114.249375000000         3.881475330917285E-081
   114.463125000000         1.771544987031832E-081
   114.676875000000        -1.839754916184060E-081
   114.890625000000        -6.944858321162330E-081
   115.104375000000        -1.320320231977252E-080
   115.318125000000        -1.984345511491851E-080
   115.531875000000        -2.561029994021060E-080
   115.745625000000        -2.879042374036227E-080
   115.959375000000        -2.735256776765984E-080
   116.173125000000        -1.922910083952740E-080
   116.386875000000        -2.749363704001902E-081
   116.600625000000         2.279314482663634E-080
   116.814375000000         5.649611407527276E-080
   117.028125000000         9.522807078095309E-080
   117.241875000000         1.331799483624093E-079
   117.455625000000         1.617726503211038E-079
   117.669375000000         1.701190900347760E-079
   117.883125000000         1.462174552648382E-079
   118.096875000000         7.898143124173440E-080
   118.310625000000        -3.891601616558130E-080
   118.524375000000        -2.075964431551619E-079
   118.738125000000        -4.163728004829164E-079
   118.951875000000        -6.406877638502065E-079
   119.165625000000        -8.405176833907307E-079
   119.379375000000        -9.613029504235686E-079
   119.593125000000        -9.384403352547455E-079
   119.806875000000        -7.061128111407344E-079
   120.020625000000        -2.106801402828636E-079
   120.234375000000         5.720130308399853E-079
   120.448125000000         1.617200780968172E-078
   120.661875000000         2.832734400869692E-078
   120.875625000000         4.045980403020840E-078
   121.089375000000         5.001422923253334E-078
   121.303125000000         5.374597359889596E-078
   121.516875000000         4.807204669339319E-078
   121.730625000000         2.966083489996724E-078
   121.944375000000        -3.750466632250063E-079
   122.158125000000        -5.237465217895517E-078
   122.371875000000        -1.133580070475964E-077
   122.585625000000        -1.799247287572539E-077
   122.799375000000        -2.409366762684291E-077
   123.013125000000        -2.811548302910051E-077
   123.226875000000        -2.824757405606190E-077
   123.440625000000        -2.263399434626229E-077
   123.654375000000        -9.735666227743412E-078
   123.868125000000         1.120432169928992E-077