  -1.60312500000000         0.000000000000000E+000
  -1.38937500000000         0.000000000000000E+000
  -1.17562500000000         0.000000000000000E+000
 -0.961875000000000         0.000000000000000E+000
 -0.748125000000000         0.000000000000000E+000
 -0.534375000000000         0.000000000000000E+000
 -0.320625000000000         0.000000000000000E+000
 -0.106875000000000         0.000000000000000E+000
  0.106875000000000         0.000000000000000E+000
  0.320625000000000         0.000000000000000E+000
  0.534375000000000         0.000000000000000E+000
  0.748125000000000         0.000000000000000E+000
  0.961875000000000         0.000000000000000E+000
   1.17562500000000         0.000000000000000E+000
   1.38937500000000         0.000000000000000E+000
   1.60312500000000         0.000000000000000E+000
   1.81687500000000         0.000000000000000E+000
   2.03062500000000         0.000000000000000E+000
   2.24437500000000         0.000000000000000E+000
   2.45812500000000         0.000000000000000E+000
   2.67187500000000         0.000000000000000E+000
   2.88562500000000         0.000000000000000E+000
   3.09937500000000         0.000000000000000E+000
   3.31312500000000         0.000000000000000E+000
   3.52687500000000         0.000000000000000E+000
   3.74062500000000         0.000000000000000E+000
   3.95437500000000         0.000000000000000E+000
   4.16812500000000         0.000000000000000E+000
   4.38187500000000         0.000000000000000E+000
   4.59562500000000         0.000000000000000E+000
   4.80937500000000         0.000000000000000E+000
   5.02312500000000         0.000000000000000E+000
   5.23687500000000         0.000000000000000E+000
   5.45062500000000         0.000000000000000E+000
   5.66437500000000         0.000000000000000E+000
   5.87812500000000         0.000000000000000E+000
   6.09187500000000         0.000000000000000E+000
   6.30562500000000         0.000000000000000E+000
   6.51937500000000         0.000000000000000E+000
   6.73312500000000         0.000000000000000E+000
   6.94687500000000         0.000000000000000E+000
   7.16062500000000         0.000000000000000E+000
   7.37437500000000         0.000000000000000E+000
   7.58812500000000         0.000000000000000E+000
   7.80187500000000         0.000000000000000E+000
   8.01562500000000         0.000000000000000E+000
   8.22937500000000         0.000000000000000E+000
   8.44312500000000         0.000000000000000E+000
   8.65687500000000         0.000000000000000E+000
   8.87062500000000         0.000000000000000E+000
   9.08437500000000         0.000000000000000E+000
   9.29812500000000         0.000000000000000E+000
   9.51187500000000         0.000000000000000E+000
   9.72562500000000         0.000000000000000E+000
   9.93937500000000         0.000000000000000E+000
   10.1531250000000        -4.426244009965208E-220
   10.3668750000000        -2.512413772651186E-208
   10.5806250000000        -6.353311160381715E-205
   10.7943750000000        -1.367536948533381E-203
   11.0081250000000        -8.574000036558095E-201
   11.2218750000000        -6.378684285519354E-199
   11.4356250000000        -2.815543685283452E-197
   11.6493750000000        -1.007139118201744E-195
   11.8631250000000        -3.085636996257196E-194
   12.0768750000000        -7.922523727020667E-193
   12.2906250000000        -1.684905709308497E-191
   12.5043750000000        -2.987860067690562E-190
   12.7181250000000        -4.480522365475581E-189
   12.9318750000000        -5.765406036405614E-188
   13.1456250000000        -6.445638006476524E-187
   13.3593750000000        -6.319241647965776E-186
   13.5731250000000        -5.462506256320018E-185
   13.7868750000000        -4.164738442597229E-184
   14.0006250000000        -2.777954247804220E-183
   14.2143750000000        -1.579155679158249E-182
   14.4281250000000        -7.060593565797250E-182
   14.6418750000000        -1.679998989555560E-181
   14.8556250000000         1.029755944073085E-180
   15.0693750000000         1.986071775143768E-179
   15.2831250000000         1.994201173587309E-178
   15.4968750000000         1.610499979118582E-177
   15.7106250000000         1.149777372626530E-176
   15.9243750000000         7.532888843978419E-176
   16.1381250000000         4.613277912145819E-175
   16.3518750000000         2.667117268573847E-174
   16.5656250000000         1.463263154571215E-173
   16.7793750000000         7.636434792054284E-173
   16.9931250000000         3.793046541708360E-172
   17.2068750000000         1.791769068994318E-171
   17.4206250000000         8.034264711434805E-171
   17.6343750000000         3.408844176330223E-170
   17.8481250000000         1.361809409589583E-169
   18.0618750000000         5.081810599431540E-169
   18.2756250000000         1.747204221330233E-168
   18.4893750000000         5.388927602106534E-168
   18.7031250000000         1.400012189594177E-167
   18.9168750000000         2.448989575012588E-167
   19.1306250000000        -1.975865850118730E-167
   19.3443750000000        -4.714754069198191E-166
   19.5581250000000        -3.023763122915963E-165
   19.7718750000000        -1.474377059096438E-164
   19.9856250000000        -6.238423579773677E-164
   20.1993750000000        -2.395602382792246E-163
   20.4131250000000        -8.520603960130778E-163
   20.6268750000000        -2.837089606419353E-162
   20.8406250000000        -8.896802414611999E-162
   21.0543750000000        -2.636912027850678E-161
   21.2681250000000        -7.404046656070510E-161
   21.4818750000000        -1.973734050763925E-160
   21.6956250000000        -5.012036709273765E-160
   21.9093750000000        -1.220794025480053E-159
   22.1231250000000        -2.893218812651332E-159
   22.3368750000000        -6.850932919922785E-159
   22.5506250000000        -1.686190862767993E-158
   22.7643750000000        -4.483580876855594E-158
   22.9781250000000        -1.301837644003479E-157
   23.1918750000000        -4.018775795647133E-157
   23.4056250000000        -1.264383096093906E-156
   23.6193750000000        -3.916520681253056E-156
   23.8331250000000        -1.169680810150976E-155
   24.0468750000000        -3.330962397976220E-155
   24.2606250000000        -8.990966005773939E-155
   24.4743750000000        -2.290520067315529E-154
   24.6881250000000        -5.481446696391786E-154
   24.9018750000000        -1.223310413034613E-153
   25.1156250000000        -2.513565229194055E-153
   25.3293750000000        -4.636485659675317E-153
   25.5431250000000        -7.236658624518282E-153
   25.7568750000000        -7.810855224077104E-153
   25.9706250000000         2.167832690841887E-153
   26.1843750000000         4.554407487341002E-152
   26.3981250000000         1.749989836548378E-151
   26.6118750000000         4.978185780099707E-151
   26.8256250000000         1.206830671780670E-150
   27.0393750000000         2.600406072252033E-150
   27.2531250000000         5.047361901014430E-150
   27.4668750000000         8.817608064248148E-150
   27.6806250000000         1.369281825535830E-149
   27.8943750000000         1.840321143353948E-149
   28.1081250000000         2.044942640270768E-149
   28.3218750000000         1.817627038074070E-149
   28.5356250000000         1.955512520982509E-149
   28.7493750000000         6.609578435502191E-149
   28.9631250000000         2.841692593725548E-148
   29.1768750000000         9.746816116184886E-148
   29.3906250000000         2.734592890515270E-147
   29.6043750000000         6.554424532819534E-147
   29.8181250000000         1.374562567589044E-146
   30.0318750000000         2.545315853033236E-146
   30.2456250000000         4.154389283828230E-146
   30.4593750000000         5.915917902958261E-146
   30.6731250000000         7.265873327476261E-146
   30.8868750000000         7.918944385563421E-146
   31.1006250000000         9.578580964370921E-146
   31.3143750000000         1.869362477063375E-145
   31.5281250000000         4.654901821532786E-145
   31.7418750000000         9.242264117749296E-145
   31.9556250000000         7.227512856255875E-145
   32.1693750000000        -3.837869057315850E-144
   32.3831250000000        -2.383685252867472E-143
   32.5968750000000        -8.573257498849547E-143
   32.8106250000000        -2.412034121675244E-142
   33.0243750000000        -5.683177639495274E-142
   33.2381250000000        -1.131800060116408E-141
   33.4518750000000        -1.827460046850784E-141
   33.6656250000000        -1.969205705677343E-141
   33.8793750000000         5.924520725893083E-142
   34.0931250000000         1.101879924129376E-140
   34.3068750000000         3.958564075264120E-140
   34.5206250000000         1.031892287395902E-139
   34.7343750000000         2.226596896255315E-139
   34.9481250000000         4.076807058604045E-139
   35.1618750000000         6.142232424018139E-139
   35.3756250000000         6.524804383117646E-139
   35.5893750000000         2.432366661366807E-140
   35.8031250000000        -2.302981774163146E-138
   36.0168750000000        -8.091115929691474E-138
   36.2306250000000        -1.969734921117830E-137
   36.4443750000000        -3.895990128883820E-137
   36.6581250000000        -6.394815113846826E-137
   36.8718750000000        -8.198710296442705E-137
   37.0856250000000        -5.760970252613603E-137
   37.2993750000000         8.366754662958044E-137
   37.5131250000000         4.683921924168837E-136
   37.7268750000000         1.264186884755706E-135
   37.9406250000000         2.601437740887845E-135
   38.1543750000000         4.356199769738459E-135
   38.3681250000000         5.705083673495043E-135
   38.5818750000000         4.396749343691265E-135
   38.7956250000000        -4.150382761686589E-135
   39.0093750000000        -2.739748164311369E-134
   39.2231250000000        -7.455437419422110E-134
   39.4368750000000        -1.512231449051209E-133
   39.6506250000000        -2.459421931082547E-133
   39.8643750000000        -3.043863056419345E-133
   40.0781250000000        -1.899755801209754E-133
   40.2918750000000         3.597439592739472E-133
   40.5056250000000         1.747498298293899E-132
   40.7193750000000         4.425151679702638E-132
   40.9331250000000         8.560497856288672E-132
   41.1468750000000         1.326832167326870E-131
   41.3606250000000         1.521759994791500E-131
   41.5743750000000         6.617865593504178E-132
   41.7881250000000        -2.683285200418927E-131
   42.0018750000000        -1.062290443273026E-130
   42.2156250000000        -2.540845389500404E-130
   42.4293750000000        -4.766553258881229E-130
   42.6431250000000        -7.249063596546050E-130
   42.8568750000000        -8.258256270324732E-130
   43.0706250000000        -3.851738665495824E-130
   43.2843750000000         1.310600002185660E-129
   43.4981250000000         5.311117368131881E-129
   43.7118750000000         1.276580739928967E-128
   43.9256250000000         2.414609692910003E-128
   44.1393750000000         3.753774225929899E-128
   44.3531250000000         4.564411508996007E-128
   44.5668750000000         3.151184730608363E-128
   44.7806250000000        -3.597098728652466E-128
   44.9943750000000        -2.036574482675108E-127
   45.2081250000000        -5.262409348228209E-127
   45.4218750000000        -1.037853683146404E-126
   45.6356250000000        -1.688226645297191E-126
   45.8493750000000        -2.228969161526305E-126
   46.0631250000000        -2.047707607951142E-126
   46.2768750000000         1.728445084708693E-128
   46.4906250000000         5.778674134046174E-126
   46.7043750000000         1.749917547263614E-125
   46.9181250000000         3.701761076553816E-125
   47.1318750000000         6.369118527460275E-125
   47.3456250000000         9.063380504085208E-125
   47.5593750000000         9.907309250647586E-125
   47.7731250000000         5.167844388719529E-125
   47.9868750000000        -1.121739259732245E-124
   48.2006250000000        -4.727500527751198E-124
   48.4143750000000        -1.106818627088644E-123
   48.6281250000000        -2.029404701295995E-123
   48.8418750000000        -3.083718010813589E-123
   49.0556250000000        -3.770956132548079E-123
   49.2693750000000        -3.038862863338206E-123
   49.4831250000000         8.950538773730902E-124
   49.6968750000000         1.051442817605481E-122
   49.9106250000000         2.846798052160486E-122
   50.1243750000000         5.609289093822034E-122
   50.3381250000000         9.051066797519480E-122
   50.5518750000000         1.199884666051326E-121
   50.7656250000000         1.179071940023105E-121
   50.9793750000000         3.708231793876760E-122
   51.1931250000000        -1.914200445502142E-121
   51.4068750000000        -6.474800599578678E-121
   51.6206250000000        -1.388033057122634E-120
   51.8343750000000        -2.376982512718697E-120
   52.0481250000000        -3.368982039554712E-120
   52.2618750000000        -3.751068367196536E-120
   52.4756250000000        -2.377800084947960E-120
   52.6893750000000         2.508734258115376E-120
   52.9031250000000         1.310218129499315E-119
   53.1168750000000         3.133433162556337E-119
   53.3306250000000         5.732679287865272E-119
   53.5443750000000         8.669907786947025E-119
   53.7581250000000         1.067022506914525E-118
   53.9718750000000         9.179462670879493E-119
   54.1856250000000         4.671945046906706E-121
   54.3993750000000        -2.230754539742983E-118
   54.6131250000000        -6.365650462325217E-118
   54.8268750000000        -1.268915960892779E-117
   55.0406250000000        -2.063174364865810E-117
   55.2543750000000        -2.789346037728419E-117
   55.4681250000000        -2.934986171746371E-117
   55.6818750000000        -1.604500086629024E-117
   55.8956250000000         2.505061673672382E-117
   56.1093750000000         1.093523483910320E-116
   56.3231250000000         2.493815210453445E-116
   56.5368750000000         4.439758064035695E-116
   56.7506250000000         6.605106399087810E-116
   56.9643750000000         8.104461637293222E-116
   57.1781250000000         7.224584017609323E-116
   57.3918750000000         1.241919074580149E-116
   57.6056250000000        -1.346633568723745E-115
   57.8193750000000        -4.069723984633333E-115
   58.0331250000000        -8.267109645131711E-115
   58.2468750000000        -1.368448460090470E-114
   58.4606250000000        -1.910922414936078E-114
   58.6743750000000        -2.176261803371835E-114
   58.8881250000000        -1.671302359365061E-114
   59.1018750000000         3.372917317799701E-115
   59.3156250000000         4.760115347762142E-114
   59.5293750000000         1.245731871816807E-113
   59.7431250000000         2.375546842595818E-113
   59.9568750000000         3.763160217151839E-113
   60.1706250000000         5.055264659366441E-113
   60.3843750000000         5.510654432165863E-113
   60.5981250000000         3.881941395169928E-113
   60.8118750000000        -1.607118047327591E-113
   61.0256250000000        -1.306595989738865E-112
   61.2393750000000        -3.235801238294730E-112
   61.4531250000000        -5.995618622714368E-112
   61.6668750000000        -9.309699732280000E-112
   61.8806250000000        -1.232544918432974E-111
   62.0943750000000        -1.332786352180996E-111
   62.3081250000000        -9.507537685449566E-112
   62.5218750000000         3.055285755445560E-112
   62.7356250000000         2.894253542966804E-111
   62.9493750000000         7.216293494430498E-111
   63.1631250000000         1.337859265117984E-110
   63.3768750000000         2.082018698524983E-110
   63.5906250000000         2.780733944533960E-110
   63.8043750000000         3.086507250836805E-110
   64.0181250000000         2.431000796452105E-110
   64.2318750000000         1.831512741536324E-112
   64.4456250000000        -5.096451830685831E-110
   64.6593750000000        -1.378453773705941E-109
   64.8731250000000        -2.641340982943844E-109
   65.0868750000000        -4.216129398850703E-109
   65.3006250000000        -5.807790629595635E-109
   65.5143750000000        -6.799203327377341E-109
   65.7281250000000        -6.152772327314847E-109
   65.9418750000000        -2.371599402158117E-109
   66.1556250000000         6.404110195283617E-109
   66.3693750000000         2.206364621163369E-108
   66.5831250000000         4.583878545851352E-108
   66.7968750000000         7.715925341957035E-108
   67.0106250000000         1.120094070399888E-107
   67.2243750000000         1.408843140947701E-107
   67.4381250000000         1.466856752638242E-107
   67.6518750000000         1.032591270999743E-107
   67.8656250000000        -2.425490904028215E-108
   68.0793750000000        -2.755603689646716E-107
   68.2931250000000        -6.856892054860633E-107
   68.5068750000000        -1.267540520852852E-106
   68.7206250000000        -1.984701216579965E-106
   68.9343750000000        -2.714426280023934E-106
   69.1481250000000        -3.204010433190401E-106
   69.3618750000000        -3.029380120039099E-106
   69.5756250000000        -1.572882134428088E-106
   69.7893750000000         1.952338709253021E-106
   70.0031250000000         8.392675310476403E-106
   70.2168750000000         1.841134469541643E-105
   70.4306250000000         3.206361389842257E-105
   70.6443750000000         4.815607894082079E-105
   70.8581250000000         6.339912640881702E-105
   71.0718750000000         7.144593040049840E-105
   71.2856250000000         6.204878570909890E-105
   71.4993750000000         2.075904705697580E-105
   71.7131250000000        -7.016147369100917E-105
   71.9268750000000        -2.287038712980765E-104
   72.1406250000000        -4.668734367921370E-104
   72.3543750000000        -7.802390560772685E-104
   72.5681250000000        -1.132771766296927E-103
   72.7818750000000        -1.437696343091120E-103
   72.9956250000000        -1.537290992425907E-103
   73.2093750000000        -1.187957505428188E-103
   73.4231250000000        -6.138363637401704E-105
   73.6368750000000         2.222318108035896E-103
   73.8506250000000         6.009305458082544E-103
   74.0643750000000         1.145316778283777E-102
   74.2781250000000         1.826672286206956E-102
   74.4918750000000         2.538553423671375E-102
   74.7056250000000         3.057760057738173E-102
   74.9193750000000         3.008746186265470E-102
   75.1331250000000         1.847751385764456E-102
   75.3468750000000        -1.108239500396624E-102
   75.5606250000000        -6.574289898187643E-102
   75.7743750000000        -1.507437842101395E-101
   75.9881250000000        -2.656990451405590E-101
   76.2018750000000        -3.992937531361487E-101
   76.4156250000000        -5.227557117028165E-101
   76.6293750000000        -5.832474654243169E-101
   76.8431250000000        -4.994392851553942E-101
   77.0568750000000        -1.628860493145065E-101
   77.2706250000000         5.498122060466023E-101
   77.4843750000000         1.748219695808487E-100
   77.6981250000000         3.477179754217955E-100
   77.9118750000000         5.641014751488111E-100
   78.1256250000000         7.906042136318521E-100
   78.3393750000000         9.595091470219157E-100
   78.5531250000000         9.602926702890651E-100
   78.7668750000000         6.380504536222378E-100
   78.9806250000000        -1.944290152795329E-100
   79.1943750000000        -1.722752695775652E-099
   79.4081250000000        -4.067069057733244E-099
   79.6218750000000        -7.183071887978189E-099
   79.8356250000000        -1.072987464247306E-098
   80.0493750000000        -1.391962662607795E-098
   80.2631250000000        -1.538284604667046E-098
   80.4768750000000        -1.310782451210963E-098
   80.6906250000000        -4.538559071483114E-099
   80.9043750000000         1.306366057012765E-098
   81.1181250000000         4.188606732500100E-098
   81.3318750000000         8.237727092746270E-098
   81.5456250000000         1.316057570860567E-097
   81.7593750000000         1.813086377966981E-097
   81.9731250000000         2.159970481915899E-097
   82.1868750000000         2.117737143061437E-097
   82.4006250000000         1.368376314295790E-097
   82.6143750000000        -4.507664695305481E-098
   82.8281250000000        -3.669771000582470E-097
   83.0418750000000        -8.455055889501010E-097
   83.2556250000000        -1.462129561302274E-096
   83.4693750000000        -2.139853847573148E-096
   83.6831250000000        -2.719063605736379E-096
   83.8968750000000        -2.939302200560478E-096
   84.1106250000000        -2.437429846783951E-096
   84.3243750000000        -7.759301961244214E-097
   84.5381250000000         2.483145244477857E-096
   84.7518750000000         7.644770447069266E-096
   84.9656250000000         1.468145588457544E-095
   85.1793750000000         2.297593556628106E-095
   85.3931250000000         3.103829922880417E-095
   85.6068750000000         3.626280192464557E-095
   85.8206250000000         3.482848042444971E-095
   86.0343750000000         2.188542494092043E-095
   86.2481250000000        -7.807088493092213E-096
   86.4618750000000        -5.863086139799793E-095
   86.6756250000000        -1.321464790643862E-094
   86.8893750000000        -2.244508615526791E-094
   87.1031250000000        -3.231119196894394E-094
   87.3168750000000        -4.042566549388533E-094
   87.5306250000000        -4.307794853754046E-094
   87.7443750000000        -3.530387265138059E-094
   87.9581250000000        -1.137123405274240E-094
   88.1718750000000         3.414710996829610E-094
   88.3856250000000         1.045827393692241E-093
   88.5993750000000         1.986437481667501E-093
   88.8131250000000         3.073258320518754E-093
   89.0268750000000         4.107288993571180E-093
   89.2406250000000         4.756148880220756E-093
   89.4543750000000         4.549432029397462E-093
   89.6681250000000         2.909617954207954E-093
   89.8818750000000        -7.642465991795172E-094
   90.0956250000000        -6.945254520293978E-093
   90.3093750000000        -1.575313565501187E-092
   90.5231250000000        -2.666393672981690E-092
   90.7368750000000        -3.818906333238094E-092
   90.9506250000000        -4.759078821219215E-092
   91.1643750000000        -5.073900962866651E-092
   91.3781250000000        -4.224940370324938E-092
   91.5918750000000        -1.606477116773335E-092
   91.8056250000000         3.336622416903572E-092
   92.0193750000000         1.092139343679883E-091
   92.2331250000000         2.097180739991235E-091
   92.4468750000000         3.251844334264110E-091
   92.6606250000000         4.350260458187506E-091
   92.8743750000000         5.056808644817679E-091
   93.0881250000000         4.905773492459576E-091
   93.3018750000000         3.335760447116349E-091
   93.5156250000000        -2.263651612658626E-092
   93.7293750000000        -6.220406479031129E-091
   93.9431250000000        -1.474344024329019E-090
   94.1568750000000        -2.528791004067225E-090
   94.3706250000000        -3.646105188625491E-090
   94.5843750000000        -4.574743171749761E-090
   94.7981250000000        -4.940675478479914E-090
   95.0118750000000        -4.262550971134361E-090
   95.2256250000000        -2.005377891303731E-090
   95.4393750000000         2.315479629306763E-090
   95.6531250000000         8.973523216958110E-090
   95.8668750000000         1.781767587749770E-089
   96.0806250000000         2.802681651990965E-089
   96.2943750000000         3.787500914105604E-089
   96.5081250000000         4.457563067078860E-089
   96.7218750000000         4.429709585122064E-089
   96.9356250000000         3.245934163050493E-089
   97.1493750000000         4.419135014098498E-090
   97.3631250000000        -4.337755630165940E-089
   97.5768750000000        -1.117673870838635E-088
   97.7906250000000        -1.968738175516850E-088
   98.0043750000000        -2.880166134318402E-088
   98.2181250000000        -3.660006923594037E-088
   98.4318750000000        -4.024672936065001E-088
   98.6456250000000        -3.611586514327240E-088
   98.8593750000000        -2.020056151792744E-088
   99.0731250000000         1.111890769038678E-088
   99.2868750000000         5.991200394399823E-088
   99.5006250000000         1.251827142048326E-087
   99.7143750000000         2.011611194152314E-087
   99.9281250000000         2.757101897288242E-087
   100.141875000000         3.293220072769736E-087
   100.355625000000         3.353277797714678E-087
   100.569375000000         2.620328538208689E-087
   100.783125000000         7.745002314264174E-088
   100.996875000000        -2.429263473673151E-087
   101.210625000000        -7.053481524401522E-087
   101.424375000000        -1.284861582252821E-086
   101.638125000000        -1.912043986818135E-086
   101.851875000000        -2.462529787132496E-086
   102.065625000000        -2.753642001395040E-086
   102.279375000000        -2.553334371783984E-086
   102.493125000000        -1.606788245819401E-086
   102.706875000000         3.150922336871562E-087
   102.920625000000         3.343862625672949E-086
   103.134375000000         7.421854510844476E-086
   103.348125000000         1.220105894677696E-085
   103.561875000000         1.695162380818241E-085
   103.775625000000         2.050812043129680E-085
   103.989375000000         2.128939442537861E-085
   104.203125000000         1.743128061931608E-085
   104.416875000000         7.067389493081022E-086
   104.630625000000        -1.122191010374360E-085
   104.844375000000        -3.780110337995974E-085
   105.058125000000        -7.126438035345228E-085
   105.271875000000        -1.077232570387041E-084
   105.485625000000        -1.402702391667809E-084
   105.699375000000        -1.588509308795939E-084
   105.913125000000        -1.508145065472464E-084
   106.126875000000        -1.024067420685488E-084
   106.340625000000        -1.397186298783425E-086
   106.554375000000         1.591285839776928E-084
   106.768125000000         3.760413786676722E-084
   106.981875000000         6.310908311526072E-084
   107.195625000000         8.864828014681131E-084
   107.409375000000         1.082536407600614E-083
   107.623125000000         1.139165031372194E-083
   107.836875000000         9.630123556892688E-084
   108.050625000000         4.617758521907345E-084
   108.264375000000        -4.335801612806948E-084
   108.478125000000        -1.739483700534966E-083
   108.691875000000        -3.386154474784753E-083
   108.905625000000        -5.185220894820753E-083
   109.119375000000        -6.806810031293078E-083
   109.333125000000        -7.776751381485857E-083
   109.546875000000        -7.505750629492887E-083
   109.760625000000        -5.361503390167198E-083
   109.974375000000        -7.907818783747938E-084
   110.188125000000         6.509214473170638E-083
   110.401875000000         1.638277547308848E-082
   110.615625000000         2.799876877369613E-082
   110.829375000000         3.967008844555658E-082
   111.043125000000         4.877086576287272E-082
   111.256875000000         5.182365514801875E-082
   111.470625000000         4.482880092082636E-082
   111.684375000000         2.389155168375714E-082
   111.898125000000        -1.383585922322694E-082
   112.111875000000        -6.894278295873196E-082
   112.325625000000        -1.384109217188676E-081
   112.539375000000        -2.143604345551870E-081
   112.753125000000        -2.832268215389581E-081
   112.966875000000        -3.257840215241892E-081
   113.180625000000        -3.184568657864801E-081
   113.394375000000        -2.363076900095177E-081
   113.608125000000        -5.790574428631232E-082
   113.821875000000         2.280274605902403E-081
   114.035625000000         6.147596119154609E-081
   114.249375000000         1.069604609676412E-080
   114.463125000000         1.527629241902813E-080
   114.676875000000         1.889272225152685E-080
   114.890625000000         2.024431800917488E-080
   115.104375000000         1.785450012162834E-080
   115.318125000000         1.030685363781474E-080
   115.531875000000        -3.411245295873572E-081
   115.745625000000        -2.347802720713732E-080
   115.959375000000        -4.877061392576093E-080
   116.173125000000        -7.644686219086547E-080
   116.386875000000        -1.016925573265163E-079
   116.600625000000        -1.177732034735298E-079
   116.814375000000        -1.165326366042417E-079
   117.028125000000        -8.945380535636660E-080
   117.241875000000        -2.933138347714516E-080
   117.455625000000         6.750340269915320E-080
   117.669375000000         1.986157859755013E-079
   117.883125000000         3.529472565646108E-079
   118.096875000000         5.089132518233720E-079
   118.310625000000         6.338370216317234E-079
   118.524375000000         6.855008959248105E-079
   118.738125000000         6.165200536258104E-079
   118.951875000000         3.819775818365952E-079
   119.165625000000        -4.973131803494090E-080
   119.379375000000        -6.836159026908670E-079
   119.593125000000        -1.484035862139528E-078
   119.806875000000        -2.362517759182611E-078
   120.020625000000        -3.170954745287746E-078
   120.234375000000        -3.704237493900524E-078
   120.448125000000        -3.716287131032764E-078
   120.661875000000        -2.952496738170649E-078
   120.875625000000        -1.199522506117681E-078
   121.089375000000         1.649880379849750E-078
   121.303125000000         5.523572330429622E-078
   121.516875000000         1.009980090135618E-077
   121.730625000000         1.475631416025624E-077
   121.944375000000         1.855866875980156E-077
   122.158125000000         2.030862167032176E-077
   122.371875000000         1.867060093215621E-077
   122.585625000000         1.238621544926420E-077
   122.799375000000         5.729026729493333E-079
   123.013125000000        -1.691664287665398E-077
   123.226875000000        -3.912115139552380E-077
   123.440625000000        -6.365500417013572E-077
   123.654375000000        -8.654230831149857E-077
   123.868125000000        -1.023042744717039E-076