  -1.60312500000000         0.000000000000000E+000
  -1.38937500000000         0.000000000000000E+000
  -1.17562500000000         0.000000000000000E+000
 -0.961875000000000         0.000000000000000E+000
 -0.748125000000000         0.000000000000000E+000
 -0.534375000000000         0.000000000000000E+000
 -0.320625000000000         0.000000000000000E+000
 -0.106875000000000         0.000000000000000E+000
  0.106875000000000         0.000000000000000E+000
  0.320625000000000         0.000000000000000E+000
  0.534375000000000         0.000000000000000E+000
  0.748125000000000         0.000000000000000E+000
  0.961875000000000         0.000000000000000E+000
   1.17562500000000         0.000000000000000E+000
   1.38937500000000         0.000000000000000E+000
   1.60312500000000         0.000000000000000E+000
   1.81687500000000         0.000000000000000E+000
   2.03062500000000         0.000000000000000E+000
   2.24437500000000         0.000000000000000E+000
   2.45812500000000         0.000000000000000E+000
   2.67187500000000         0.000000000000000E+000
   2.88562500000000         0.000000000000000E+000
   3.09937500000000         0.000000000000000E+000
   3.31312500000000         0.000000000000000E+000
   3.52687500000000         0.000000000000000E+000
   3.74062500000000         0.000000000000000E+000
   3.95437500000000         0.000000000000000E+000
   4.16812500000000         0.000000000000000E+000
   4.38187500000000         0.000000000000000E+000
   4.59562500000000         0.000000000000000E+000
   4.80937500000000         0.000000000000000E+000
   5.02312500000000         0.000000000000000E+000
   5.23687500000000         0.000000000000000E+000
   5.45062500000000         0.000000000000000E+000
   5.66437500000000         0.000000000000000E+000
   5.87812500000000         0.000000000000000E+000
   6.09187500000000         0.000000000000000E+000
   6.30562500000000         0.000000000000000E+000
   6.51937500000000         0.000000000000000E+000
   6.73312500000000         0.000000000000000E+000
   6.94687500000000         0.000000000000000E+000
   7.16062500000000         0.000000000000000E+000
   7.37437500000000         0.000000000000000E+000
   7.58812500000000         0.000000000000000E+000
   7.80187500000000         0.000000000000000E+000
   8.01562500000000         0.000000000000000E+000
   8.22937500000000         0.000000000000000E+000
   8.44312500000000         0.000000000000000E+000
   8.65687500000000         0.000000000000000E+000
   8.87062500000000         0.000000000000000E+000
   9.08437500000000         0.000000000000000E+000
   9.29812500000000         0.000000000000000E+000
   9.51187500000000         0.000000000000000E+000
   9.72562500000000         0.000000000000000E+000
   9.93937500000000         0.000000000000000E+000
   10.1531250000000         0.000000000000000E+000
   10.3668750000000        -1.892219314260126E-220
   10.5806250000000        -1.074056887808382E-208
   10.7943750000000        -2.716040521063184E-205
   11.0081250000000        -5.846327860668983E-204
   11.2218750000000        -3.665656619680692E-201
   11.4356250000000        -2.726945995338130E-199
   11.6493750000000        -1.204011491120644E-197
   11.8631250000000        -4.308246676307795E-196
   12.0768750000000        -1.320313827391072E-194
   12.2906250000000        -3.391187139977642E-193
   12.5043750000000        -7.216175045567735E-192
   12.7181250000000        -1.280701366077693E-190
   12.9318750000000        -1.922639486286379E-189
   13.1456250000000        -2.477518094224176E-188
   13.3593750000000        -2.774736642631577E-187
   13.5731250000000        -2.726250985447610E-186
   13.7868750000000        -2.362968791003123E-185
   14.0006250000000        -1.807688194064791E-184
   14.2143750000000        -1.211205128846335E-183
   14.4281250000000        -6.931659347807989E-183
   14.6418750000000        -3.139524262262957E-182
   14.8556250000000        -7.875161615130815E-182
   15.0693750000000         4.088254234686141E-181
   15.2831250000000         8.411705222588297E-180
   15.4968750000000         8.566092559432605E-179
   15.7106250000000         6.969004462957820E-178
   15.9243750000000         5.000959193572740E-177
   16.1381250000000         3.290000025430352E-176
   16.3518750000000         2.022185899378065E-175
   16.5656250000000         1.173092632569623E-174
   16.7793750000000         6.457668575729750E-174
   16.9931250000000         3.381885136860168E-173
   17.2068750000000         1.686104082337621E-172
   17.4206250000000         7.998001283636722E-172
   17.6343750000000         3.603258572372141E-171
   17.8481250000000         1.537260898217537E-170
   18.0618750000000         6.182061083232681E-170
   18.2756250000000         2.326200121078737E-169
   18.4893750000000         8.087504154510015E-169
   18.7031250000000         2.536386562008416E-168
   18.9168750000000         6.793802525966105E-168
   19.1306250000000         1.300581699518723E-167
   19.3443750000000        -1.653023983291467E-168
   19.5581250000000        -1.885499194630355E-166
   19.7718750000000        -1.294311759029866E-165
   19.9856250000000        -6.491511847100309E-165
   20.1993750000000        -2.796357256256233E-164
   20.4131250000000        -1.089035137114688E-163
   20.6268750000000        -3.922193918581531E-163
   20.8406250000000        -1.321759320455742E-162
   21.0543750000000        -4.195602424104782E-162
   21.2681250000000        -1.259455823951739E-161
   21.4818750000000        -3.584790187880621E-161
   21.6956250000000        -9.697168890967520E-161
   21.9093750000000        -2.501124712002597E-160
   22.1231250000000        -6.188611348023977E-160
   22.3368750000000        -1.486963513608704E-159
   22.5506250000000        -3.547634958069388E-159
   22.7643750000000        -8.695429451941875E-159
   22.9781250000000        -2.271494320662705E-158
   23.1918750000000        -6.434898873309061E-158
   23.4056250000000        -1.945176084705419E-157
   23.6193750000000        -6.048727623132350E-157
   23.8331250000000        -1.868830199706223E-156
   24.0468750000000        -5.605258225708656E-156
   24.2606250000000        -1.610869445105456E-155
   24.4743750000000        -4.404163790039223E-155
   24.6881250000000        -1.140284273287934E-154
   24.9018750000000        -2.783734841711410E-154
   25.1156250000000        -6.369936289010905E-154
   25.3293750000000        -1.352922619651599E-153
   25.5431250000000        -2.619091248412288E-153
   25.7568750000000        -4.446594181633165E-153
   25.9706250000000        -5.958231856705250E-153
   26.1843750000000        -3.519845706298257E-153
   26.3981250000000         1.351186015167753E-152
   26.6118750000000         7.129221980614488E-152
   26.8256250000000         2.263293022509400E-151
   27.0393750000000         5.872123319923813E-151
   27.2531250000000         1.338002898138684E-150
   27.4668750000000         2.744959544676049E-150
   27.6806250000000         5.107530345604767E-150
   27.8943750000000         8.598639348841722E-150
   28.1081250000000         1.297490323344289E-149
   28.3218750000000         1.734076913599926E-149
   28.5356250000000         2.074525882120954E-149
   28.7493750000000         2.570058516319948E-149
   28.9631250000000         4.900120663298140E-149
   29.1768750000000         1.471829435449666E-148
   29.3906250000000         4.656775955998852E-148
   29.6043750000000         1.316221404240244E-147
   29.8181250000000         3.267694083380234E-147
   30.0318750000000         7.192476380683408E-147
   30.2456250000000         1.414891935509732E-146
   30.4593750000000         2.495249056904908E-146
   30.6731250000000         3.943946839024387E-146
   30.8868750000000         5.601409904401009E-146
   31.1006250000000         7.329295563852748E-146
   31.3143750000000         9.696253266669577E-146
   31.5281250000000         1.532082015329867E-145
   31.7418750000000         2.959595855372223E-145
   31.9556250000000         5.483149925667691E-145
   32.1693750000000         6.049357601421610E-145
   32.3831250000000        -1.092374029435757E-144
   32.5968750000000        -9.585318695866282E-144
   32.8106250000000        -3.774304983701757E-143
   33.0243750000000        -1.126997773974829E-142
   33.2381250000000        -2.806988939254405E-142
   33.4518750000000        -5.965443030972472E-142
   33.6656250000000        -1.061938063954150E-141
   33.8793750000000        -1.438379742274311E-141
   34.0931250000000        -8.086648029222212E-142
   34.3068750000000         3.272156933378772E-141
   34.5206250000000         1.611419661883189E-140
   34.7343750000000         4.738555221955358E-140
   34.9481250000000         1.113012139337466E-139
   35.1618750000000         2.216690539748765E-139
   35.3756250000000         3.738816500605220E-139
   35.5893750000000         5.006044413531559E-139
   35.8031250000000         3.842800175378652E-139
   36.0168750000000        -4.839202671015886E-139
   36.2306250000000        -3.074672042405240E-138
   36.4443750000000        -8.904537054880314E-138
   36.6581250000000        -1.973002984338357E-137
   36.8718750000000        -3.624237166657549E-137
   37.0856250000000        -5.477951636067612E-137
   37.2993750000000        -6.087051949649865E-137
   37.5131250000000        -1.901164017653050E-137
   37.7268750000000         1.393671427617191E-136
   37.9406250000000         5.214282530565337E-136
   38.1543750000000         1.251481776991273E-135
   38.3681250000000         2.383703654619725E-135
   38.5818750000000         3.690405047410403E-135
   38.7956250000000         4.263313999047740E-135
   39.0093750000000         1.916116416789387E-135
   39.2231250000000        -7.449109403383358E-135
   39.4368750000000        -2.995587855124013E-134
   39.6506250000000        -7.209700385032256E-134
   39.8643750000000        -1.350961661050191E-133
   40.0781250000000        -2.022221495122495E-133
   40.2918750000000        -2.163107266067360E-133
   40.5056250000000        -4.843160692263706E-134
   40.7193750000000         5.307447959139057E-133
   40.9331250000000         1.843320736150240E-132
   41.1468750000000         4.190357629477312E-132
   41.3606250000000         7.515528251472605E-132
   41.5743750000000         1.069588160721097E-131
   41.7881250000000         1.034466579269564E-131
   42.0018750000000        -7.751626245799417E-133
   42.2156250000000        -3.506825065722624E-131
   42.4293750000000        -1.093963030257222E-130
   42.6431250000000        -2.388384024743987E-130
   42.8568750000000        -4.192937717780658E-130
   43.0706250000000        -5.918788580307811E-130
   43.2843750000000        -5.839555997280121E-130
   43.4981250000000        -3.159735709641129E-131
   43.7118750000000         1.686547075148366E-129
   43.9256250000000         5.425785306099921E-129
   44.1393750000000         1.200900351233863E-128
   44.3531250000000         2.147317012195024E-128
   44.5668750000000         3.152186271329655E-128
   44.7806250000000         3.494448484530098E-128
   44.9943750000000         1.614426564830726E-128
   45.2081250000000        -5.211907428905988E-128
   45.4218750000000        -2.088237339884487E-127
   45.6356250000000        -4.958015238341477E-127
   45.8493750000000        -9.305406248529976E-127
   46.0631250000000        -1.448685840386643E-126
   46.2768750000000        -1.805935627252111E-126
   46.4906250000000        -1.441296737649513E-126
   46.7043750000000         6.644475650526285E-127
   46.9181250000000         6.039600776902435E-126
   47.1318750000000         1.648947616732019E-125
   47.3456250000000         3.326758248179511E-125
   47.5593750000000         5.523542782228446E-125
   47.7731250000000         7.562132952831355E-125
   47.9868750000000         7.732796258406046E-125
   48.2006250000000         2.766697617476008E-125
   48.4143750000000        -1.247726849773033E-124
   48.6281250000000        -4.454979869056353E-124
   48.8418750000000        -9.923431947813409E-124
   49.0556250000000        -1.763787436528445E-123
   49.2693750000000        -2.604426941445645E-123
   49.4831250000000        -3.062901310605528E-123
   49.6968750000000        -2.221791408868648E-123
   49.9106250000000         1.432016734657904E-123
   50.1243750000000         9.948270264117426E-123
   50.3381250000000         2.541172761074710E-122
   50.5518750000000         4.864158082351319E-122
   50.7656250000000         7.670679708444126E-122
   50.9793750000000         9.904690625950098E-122
   51.1931250000000         9.255948800326443E-122
   51.4068750000000         1.721483721428441E-122
   51.6206250000000        -1.842382376287240E-121
   51.8343750000000        -5.761692947056414E-121
   52.0481250000000        -1.200398261815967E-120
   52.2618750000000        -2.016409116615281E-120
   52.4756250000000        -2.803979988792485E-120
   52.6893750000000        -3.032918652930534E-120
   52.9031250000000        -1.731496093448163E-120
   53.1168750000000         2.568263850679037E-120
   53.3306250000000         1.166393067648017E-119
   53.5443750000000         2.707546780630307E-119
   53.7581250000000         4.872778646567871E-119
   53.9718750000000         7.269067997689899E-119
   54.1856250000000         8.796998938368856E-119
   54.3993750000000         7.289040562765427E-119
   54.6131250000000        -7.394767190323977E-120
   54.8268750000000        -1.992411516367487E-118
   55.0406250000000        -5.498563404719867E-118
   55.2543750000000        -1.081248192616882E-117
   55.4681250000000        -1.742301771600886E-117
   55.6818750000000        -2.335954781038455E-117
   55.8956250000000        -2.428225558634794E-117
   56.1093750000000        -1.265040915543513E-117
   56.3231250000000         2.246587335081821E-117
   56.5368750000000         9.396019109144961E-117
   56.7506250000000         2.122655305883441E-116
   56.9643750000000         3.763284896524534E-116
   57.1781250000000         5.587312655826293E-116
   57.3918750000000         6.851794564052520E-116
   57.6056250000000         6.118233060209308E-116
   57.8193750000000         1.094936057758508E-116
   58.0331250000000        -1.127983697409819E-115
   58.2468750000000        -3.424695767517955E-115
   58.4606250000000        -6.978100864296577E-115
   58.6743750000000        -1.159388909136969E-114
   58.8881250000000        -1.628162007371117E-114
   59.1018750000000        -1.873870667765532E-114
   59.3156250000000        -1.483969792035180E-114
   59.5293750000000         1.610786434027832E-115
   59.7431250000000         3.841533959981668E-114
   59.9568750000000         1.031654139549990E-113
   60.1706250000000         1.992904388830578E-113
   60.3843750000000         3.192779781429144E-113
   60.5981250000000         4.348709158581484E-113
   60.8118750000000         4.852309727864286E-113
   61.0256250000000         3.661666193348938E-113
   61.2393750000000        -7.333881282693611E-114
   61.4531250000000        -1.017138410036103E-112
   61.6668750000000        -2.636465774037328E-112
   61.8806250000000        -4.997035045585803E-112
   62.0943750000000        -7.905595300338292E-112
   62.3081250000000        -1.069469670115956E-111
   62.5218750000000        -1.197006766086798E-111
   62.7356250000000        -9.388562040706582E-112
   62.9493750000000         4.028662353151083E-113
   63.1631250000000         2.146109264798380E-111
   63.3768750000000         5.759634981910893E-111
   63.5906250000000         1.104673920099268E-110
   63.8043750000000         1.764727259479358E-110
   64.0181250000000         2.424155769832002E-110
   64.2318750000000         2.803980099962632E-110
   64.4456250000000         2.431985486802070E-110
   64.6593750000000         6.252469423444394E-111
   64.8731250000000        -3.460904395790826E-110
   65.0868750000000        -1.066648575974049E-109
   65.3006250000000        -2.148485757587758E-109
   65.5143750000000        -3.549479070126183E-109
   65.7281250000000        -5.055145180041571E-109
   65.9418750000000        -6.179789240053280E-109
   66.1556250000000        -6.069003924464166E-109
   66.3693750000000        -3.442032131569535E-109
   66.5831250000000         3.363204831009239E-109
   66.7968750000000         1.615404865194499E-108
   67.0106250000000         3.634878566787556E-108
   67.2243750000000         6.403807016154020E-108
   67.4381250000000         9.657682994338975E-108
   67.6518750000000         1.267461963368250E-107
   67.8656250000000         1.407201067786288E-107
   68.0793750000000         1.163772227221044E-107
   68.2931250000000         2.291804904623166E-108
   68.5068750000000        -1.767549126231877E-107
   68.7206250000000        -5.189555236183624E-107
   68.9343750000000        -1.025214682711122E-106
   69.1481250000000        -1.679372758328594E-106
   69.3618750000000        -2.394929142900019E-106
   69.5756250000000        -2.974432759645309E-106
   69.7893750000000        -3.067336255368026E-106
   70.0031250000000        -2.139807961439642E-106
   70.2168750000000         5.205324398606359E-107
   70.4306250000000         5.731041895850881E-106
   70.6443750000000         1.422772738143629E-105
   70.8581250000000         2.631776564305176E-105
   71.0718750000000         4.133085392120556E-105
   71.2856250000000         5.686090088926484E-105
   71.4993750000000         6.785670981184535E-105
   71.7131250000000         6.573539350612199E-105
   71.9268750000000         3.786267980893893E-105
   72.1406250000000        -3.203551147380571E-105
   72.3543750000000        -1.617257144196996E-104
   72.5681250000000        -3.655877079468380E-104
   72.7818750000000        -6.459856445116359E-104
   72.9956250000000        -9.802028946182917E-104
   73.2093750000000        -1.303177543773711E-103
   73.4231250000000        -1.488054728188841E-103
   73.6368750000000        -1.329419048323603E-103
   73.8506250000000        -5.380137370034960E-104
   74.0643750000000         1.239559035006684E-103
   74.2781250000000         4.358215490159650E-103
   74.4918750000000         9.048583058541418E-103
   74.7056250000000         1.521053137635478E-102
   74.9193750000000         2.212050730537211E-102
   75.1331250000000         2.807292132263967E-102
   75.3468750000000         3.001964447951516E-102
   75.5606250000000         2.333519745844410E-102
   75.7743750000000         1.914555164762999E-103
   75.9881250000000        -4.110777029139051E-102
   76.2018750000000        -1.116717866328259E-101
   76.4156250000000        -2.118058497570940E-101
   76.6293750000000        -3.351498533857799E-101
   76.8431250000000        -4.611441412259896E-101
   77.0568750000000        -5.486601477897109E-101
   77.2706250000000        -5.307779273079409E-101
   77.4843750000000        -3.136154297047884E-101
   77.6981250000000         2.165859926501870E-101
   77.9118750000000         1.172878915223387E-100
   78.1256250000000         2.628119798911353E-100
   78.3393750000000         4.552711928499553E-100
   78.5531250000000         6.730021402430043E-100
   78.7668750000000         8.657963093985305E-100
   78.9806250000000         9.457687091665105E-100
   79.1943750000000         7.826779053665302E-100
   79.4081250000000         2.092919317224197E-100
   79.6218750000000        -9.559941168144317E-100
   79.8356250000000        -2.861471300388255E-099
   80.0493750000000        -5.543015526471664E-099
   80.2631250000000        -8.812111683036578E-099
   80.4768750000000        -1.211918221142329E-098
   80.6906250000000        -1.441570666196344E-098
   80.9043750000000        -1.405941621448232E-098
   81.1181250000000        -8.830991768233876E-099
   81.3318750000000         3.846877566955603E-099
   81.5456250000000         2.638529155325641E-098
   81.7593750000000         6.010833872124481E-098
   81.9731250000000         1.038947342113448E-097
   82.1868750000000         1.524470768231495E-097
   82.4006250000000         1.944279970772213E-097
   82.6143750000000         2.109451642592944E-097
   82.8281250000000         1.751577305047903E-097
   83.0418750000000         5.406245398439384E-098
   83.2556250000000        -1.862959087713779E-097
   83.4693750000000        -5.709979334723282E-097
   83.6831250000000        -1.101083428608898E-096
   83.8968750000000        -1.733397624924630E-096
   84.1106250000000        -2.357635119348503E-096
   84.3243750000000        -2.775398884424769E-096
   84.5381250000000        -2.689345278191693E-096
   84.7518750000000        -1.713854292410486E-096
   84.9656250000000         5.787940879304163E-097
   85.1793750000000         4.562468098245512E-096
   85.3931250000000         1.040100654251557E-095
   85.6068750000000         1.783134101855930E-095
   85.8206250000000         2.590335436530156E-095
   86.0343750000000         3.272051640001155E-095
   86.2481250000000         3.525937352754503E-095
   86.4618750000000         2.938298606921462E-095
   86.6756250000000         1.019468027990092E-095
   86.8893750000000        -2.710963373081044E-095
   87.1031250000000        -8.575806303386938E-095
   87.3168750000000        -1.652399793980458E-094
   87.5306250000000        -2.585777830202292E-094
   87.7443750000000        -3.493982093960311E-094
   87.9581250000000        -4.095018386048811E-094
   88.1718750000000        -3.980102349715049E-094
   88.3856250000000        -2.635229434904153E-094
   88.5993750000000         4.908097583192799E-095
   88.8131250000000         5.856790799224411E-094
   89.0268750000000         1.362898907853695E-093
   89.2406250000000         2.341545124674120E-093
   89.4543750000000         3.396152554148069E-093
   89.6681250000000         4.286427317241536E-093
   89.8818750000000         4.640014229571968E-093
   90.0956250000000         3.959711896092291E-093
   90.3093750000000         1.670917922146292E-093
   90.5231250000000        -2.774753596425279E-093
   90.7368750000000        -9.727915029850427E-093
   90.9506250000000        -1.910057817101813E-092
   91.1643750000000        -3.007297699056258E-092
   91.3781250000000        -4.079150478727306E-092
   91.5918750000000        -4.813459707370169E-092
   91.8056250000000        -4.765919446147907E-092
   92.0193750000000        -3.387053624143893E-092
   92.2331250000000        -9.702375191640968E-094
   92.4468750000000         5.578394039318637E-092
   92.6606250000000         1.380461077706266E-091
   92.8743750000000         2.417575749807022E-091
   93.0881250000000         3.542246773365822E-091
   93.3018750000000         4.514793917833491E-091
   93.5156250000000         4.968284364508061E-091
   93.7293750000000         4.418022811392335E-091
   93.9431250000000         2.309060594722254E-091
   94.1568750000000        -1.884797892614222E-091
   94.3706250000000        -8.501520947665134E-091
   94.5843750000000        -1.747189757398819E-090
   94.7981250000000        -2.805854800689536E-090
   95.0118750000000        -3.859328524448983E-090
   95.2256250000000        -4.628095340849475E-090
   95.4393750000000        -4.716627572981327E-090
   95.6531250000000        -3.638227799320834E-090
   95.8668750000000        -8.804463977317351E-091
   96.0806250000000         3.978828638309432E-090
   96.2943750000000         1.110101766452964E-089
   96.5081250000000         2.017039504611089E-089
   96.7218750000000         3.015709977629177E-089
   96.9356250000000         3.910740352250771E-089
   97.1493750000000         4.403346832333261E-089
   97.3631250000000         4.099658374103481E-089
   97.5768750000000         2.548956300437323E-089
   97.7906250000000        -6.783974237316843E-090
   98.0043750000000        -5.867399399897211E-089
   98.2181250000000        -1.299110764794285E-088
   98.4318750000000        -2.151392899826171E-088
   98.6456250000000        -3.019658444962072E-088
   98.8593750000000        -3.695346134701066E-088
   99.0731250000000        -3.883232449853470E-088
   99.2868750000000        -3.220012830937031E-088
   99.5006250000000        -1.321994281247546E-088
   99.7143750000000         2.131548201319563E-088
   99.9281250000000         7.277643573753596E-088
   100.141875000000         1.391815881222679E-087
   100.355625000000         2.135615938484422E-087
   100.569375000000         2.825342139745704E-087
   100.783125000000         3.255806388568636E-087
   100.996875000000         3.156440988680498E-087
   101.210625000000         2.217296253573364E-087
   101.424375000000         1.410776369988470E-088
   101.638125000000        -3.275487010557446E-087
   101.851875000000        -8.032910406648679E-087
   102.065625000000        -1.380280185054887E-086
   102.279375000000        -1.980472996261247E-086
   102.493125000000        -2.471830628992541E-086
   102.706875000000        -2.667374971349041E-086
   102.920625000000        -2.337128699091281E-086
   103.134375000000        -1.237873698873856E-086
   103.348125000000         8.357141042947319E-087
   103.561875000000         3.978079000873292E-086
   103.775625000000         8.082533282292710E-086
   103.989375000000         1.274530048525268E-085
   104.203125000000         1.718374939914207E-085
   104.416875000000         2.019717295001030E-085
   104.630625000000         2.020505840743421E-085
   104.844375000000         1.539980638065991E-085
   105.058125000000         4.045086712501421E-086
   105.271875000000        -1.506571622044093E-085
   105.485625000000        -4.200660567154459E-085
   105.699375000000        -7.503124346423973E-085
   105.913125000000        -1.099153786225710E-084
   106.126875000000        -1.395044450131875E-084
   106.340625000000        -1.536942608568755E-084
   106.554375000000        -1.401017421559175E-084
   106.768125000000        -8.566679120641186E-085
   106.981875000000         2.065594722451241E-085
   107.195625000000         1.841245391113277E-084
   107.409375000000         3.996273448521306E-084
   107.623125000000         6.469088533605900E-084
   107.836875000000         8.866203957637437E-084
   108.050625000000         1.058596635417752E-083
   108.264375000000         1.084029572575282E-083
   108.478125000000         8.732411164702553E-084
   108.691875000000         3.404002905965847E-084
   108.905625000000        -5.743399215002261E-084
   109.119375000000        -1.876281641939287E-083
   109.333125000000        -3.484251209878016E-083
   109.546875000000        -5.200842857524492E-083
   109.760625000000        -6.692959603986227E-083
   109.974375000000        -7.492885556820967E-083
   110.188125000000        -7.031018856991451E-083
   110.401875000000        -4.710196369540520E-083
   110.615625000000        -2.738234224612520E-085
   110.829375000000         7.259277281214572E-083
   111.043125000000         1.693158046822930E-082
   111.256875000000         2.810882239484265E-082
   111.470625000000         3.908619304400731E-082
   111.684375000000         4.727313478849592E-082
   111.898125000000         4.929983138881349E-082
   112.111875000000         4.135830497056639E-082
   112.325625000000         1.982679167395557E-082
   112.539375000000        -1.781236406424949E-082
   112.753125000000        -7.181229409838683E-082
   112.966875000000        -1.388918302721540E-081
   113.180625000000        -2.110849632999777E-081
   113.394375000000        -2.750321403958742E-081
   113.608125000000        -3.121065007790465E-081
   113.821875000000        -2.997868460782728E-081
   114.035625000000        -2.146247613767188E-081
   114.249375000000        -3.697711198441335E-082
   114.463125000000         2.426312092599473E-081
   114.676875000000         6.160843889290388E-081
   114.890625000000         1.050295085512720E-080
   115.104375000000         1.481528983821265E-080
   115.318125000000         1.813574965712332E-080
   115.531875000000         1.922146976837845E-080
   115.745625000000         1.667744229313737E-080
   115.959375000000         9.184613137327248E-081
   116.173125000000        -4.171995160125425E-081
   116.386875000000        -2.349642044926773E-080
   116.600625000000        -4.764556341721113E-080
   116.814375000000        -7.384446493420170E-080
   117.028125000000        -9.746326556552441E-080
   117.241875000000        -1.120859667240484E-079
   117.455625000000        -1.100024320020040E-079
   117.669375000000        -8.322826207016043E-080
   117.883125000000        -2.509418349747720E-080
   118.096875000000         6.765669011121069E-080
   118.310625000000         1.924662316570143E-079
   118.524375000000         3.386220168587724E-079
   118.738125000000         4.855178646648707E-079
   118.951875000000         6.021843397838064E-079
   119.165625000000         6.488132809000149E-079
   119.379375000000         5.809242013238689E-079
   119.593125000000         3.565674824996693E-079
   119.806875000000        -5.350112974077936E-080
   120.020625000000        -6.534088595508970E-079
   120.234375000000        -1.409084283351291E-078
   120.448125000000        -2.236970388193371E-078
   120.661875000000        -2.997797031867797E-078
   120.875625000000        -3.499162743761324E-078
   121.089375000000        -3.510592903233106E-078
   121.303125000000        -2.793838881375555E-078
   121.516875000000        -1.149265731974443E-078
   121.730625000000         1.523826003954209E-078
   121.944375000000         5.159058571535101E-078
   122.158125000000         9.457656898769377E-078
   122.371875000000         1.384099433559765E-077
   122.585625000000         1.743933879726616E-077
   122.799375000000         1.913610144015810E-077
   123.013125000000         1.768425468995200E-077
   123.226875000000         1.190423661038852E-077
   123.440625000000         9.599624683655805E-079
   123.654375000000        -1.530827767234449E-077
   123.868125000000        -3.603687433480005E-077