  -1.60312500000000         0.000000000000000E+000
  -1.38937500000000         0.000000000000000E+000
  -1.17562500000000         0.000000000000000E+000
 -0.961875000000000         0.000000000000000E+000
 -0.748125000000000         0.000000000000000E+000
 -0.534375000000000         0.000000000000000E+000
 -0.320625000000000         0.000000000000000E+000
 -0.106875000000000         0.000000000000000E+000
  0.106875000000000         0.000000000000000E+000
  0.320625000000000         0.000000000000000E+000
  0.534375000000000         0.000000000000000E+000
  0.748125000000000         0.000000000000000E+000
  0.961875000000000         0.000000000000000E+000
   1.17562500000000         0.000000000000000E+000
   1.38937500000000         0.000000000000000E+000
   1.60312500000000         0.000000000000000E+000
   1.81687500000000         0.000000000000000E+000
   2.03062500000000         0.000000000000000E+000
   2.24437500000000         0.000000000000000E+000
   2.45812500000000         0.000000000000000E+000
   2.67187500000000         0.000000000000000E+000
   2.88562500000000         0.000000000000000E+000
   3.09937500000000         0.000000000000000E+000
   3.31312500000000         0.000000000000000E+000
   3.52687500000000         0.000000000000000E+000
   3.74062500000000         0.000000000000000E+000
   3.95437500000000         0.000000000000000E+000
   4.16812500000000         0.000000000000000E+000
   4.38187500000000         0.000000000000000E+000
   4.59562500000000         0.000000000000000E+000
   4.80937500000000         0.000000000000000E+000
   5.02312500000000         0.000000000000000E+000
   5.23687500000000         0.000000000000000E+000
   5.45062500000000         0.000000000000000E+000
   5.66437500000000         0.000000000000000E+000
   5.87812500000000         0.000000000000000E+000
   6.09187500000000         0.000000000000000E+000
   6.30562500000000         0.000000000000000E+000
   6.51937500000000         0.000000000000000E+000
   6.73312500000000         0.000000000000000E+000
   6.94687500000000         0.000000000000000E+000
   7.16062500000000         0.000000000000000E+000
   7.37437500000000         0.000000000000000E+000
   7.58812500000000         0.000000000000000E+000
   7.80187500000000         0.000000000000000E+000
   8.01562500000000         0.000000000000000E+000
   8.22937500000000         0.000000000000000E+000
   8.44312500000000         0.000000000000000E+000
   8.65687500000000         0.000000000000000E+000
   8.87062500000000         0.000000000000000E+000
   9.08437500000000         0.000000000000000E+000
   9.29812500000000         0.000000000000000E+000
   9.51187500000000         0.000000000000000E+000
   9.72562500000000         0.000000000000000E+000
   9.93937500000000         0.000000000000000E+000
   10.1531250000000        -6.875325972467218E-220
   10.3668750000000         6.566010229283331E-207
   10.5806250000000         3.081937232418209E-204
   10.7943750000000        -4.379275963555750E-202
   11.0081250000000         8.943573710275956E-200
   11.2218750000000         7.542584124788578E-198
   11.4356250000000         3.401461146174377E-196
   11.6493750000000         1.231149608652295E-194
   11.8631250000000         3.766042189142270E-193
   12.0768750000000         9.473186468991026E-192
   12.2906250000000         1.938737900051971E-190
   12.5043750000000         3.251927470766278E-189
   12.7181250000000         4.521976712517373E-188
   12.9318750000000         5.249478784664605E-187
   13.1456250000000         5.065966530013028E-186
   13.3593750000000         3.945917074146884E-185
   13.5731250000000         2.218792355552090E-184
   13.7868750000000         3.911196131691210E-184
   14.0006250000000        -1.087949255266555E-182
   14.2143750000000        -1.980565109294381E-181
   14.4281250000000        -2.281170058161652E-180
   14.6418750000000        -2.139569273795098E-179
   14.8556250000000        -1.756148676200541E-178
   15.0693750000000        -1.303170402077945E-177
   15.2831250000000        -8.905147589205265E-177
   15.4968750000000        -5.670462450560871E-176
   15.7106250000000        -3.392103177166352E-175
   15.9243750000000        -1.917238717078842E-174
   16.1381250000000        -1.027843082991666E-173
   16.3518750000000        -5.238757285157686E-173
   16.5656250000000        -2.540659391772782E-172
   16.7793750000000        -1.171602586884959E-171
   16.9931250000000        -5.124521431108308E-171
   17.2068750000000        -2.115695016117502E-170
   17.4206250000000        -8.174229796009002E-170
   17.6343750000000        -2.910043265697314E-169
   17.8481250000000        -9.254019340084404E-169
   18.0618750000000        -2.434273765594447E-168
   18.2756250000000        -3.876970905875535E-168
   18.4893750000000         8.725403220336667E-168
   18.7031250000000         1.249360609671976E-166
   18.9168750000000         7.963760871454610E-166
   19.1306250000000         4.015067148534649E-165
   19.3443750000000         1.775927322799810E-164
   19.5581250000000         7.151755073195285E-164
   19.7718750000000         2.665502947167028E-163
   19.9856250000000         9.261279608534988E-163
   20.1993750000000         3.004886435304688E-162
   20.4131250000000         9.075743695535438E-162
   20.6268750000000         2.527600454393927E-161
   20.8406250000000         6.354743214380987E-161
   21.0543750000000         1.371199432538783E-160
   21.2681250000000         2.157516921036809E-160
   21.4818750000000         1.530330893439430E-161
   21.6956250000000        -1.788787404529561E-159
   21.9093750000000        -1.014099472637498E-158
   22.1231250000000        -4.129744506173650E-158
   22.3368750000000        -1.440077422410838E-157
   22.5506250000000        -4.537401341928623E-157
   22.7643750000000        -1.321853395587849E-156
   22.9781250000000        -3.600802913311651E-156
   23.1918750000000        -9.221839522603923E-156
   23.4056250000000        -2.224535385871807E-155
   23.6193750000000        -5.049160374656976E-155
   23.8331250000000        -1.073943729180973E-154
   24.0468750000000        -2.122647654684934E-154
   24.2606250000000        -3.836292821077519E-154
   24.4743750000000        -6.131323036055969E-154
   24.6881250000000        -7.949367523312698E-154
   24.9018750000000        -5.665253538761426E-154
   25.1156250000000         1.009326972540108E-153
   25.3293750000000         6.032205916044165E-153
   25.5431250000000         1.883226617248298E-152
   25.7568750000000         4.806292768853042E-152
   25.9706250000000         1.114308545936789E-151
   26.1843750000000         2.476492150285805E-151
   26.3981250000000         5.472130974292993E-151
   26.6118750000000         1.227257524345808E-150
   26.8256250000000         2.795782827051250E-150
   27.0393750000000         6.363234941045596E-150
   27.2531250000000         1.411382057553041E-149
   27.4668750000000         2.971560879241098E-149
   27.6806250000000         5.777529625877586E-149
   27.8943750000000         9.997551768879799E-149
   28.1081250000000         1.430755459136203E-148
   28.3218750000000         1.313299343078262E-148
   28.5356250000000        -8.319435915979584E-149
   28.7493750000000        -8.048337557670863E-148
   28.9631250000000        -2.520405272586037E-147
   29.1768750000000        -5.736995591139685E-147
   29.3906250000000        -1.033381878211297E-146
   29.6043750000000        -1.403520384371018E-146
   29.8181250000000        -9.921683989599984E-147
   30.0318750000000         1.558518587083016E-146
   30.2456250000000         7.881325190681381E-146
   30.4593750000000         1.760771567027007E-145
   30.6731250000000         2.207353681492641E-145
   30.8868750000000        -7.631817384513730E-146
   31.1006250000000        -1.338504750454865E-144
   31.3143750000000        -4.412566123404789E-144
   31.5281250000000        -9.232432901766081E-144
   31.7418750000000        -1.083058815581686E-143
   31.9556250000000         1.092540468530576E-143
   32.1693750000000         1.127005517385635E-142
   32.3831250000000         4.233879615436001E-142
   32.5968750000000         1.185527258125574E-141
   32.8106250000000         2.757235818369878E-141
   33.0243750000000         5.444677211359041E-141
   33.2381250000000         8.876047278518100E-141
   33.4518750000000         1.039263034984135E-140
   33.6656250000000         1.712052704120639E-141
   33.8793750000000        -3.676197182286686E-140
   34.0931250000000        -1.433690291545271E-139
   34.3068750000000        -3.798914897467496E-139
   34.5206250000000        -8.203114606694662E-139
   34.7343750000000        -1.494390502885243E-138
   34.9481250000000        -2.233478003744549E-138
   35.1618750000000        -2.343326705677966E-138
   35.3756250000000        -3.374540057178029E-140
   35.5893750000000         8.370871971552456E-138
   35.8031250000000         2.912159528493667E-137
   36.0168750000000         7.066410965223734E-137
   36.2306250000000         1.400570582222130E-136
   36.4443750000000         2.324368692329686E-136
   36.6581250000000         3.082967774808153E-136
   36.8718750000000         2.538200892781008E-136
   37.0856250000000        -1.742514345101482E-136
   37.2993750000000        -1.399360378985079E-135
   37.5131250000000        -4.013057736165043E-135
   37.7268750000000        -8.577430211683049E-135
   37.9406250000000        -1.503741801241162E-134
   38.1543750000000        -2.148067301785873E-134
   38.3681250000000        -2.205490804179488E-134
   38.5818750000000        -4.255184072924733E-135
   38.7956250000000         5.317737635294161E-134
   39.0093750000000         1.785427718249452E-133
   39.2231250000000         3.955182940715885E-133
   39.4368750000000         6.923034935488229E-133
   39.6506250000000         9.616659815056483E-133
   39.8643750000000         9.093388262189794E-133
   40.0781250000000        -4.705471737071555E-134
   40.2918750000000        -2.812416182867937E-132
   40.5056250000000        -8.414243554351143E-132
   40.7193750000000        -1.728149746226011E-131
   40.9331250000000        -2.762426033821464E-131
   41.1468750000000        -3.261417790317253E-131
   41.3606250000000        -1.657962205767296E-131
   41.5743750000000         4.822200966054188E-131
   41.7881250000000         2.000790117933879E-130
   42.0018750000000         4.733516186794926E-130
   42.2156250000000         8.582602774367178E-130
   42.4293750000000         1.219926240685854E-129
   42.6431250000000         1.168361445289163E-129
   42.8568750000000        -1.018863131932846E-130
   43.0706250000000        -3.920793448258101E-129
   43.2843750000000        -1.200544767752001E-128
   43.4981250000000        -2.571704650618697E-128
   43.7118750000000        -4.418115300080871E-128
   43.9256250000000        -6.068663851289955E-128
   44.1393750000000        -5.710571251482921E-128
   44.3531250000000         2.784918792534699E-129
   44.5668750000000         1.776946288875072E-127
   44.7806250000000         5.431807662511561E-127
   44.9943750000000         1.162161251888688E-126
   45.2081250000000         2.011611435711916E-126
   45.4218750000000         2.843869404943105E-126
   45.6356250000000         2.973012054610264E-126
   45.8493750000000         1.016925064532817E-126
   46.0631250000000        -5.287865098436031E-126
   46.2768750000000        -1.893413257411008E-125
   46.4906250000000        -4.268720294415946E-125
   46.7043750000000        -7.665203798515745E-125
   46.9181250000000        -1.136331474598052E-124
   47.1318750000000        -1.319222508544753E-124
   47.3456250000000        -8.637728394763994E-125
   47.5593750000000         9.871400128390874E-125
   47.7731250000000         5.270362726857077E-124
   47.9868750000000         1.303842124650304E-123
   48.2006250000000         2.465438852241225E-123
   48.4143750000000         3.842021683374859E-123
   48.6281250000000         4.840855824333632E-123
   48.8418750000000         4.170162695407325E-123
   49.0556250000000        -4.040828698389942E-124
   49.2693750000000        -1.205416607963512E-122
   49.4831250000000        -3.425638004653970E-122
   49.6968750000000        -6.896735782229446E-122
   49.9106250000000        -1.129723477204043E-121
   50.1243750000000        -1.519814326871533E-121
   50.3381250000000        -1.528623203741783E-121
   50.5518750000000        -5.618264183797128E-122
   50.7656250000000         2.256996981834126E-121
   50.9793750000000         7.954557608440871E-121
   51.1931250000000         1.728311995645389E-120
   51.4068750000000         2.983452016165297E-120
   51.6206250000000         4.256447434496616E-120
   51.8343750000000         4.777588128806141E-120
   52.0481250000000         3.101347783908750E-120
   52.2618750000000        -2.996890812726958E-120
   52.4756250000000        -1.629868249486998E-119
   52.6893750000000        -3.926069312459136E-119
   52.9031250000000        -7.205827206600683E-119
   53.1168750000000        -1.091915386988355E-118
   53.3306250000000        -1.346300806046637E-118
   53.5443750000000        -1.162976338385614E-118
   53.7581250000000        -2.200575732425224E-120
   53.9718750000000         2.772545986963105E-118
   54.1856250000000         7.935056691405737E-118
   54.3993750000000         1.581134897607196E-117
   54.6131250000000         2.566783603019798E-117
   54.8268750000000         3.461695099483813E-117
   55.0406250000000         3.628882031721222E-117
   55.2543750000000         1.964746465996911E-117
   55.4681250000000        -3.119936273536973E-117
   55.6818750000000        -1.347672555096596E-116
   55.8956250000000        -3.055451003956961E-116
   56.1093750000000        -5.407078294215971E-116
   56.3231250000000        -7.986387611671348E-116
   56.5368750000000        -9.700532950056912E-116
   56.7506250000000        -8.474342768282499E-116
   56.9643750000000        -1.066606200207128E-116
   57.1781250000000         1.674017255931255E-115
   57.3918750000000         4.920051287421543E-115
   57.6056250000000         9.845358749003625E-115
   57.8193750000000         1.607329124059448E-114
   58.0331250000000         2.208127051233809E-114
   58.2468750000000         2.452920928713132E-114
   58.4606250000000         1.766271204061078E-114
   58.6743750000000        -6.823357027084318E-115
   58.8881250000000        -5.883586825215657E-114
   59.1018750000000        -1.470018169615294E-113
   59.3156250000000        -2.729283463934844E-113
   59.5293750000000        -4.219469541317081E-113
   59.7431250000000        -5.505730202295499E-113
   59.9568750000000        -5.727161662303148E-113
   60.1706250000000        -3.496040947567935E-113
   60.3843750000000         3.076408437124680E-113
   60.5981250000000         1.609434881687927E-112
   60.8118750000000         3.716523734911508E-112
   61.0256250000000         6.609911539226237E-112
   61.2393750000000         9.893782591730262E-112
   61.4531250000000         1.254373006759091E-111
   61.6668750000000         1.264989820842130E-111
   61.8806250000000         7.260727039547485E-112
   62.0943750000000        -7.496061439826714E-112
   62.3081250000000        -3.576695609630694E-111
   62.5218750000000        -8.050898929503104E-111
   62.7356250000000        -1.409489971561291E-110
   62.9493750000000        -2.088762315708639E-110
   63.1631250000000        -2.640591434743433E-110
   63.3768750000000        -2.697267382098200E-110
   63.5906250000000        -1.699858918484980E-110
   63.8043750000000         1.078252615821840E-110
   64.0181250000000         6.417591048475428E-110
   64.2318750000000         1.490164558475250E-109
   64.4456250000000         2.648754149580412E-109
   64.6593750000000         3.988336711684109E-109
   64.8731250000000         5.177378534913074E-109
   65.0868750000000         5.603035249908827E-109
   65.3006250000000         4.317793306713668E-109
   65.5143750000000         5.541229471736483E-111
   65.7281250000000        -8.623303874667542E-109
   65.9418750000000        -2.298246491158618E-108
   66.1556250000000        -4.348940590834228E-108
   66.3693750000000        -6.887289816743125E-108
   66.5831250000000        -9.487650710556275E-108
   66.7968750000000        -1.128340465202408E-107
   67.0106250000000        -1.083662309891212E-107
   67.2243750000000        -6.073329270465350E-108
   67.4381250000000         5.633340153015594E-108
   67.6518750000000         2.711907574373901E-107
   67.8656250000000         6.068480119409024E-107
   68.0793750000000         1.068063781430437E-106
   68.2931250000000         1.621781765934658E-106
   68.5068750000000         2.170633282240173E-106
   68.7206250000000         2.521187932558263E-106
   68.9343750000000         2.352090621833701E-106
   69.1481250000000         1.192669230041199E-106
   69.3618750000000        -1.569655565883659E-106
   69.5756250000000        -6.624999481530236E-106
   69.7893750000000        -1.458096342948215E-105
   70.0031250000000        -2.566021024645248E-105
   70.2168750000000        -3.920991497959426E-105
   70.4306250000000        -5.299743851407260E-105
   70.6443750000000        -6.232032892181314E-105
   70.8581250000000        -5.906358585066622E-105
   71.0718750000000        -3.100923162283345E-105
   71.2856250000000         3.805097584330006E-105
   71.4993750000000         1.665470226371649E-104
   71.7131250000000         3.705575956600041E-104
   71.9268750000000         6.551233179033717E-104
   72.1406250000000         1.000331074626359E-103
   72.3543750000000         1.341917349637918E-103
   72.5681250000000         1.548054046223791E-103
   72.7818750000000         1.397315258476331E-103
   72.9956250000000         5.677587160705300E-104
   73.2093750000000        -1.346687557987586E-103
   73.4231250000000        -4.769875344710335E-103
   73.6368750000000        -1.000015224705899E-102
   73.8506250000000        -1.696498596505891E-102
   74.0643750000000        -2.486192206082205E-102
   74.2781250000000        -3.170643623818165E-102
   74.4918750000000        -3.386433132159435E-102
   74.7056250000000        -2.573149486847518E-102
   74.9193750000000         1.675658394381719E-104
   75.1331250000000         5.227725954192748E-102
   75.3468750000000         1.378388467852503E-101
   75.5606250000000         2.589991145139570E-101
   75.7743750000000         4.069510787587541E-101
   75.9881250000000         5.543481815215215E-101
   76.2018750000000         6.471090321799231E-101
   76.4156250000000         5.980352154337657E-101
   76.6293750000000         2.863275318408470E-101
   76.8431250000000        -4.311661982884905E-101
   77.0568750000000        -1.689864665090359E-100
   77.2706250000000        -3.561526848516454E-100
   77.4843750000000        -5.968215636540098E-100
   77.6981250000000        -8.568679809054235E-100
   77.9118750000000        -1.063185540553979E-099
   78.1256250000000        -1.093030941886818E-099
   78.3393750000000        -7.709506322353385E-100
   78.5531250000000         1.186895144605498E-100
   78.7668750000000         1.793729918364086E-099
   78.9806250000000         4.400929472942707E-099
   79.1943750000000         7.900863968331762E-099
   79.4081250000000         1.191311237330287E-098
   79.6218750000000         1.553930999941813E-098
   79.8356250000000         1.720471718901965E-098
   80.0493750000000         1.458836339093650E-098
   80.2631250000000         4.743101365418627E-099
   80.4768750000000        -1.546889741103214E-098
   80.6906250000000        -4.849674158734574E-098
   80.9043750000000        -9.468647929293106E-098
   81.1181250000000        -1.503403629300487E-097
   81.3318750000000        -2.054394745523719E-097
   81.5456250000000        -2.414911508708014E-097
   81.7593750000000        -2.303112961600973E-097
   81.9731250000000        -1.349274411702474E-097
   82.1868750000000         8.590843691666555E-098
   82.4006250000000         4.680357690498897E-097
   82.6143750000000         1.025838999559583E-096
   82.8281250000000         1.729704845895372E-096
   83.0418750000000         2.478812283602413E-096
   83.2556250000000         3.074062710495485E-096
   83.4693750000000         3.199825644033817E-096
   83.6831250000000         2.427425831194948E-096
   83.8968750000000         2.569006747598577E-097
   84.1106250000000        -3.785130351949563E-096
   84.3243750000000        -9.976843497630827E-096
   84.5381250000000        -1.815747614096438E-095
   84.7518750000000        -2.742386465251937E-095
   84.9656250000000        -3.581316946559809E-095
   85.1793750000000        -4.005805501881172E-095
   85.3931250000000        -3.554605946050641E-095
   85.6068750000000        -1.665558244391034E-095
   85.8206250000000         2.233917747618341E-095
   86.0343750000000         8.562484975366256E-095
   86.2481250000000         1.733889748405842E-094
   86.4618750000000         2.786501028204865E-094
   86.6756250000000         3.837779846016960E-094
   86.8893750000000         4.575011437990318E-094
   87.1031250000000         4.536602351499370E-094
   87.3168750000000         3.134022353879976E-094
   87.5306250000000        -2.722424026979502E-095
   87.7443750000000        -6.224238342471539E-094
   87.9581250000000        -1.493446384532675E-093
   88.1718750000000        -2.597508923298275E-093
   88.3856250000000        -3.791992470589320E-093
   88.5993750000000        -4.800755325461020E-093
   88.8131250000000        -5.193844425627256E-093
   89.0268750000000        -4.396333255357016E-093
   89.2406250000000        -1.745198028825560E-093
   89.4543750000000         3.386762856317724E-093
   89.6681250000000         1.138621680028656E-092
   89.8818750000000         2.211300592213053E-092
   90.0956250000000         3.455401936306705E-092
   90.3093750000000         4.647154625633894E-092
   90.5231250000000         5.414103603899124E-092
   90.7368750000000         5.231614130296143E-092
   90.9506250000000         3.459383063720804E-092
   91.1643750000000        -5.636203292119908E-093
   91.3781250000000        -7.350538957918346E-092
   91.5918750000000        -1.701874607839781E-091
   91.8056250000000        -2.897509769548218E-091
   92.0193750000000        -4.157390542062873E-091
   92.2331250000000        -5.182250466728305E-091
   92.4468750000000        -5.524860883563594E-091
   92.6606250000000        -4.607898532868252E-091
   92.8743750000000        -1.789794416651352E-091
   93.0881250000000         3.505977813907272E-091
   93.3018750000000         1.158927261875110E-090
   93.5156250000000         2.223388305993306E-090
   93.7293750000000         3.436645611185541E-090
   93.9431250000000         4.576890737982220E-090
   94.1568750000000         5.288363784367252E-090
   94.3706250000000         5.084412943992695E-090
   94.5843750000000         3.387642864863380E-090
   94.7981250000000        -3.783508365004122E-091
   95.0118750000000        -6.635128153623322E-090
   95.2256250000000        -1.543234007570442E-089
   95.4393750000000        -2.618242424347764E-089
   95.6531250000000        -3.738486601066751E-089
   95.8668750000000        -4.640587752243185E-089
   96.0806250000000        -4.940863844777166E-089
   96.2943750000000        -4.155285466836955E-089
   96.5081250000000        -1.759034497861331E-089
   96.7218750000000         2.703674544682219E-089
   96.9356250000000         9.454982669958723E-089
   97.1493750000000         1.827079945967104E-088
   97.3631250000000         2.824404410785635E-088
   97.5768750000000         3.756938672576001E-088
   97.7906250000000         4.341937863832890E-088
   98.0043750000000         4.200363878618392E-088
   98.2181250000000         2.891486717744631E-088
   98.4318750000000        -1.414898181192371E-090
   98.6456250000000        -4.817353869337190E-088
   98.8593750000000        -1.153002403994791E-087
   99.0731250000000        -1.968546098271127E-087
   99.2868750000000        -2.814894581104222E-087
   99.5006250000000        -3.497710096669994E-087
   99.7143750000000        -3.739300044089854E-087
   99.9281250000000        -3.195697718485543E-087
   100.141875000000        -1.501387293495281E-087
   100.355625000000         1.652178663536497E-087
   100.569375000000         6.402819751506225E-087
   100.783125000000         1.257518687696926E-086
   100.996875000000         1.952755200457852E-086
   101.210625000000         2.601963433404152E-086
   101.424375000000         3.014776607300861E-086
   101.638125000000         2.940551420110101E-086
   101.851875000000         2.093237160877349E-086
   102.065625000000         2.004683497522039E-087
   102.279375000000        -2.920422869076940E-086
   102.493125000000        -7.261838525312965E-086
   102.706875000000        -1.251071416728459E-085
   102.920625000000        -1.793829790317773E-085
   103.134375000000        -2.232521355158740E-085
   103.348125000000        -2.396175281145381E-085
   103.561875000000        -2.076890125272199E-085
   103.775625000000        -1.058325247529114E-085
   103.989375000000         8.365451208941724E-086
   104.203125000000         3.678553658044618E-085
   104.416875000000         7.351251230609680E-085
   104.630625000000         1.146692992346580E-084
   104.844375000000         1.529851376763138E-084
   105.058125000000         1.775331303849063E-084
   105.271875000000         1.741979704326769E-084
   105.485625000000         1.271913646378003E-084
   105.699375000000         2.186484935876387E-085
   105.913125000000        -1.510984051840863E-084
   106.126875000000        -3.903170419392790E-084
   106.340625000000        -6.777769204398721E-084
   106.554375000000        -9.734242000464095E-084
   106.768125000000        -1.211889033602051E-083
   106.981875000000        -1.303356220096591E-083
   107.195625000000        -1.140765439800539E-083
   107.409375000000        -6.152616373177113E-084
   107.623125000000         3.590553544078830E-084
   107.836875000000         1.811651024619880E-083
   108.050625000000         3.676315933334724E-083
   108.264375000000         5.752186366001316E-083
   108.478125000000         7.674389119512803E-083
   108.691875000000         8.906673508689375E-083
   108.905625000000         8.770147750708028E-083
   109.119375000000         6.521634224516938E-083
   109.333125000000         1.491030191102989E-083
   109.546875000000        -6.721573032181893E-083
   109.760625000000        -1.800185507747123E-082
   109.974375000000        -3.146125254274851E-082
   110.188125000000        -4.521271822550451E-082
   110.401875000000        -5.625415286185511E-082
   110.615625000000        -6.054580618251465E-082
   110.829375000000        -5.337009462205254E-082
   111.043125000000        -3.004503026951445E-082
   111.256875000000         1.298069589814017E-082
   111.470625000000         7.669594562329798E-082
   111.684375000000         1.579056671909614E-081
   111.898125000000         2.476896960708006E-081
   112.111875000000         3.303385190965167E-081
   112.325625000000         3.832659482426958E-081
   112.539375000000         3.784421345223479E-081
   112.753125000000         2.858323520507846E-081
   112.966875000000         7.912709907090985E-082
   113.180625000000        -2.563217807730657E-081
   113.394375000000        -7.139912005751763E-081
   113.608125000000        -1.256425978537202E-080
   113.821875000000        -1.807301831968345E-080
   114.035625000000        -2.248061357363910E-080
   114.249375000000        -2.422275340577993E-080
   114.463125000000        -2.150781806984092E-080
   114.676875000000        -1.259814601068335E-080
   114.890625000000         3.774400358610828E-081
   115.104375000000         2.788206105379717E-080
   115.318125000000         5.842436937549905E-080
   115.531875000000         9.200355463499495E-080
   115.745625000000         1.227957121200985E-079
   115.959375000000         1.425909827157541E-079
   116.173125000000         1.413821293808299E-079
   116.386875000000         1.086502330455857E-079
   116.600625000000         3.541703873040545E-080
   116.814375000000        -8.300101150091656E-080
   117.028125000000        -2.437896761434192E-079
   117.241875000000        -4.334631563173662E-079
   117.455625000000        -6.254310981069796E-079
   117.669375000000        -7.792101151391941E-079
   117.883125000000        -8.422727455408997E-079
   118.096875000000        -7.554421346362728E-079
   118.310625000000        -4.624153236964654E-079
   118.524375000000         7.661509893714779E-080
   118.738125000000         8.681787929655174E-079
   118.951875000000         1.867670239802999E-078
   119.165625000000         2.963755491601902E-078
   119.379375000000         3.969521782635403E-078
   119.593125000000         4.625569965765639E-078
   119.806875000000         4.620194568812289E-078
   120.020625000000         3.630602591200726E-078
   120.234375000000         1.386501205791127E-078
   120.448125000000        -2.246781634312413E-078
   120.661875000000        -7.174031408466824E-078
   120.875625000000        -1.297952677492928E-077
   121.089375000000        -1.886113906761891E-077
   121.303125000000        -2.361498589418109E-077
   121.516875000000        -2.569797116326372E-077
   121.730625000000        -2.339192216883529E-077
   121.944375000000        -1.508265920604414E-077
   122.158125000000         3.507516743388324E-079
   122.371875000000         2.306686624731074E-077
   122.585625000000         5.177423576312322E-077
   122.799375000000         8.331926770341861E-077
   123.013125000000         1.124714699021239E-076
   123.226875000000         1.320431494819638E-076
   123.440625000000         1.334739960669923E-076
   123.654375000000         1.079738779033499E-076
   123.868125000000         4.824343560560527E-077