  -1.60312500000000         0.000000000000000E+000
  -1.38937500000000         0.000000000000000E+000
  -1.17562500000000         0.000000000000000E+000
 -0.961875000000000         0.000000000000000E+000
 -0.748125000000000         0.000000000000000E+000
 -0.534375000000000         0.000000000000000E+000
 -0.320625000000000         0.000000000000000E+000
 -0.106875000000000         0.000000000000000E+000
  0.106875000000000         0.000000000000000E+000
  0.320625000000000         0.000000000000000E+000
  0.534375000000000         0.000000000000000E+000
  0.748125000000000         0.000000000000000E+000
  0.961875000000000         0.000000000000000E+000
   1.17562500000000         0.000000000000000E+000
   1.38937500000000         0.000000000000000E+000
   1.60312500000000         0.000000000000000E+000
   1.81687500000000         0.000000000000000E+000
   2.03062500000000         0.000000000000000E+000
   2.24437500000000         0.000000000000000E+000
   2.45812500000000         0.000000000000000E+000
   2.67187500000000         0.000000000000000E+000
   2.88562500000000         0.000000000000000E+000
   3.09937500000000         0.000000000000000E+000
   3.31312500000000         0.000000000000000E+000
   3.52687500000000         0.000000000000000E+000
   3.74062500000000         0.000000000000000E+000
   3.95437500000000         0.000000000000000E+000
   4.16812500000000         0.000000000000000E+000
   4.38187500000000         0.000000000000000E+000
   4.59562500000000         0.000000000000000E+000
   4.80937500000000         0.000000000000000E+000
   5.02312500000000         0.000000000000000E+000
   5.23687500000000         0.000000000000000E+000
   5.45062500000000         0.000000000000000E+000
   5.66437500000000         0.000000000000000E+000
   5.87812500000000         0.000000000000000E+000
   6.09187500000000         0.000000000000000E+000
   6.30562500000000         0.000000000000000E+000
   6.51937500000000         0.000000000000000E+000
   6.73312500000000         0.000000000000000E+000
   6.94687500000000         0.000000000000000E+000
   7.16062500000000         0.000000000000000E+000
   7.37437500000000         0.000000000000000E+000
   7.58812500000000         0.000000000000000E+000
   7.80187500000000         0.000000000000000E+000
   8.01562500000000         0.000000000000000E+000
   8.22937500000000         0.000000000000000E+000
   8.44312500000000         0.000000000000000E+000
   8.65687500000000         0.000000000000000E+000
   8.87062500000000         0.000000000000000E+000
   9.08437500000000         0.000000000000000E+000
   9.29812500000000         0.000000000000000E+000
   9.51187500000000         0.000000000000000E+000
   9.72562500000000         0.000000000000000E+000
   9.93937500000000         0.000000000000000E+000
   10.1531250000000         0.000000000000000E+000
   10.3668750000000        -3.141271980639279E-221
   10.5806250000000         2.999948517413025E-208
   10.7943750000000         1.414108125365152E-205
   11.0081250000000        -1.972597969014334E-203
   11.2218750000000         4.046641612028727E-201
   11.4356250000000         3.527266066927206E-199
   11.6493750000000         1.624236366166168E-197
   11.8631250000000         5.946327148822829E-196
   12.0768750000000         1.837971676183870E-194
   12.2906250000000         4.689858094646803E-193
   12.5043750000000         9.777503610826845E-192
   12.7181250000000         1.676635388694964E-190
   12.9318750000000         2.391598340545673E-189
   13.1456250000000         2.859990957071836E-188
   13.3593750000000         2.862674822135644E-187
   13.5731250000000         2.346787573061551E-186
   13.7868750000000         1.454476192464370E-185
   14.0006250000000         4.461262472728564E-185
   14.2143750000000        -4.223933276770929E-184
   14.4281250000000        -9.938415586468502E-183
   14.6418750000000        -1.236789592057363E-181
   14.8556250000000        -1.214968645560042E-180
   15.0693750000000        -1.032993699453622E-179
   15.2831250000000        -7.898553929220174E-179
   15.4968750000000        -5.545089863647908E-178
   15.7106250000000        -3.620813566513167E-177
   15.9243750000000        -2.218531955346174E-176
   16.1381250000000        -1.283466651124453E-175
   16.3518750000000        -7.041198792614180E-175
   16.5656250000000        -3.673432183649389E-174
   16.7793750000000        -1.825077906222922E-173
   16.9931250000000        -8.635754975815758E-173
   17.2068750000000        -3.885989004025828E-172
   17.4206250000000        -1.657481469270318E-171
   17.6343750000000        -6.661092998530229E-171
   17.8481250000000        -2.496041939220500E-170
   18.0618750000000        -8.554049258641226E-170
   18.2756250000000        -2.573402519989746E-169
   18.4893750000000        -6.062751774407656E-169
   18.7031250000000        -5.565546098108937E-169
   18.9168750000000         5.201377455853079E-168
   19.1306250000000         4.734498634061146E-167
   19.3443750000000         2.729332491164661E-166
   19.5581250000000         1.309926056360903E-165
   19.7718750000000         5.614488708844453E-165
   19.9856250000000         2.209748443603285E-164
   20.1993750000000         8.089439844965430E-164
   20.4131250000000         2.769817566113138E-163
   20.6268750000000         8.877313357122728E-163
   20.8406250000000         2.653317866171557E-162
   21.0543750000000         7.322326995563880E-162
   21.2681250000000         1.825621778227909E-161
   21.4818750000000         3.904760111400013E-161
   21.6956250000000         6.053817828408153E-161
   21.9093750000000         3.007359293990507E-163
   22.1231250000000        -5.232692482908000E-160
   22.3368750000000        -2.933680781026994E-159
   22.5506250000000        -1.192367104949995E-158
   22.7643750000000        -4.164462266786898E-158
   22.9781250000000        -1.317598166930885E-157
   23.1918750000000        -3.863923200747861E-157
   23.4056250000000        -1.062362025769704E-156
   23.6193750000000        -2.754701094250209E-156
   23.8331250000000        -6.753954202032973E-156
   24.0468750000000        -1.565995552621899E-155
   24.2606250000000        -3.426413498644284E-155
   24.4743750000000        -7.039597669371790E-155
   24.6881250000000        -1.345412585411980E-154
   24.9018750000000        -2.350064553494886E-154
   25.1156250000000        -3.613556644588608E-154
   25.3293750000000        -4.415896704369123E-154
   25.5431250000000        -2.462178433039522E-154
   25.7568750000000         8.095825700002181E-154
   25.9706250000000         4.061333090398634E-153
   26.1843750000000         1.240425489075605E-152
   26.3981250000000         3.206203715463023E-152
   26.6118750000000         7.672147282777022E-152
   26.8256250000000         1.774531542343411E-151
   27.0393750000000         4.059215319624833E-151
   27.2531250000000         9.251201486142413E-151
   27.4668750000000         2.089165995655194E-150
   27.6806250000000         4.610890150038161E-150
   27.8943750000000         9.772313426144355E-150
   28.1081250000000         1.950152437840389E-149
   28.3218750000000         3.576772289013246E-149
   28.5356250000000         5.803426297857217E-149
   28.7493750000000         7.649973079171253E-149
   28.9631250000000         5.819309883550075E-149
   29.1768750000000        -7.526848714522392E-149
   29.3906250000000        -4.708480232517541E-148
   29.6043750000000        -1.338570051557918E-147
   29.8181250000000        -2.847547385479596E-147
   30.0318750000000        -4.809837159307358E-147
   30.2456250000000        -6.060054401808644E-147
   30.4593750000000        -3.709368052111269E-147
   30.6731250000000         6.686118514998094E-147
   30.8868750000000         2.716679711343969E-146
   31.1006250000000         4.416056989718494E-146
   31.3143750000000        -6.845191490278240E-151
   31.5281250000000        -2.457679483331071E-145
   31.7418750000000        -9.133564160229119E-145
   31.9556250000000        -2.075784302875593E-144
   32.1693750000000        -2.739040692223546E-144
   32.3831250000000         1.746885470596210E-144
   32.5968750000000         2.557701067012910E-143
   32.8106250000000         1.035727648616150E-142
   33.0243750000000         3.075440386858408E-142
   33.2381250000000         7.602775099121755E-142
   33.4518750000000         1.618549259999679E-141
   33.6656250000000         2.951650547680480E-141
   33.8793750000000         4.362973918363143E-141
   34.0931250000000         4.094677260807604E-141
   34.3068750000000        -2.724015930353443E-141
   34.5206250000000        -2.689959513977183E-140
   34.7343750000000        -8.855443594518374E-140
   34.9481250000000        -2.184865778363259E-139
   35.1618750000000        -4.504642358329281E-139
   35.3756250000000        -7.895062941431698E-139
   35.5893750000000        -1.130090148169223E-138
   35.8031250000000        -1.088216709507518E-138
   36.0168750000000         2.841951162273631E-139
   36.2306250000000         4.885183864370169E-138
   36.4443750000000         1.588524829919380E-137
   36.6581250000000         3.750513537970686E-137
   36.8718750000000         7.321081319508947E-137
   37.0856250000000         1.205132929332548E-136
   37.2993750000000         1.598543879893713E-136
   37.5131250000000         1.352600192300149E-136
   37.7268750000000        -7.268719525309467E-137
   37.9406250000000        -6.725291547671792E-136
   38.1543750000000        -1.959416645688964E-135
   38.3681250000000        -4.227735948665759E-135
   38.5818750000000        -7.503723323595872E-135
   38.7956250000000        -1.097412606958285E-134
   39.0093750000000        -1.201490434379426E-134
   39.2231250000000        -4.898230757172505E-135
   39.4368750000000         2.028930288717943E-134
   39.6506250000000         7.710753411725189E-134
   39.8643750000000         1.778633824804597E-133
   40.0781250000000         3.201660693084632E-133
   40.2918750000000         4.603188702135962E-133
   40.5056250000000         4.719750123636645E-133
   40.7193750000000         9.919225486876155E-134
   40.9331250000000        -1.063165920272935E-132
   41.1468750000000        -3.487650652523592E-132
   41.3606250000000        -7.402246597378415E-132
   41.5743750000000        -1.207434993065264E-131
   41.7881250000000        -1.454323485067076E-131
   42.0018750000000        -7.870697295922552E-132
   42.2156250000000         2.042883194914916E-131
   42.4293750000000         8.794146865129439E-131
   42.6431250000000         2.111913916095257E-130
   42.8568750000000         3.878226536641639E-130
   43.0706250000000         5.597988255874195E-130
   43.2843750000000         5.526376206036201E-130
   43.4981250000000        -3.041233658870299E-132
   43.7118750000000        -1.733707833057943E-129
   43.9256250000000        -5.482969893233027E-129
   44.1393750000000        -1.200494757333888E-128
   44.3531250000000        -2.113603172164181E-128
   44.5668750000000        -3.013987554117519E-128
   44.7806250000000        -3.102501835555294E-128
   44.9943750000000        -7.092741191883750E-129
   45.2081250000000         6.993759404440595E-128
   45.4218750000000         2.388765698926521E-127
   45.6356250000000         5.377492727251816E-127
   45.8493750000000         9.724561091340525E-127
   46.0631250000000         1.453625298374180E-126
   46.2768750000000         1.693196888640296E-126
   46.4906250000000         1.067685712344610E-126
   46.7043750000000        -1.508163747216961E-126
   46.9181250000000        -7.586172961034766E-126
   47.1318750000000        -1.885597415121532E-125
   47.3456250000000        -3.615317930582669E-125
   47.5593750000000        -5.739688158530202E-125
   47.7731250000000        -7.413043369049176E-125
   47.9868750000000        -6.678419259317718E-125
   48.2006250000000         1.333728274179067E-127
   48.4143750000000         1.796945280579905E-124
   48.6281250000000         5.347940521066323E-124
   48.8418750000000         1.111067740466742E-123
   49.0556250000000         1.877872252852486E-123
   49.2693750000000         2.626214597742976E-123
   49.4831250000000         2.823813395235639E-123
   49.6968750000000         1.456270303758195E-123
   49.9106250000000        -3.062326709721923E-123
   50.1243750000000        -1.274252437897133E-122
   50.3381250000000        -2.936661122510362E-122
   50.5518750000000        -5.297483418070677E-122
   50.7656250000000        -7.914998937066009E-122
   50.9793750000000        -9.501313694408036E-122
   51.1931250000000        -7.453265654431010E-122
   51.4068750000000         2.491277864400205E-122
   51.6206250000000         2.606693394646414E-121
   51.8343750000000         6.908989931479613E-121
   52.0481250000000         1.339412169447563E-120
   52.2618750000000         2.129623018480408E-120
   52.4756250000000         2.782908735864896E-120
   52.6893750000000         2.691522930073612E-120
   52.9031250000000         8.063528623195545E-121
   53.1168750000000        -4.371092101500292E-120
   53.3306250000000        -1.453739610140240E-119
   53.5443750000000        -3.085482226843103E-119
   53.7581250000000        -5.248577829651179E-119
   53.9718750000000        -7.421727656676732E-119
   54.1856250000000        -8.328127214877471E-119
   54.3993750000000        -5.609073761931411E-119
   54.6131250000000         4.334036806785273E-119
   54.8268750000000         2.600454102173663E-118
   55.0406250000000         6.349120561231396E-118
   55.2543750000000         1.175578919981350E-117
   55.4681250000000         1.806013207921149E-117
   55.6818750000000         2.293900532463298E-117
   55.8956250000000         2.166048901012019E-117
   56.1093750000000         6.421903507059655E-118
   56.3231250000000        -3.352111580868356E-117
   56.5368750000000        -1.099531913983146E-116
   56.7506250000000        -2.307060926117915E-116
   56.9643750000000        -3.901774714639167E-116
   57.1781250000000        -5.545220740504569E-116
   57.3918750000000        -6.423823976046755E-116
   57.6056250000000        -5.054501903846858E-116
   57.8193750000000         8.130722805345213E-117
   58.0331250000000         1.402438254563813E-115
   58.2468750000000         3.732441829591796E-115
   58.4606250000000         7.183161980815102E-115
   58.6743750000000         1.144087488638138E-114
   58.8881250000000         1.538683500627738E-114
   59.1018750000000         1.664463946435884E-114
   59.3156250000000         1.118606871967142E-114
   59.5293750000000        -6.742342301409547E-115
   59.7431250000000        -4.394911408149876E-114
   59.9568750000000        -1.063110509936696E-113
   60.1706250000000        -1.948398526194977E-113
   60.3843750000000        -2.993417375809249E-113
   60.5981250000000        -3.897878008064203E-113
   60.8118750000000        -4.067002931327960E-113
   61.0256250000000        -2.538083002520665E-113
   61.2393750000000         2.010843540638417E-113
   61.4531250000000         1.108014659574726E-112
   61.6668750000000         2.588056232126900E-112
   61.8806250000000         4.646059794542274E-112
   62.0943750000000         7.035799168462973E-112
   62.3081250000000         9.083050522755588E-112
   62.5218750000000         9.496143184529280E-112
   62.7356250000000         6.230855602590468E-112
   62.9493750000000        -3.474259519727044E-112
   63.1631250000000        -2.272273384105023E-111
   63.3768750000000        -5.403582287226915E-111
   63.5906250000000        -9.767247370347770E-111
   63.8043750000000        -1.490756205714705E-110
   64.0181250000000        -1.955523323239560E-110
   64.2318750000000        -2.127076722251181E-110
   64.4456250000000        -1.617787904788197E-110
   64.6593750000000         1.016918515479251E-111
   64.8731250000000         3.643405260795844E-110
   65.0868750000000         9.550614384721779E-110
   65.3006250000000         1.801779778587559E-109
   65.5143750000000         2.845774046955463E-109
   65.7281250000000         3.892300051119977E-109
   65.9418750000000         4.544835385598313E-109
   66.1556250000000         4.147323444327131E-109
   66.3693750000000         1.762821318421832E-109
   66.5831250000000        -3.768418956411371E-109
   66.7968750000000        -1.363447789417233E-108
   67.0106250000000        -2.865581863552446E-108
   67.2243750000000        -4.862831087742799E-108
   67.4381250000000        -7.137565032554524E-108
   67.6518750000000        -9.154916947031359E-108
   67.8656250000000        -9.933223714910267E-108
   68.0793750000000        -7.938898808232316E-108
   68.2931250000000        -1.064690615178207E-108
   68.5068750000000         1.321928642439080E-107
   68.7206250000000         3.742068343364494E-107
   68.9343750000000         7.314115174538910E-107
   69.1481250000000         1.196081015997956E-106
   69.3618750000000         1.715242453535202E-106
   69.5756250000000         2.162687799819315E-106
   69.7893750000000         2.307443130729326E-106
   70.0031250000000         1.786007912199513E-106
   70.2168750000000         9.218174395639188E-108
   70.4306250000000        -3.393108680409097E-106
   70.6443750000000        -9.299802385383955E-106
   70.8581250000000        -1.805385349348809E-105
   71.0718750000000        -2.950646446699744E-105
   71.2856250000000        -4.237585816219939E-105
   71.4993750000000        -5.350673844391082E-105
   71.7131250000000        -5.702824139916390E-105
   71.9268750000000        -4.361931520645735E-105
   72.1406250000000        -2.784187968562698E-107
   72.3543750000000         8.876666660204069E-105
   72.5681250000000         2.391226976583788E-104
   72.7818750000000         4.602078667860136E-104
   72.9956250000000         7.451350600903771E-104
   73.2093750000000         1.056002616858207E-103
   73.4231250000000         1.305341281621169E-103
   73.6368750000000         1.336748813642453E-103
   73.8506250000000         9.112587646383423E-104
   74.0643750000000        -2.893455884349673E-104
   74.2781250000000        -2.625867852415305E-103
   74.4918750000000        -6.411027463334187E-103
   74.7056250000000        -1.174341662452610E-102
   74.9193750000000        -1.825145366298221E-102
   75.1331250000000        -2.475183477532736E-102
   75.3468750000000        -2.886371690913266E-102
   75.5606250000000        -2.667787135723874E-102
   75.7743750000000        -1.265859907487199E-102
   75.9881250000000         1.995388647934590E-102
   76.2018750000000         7.789402074586191E-102
   76.4156250000000         1.653999600279609E-101
   76.6293750000000         2.802295676452142E-101
   76.8431250000000         4.081412117602147E-101
   77.0568750000000         5.163532764937251E-101
   77.2706250000000         5.473570089273803E-101
   77.4843750000000         4.156379185837396E-101
   77.6981250000000         1.123665100874091E-102
   77.9118750000000        -7.846595639046246E-101
   78.1256250000000        -2.066315284932660E-100
   78.3393750000000        -3.847366596143702E-100
   78.5531250000000        -5.980658023560895E-100
   78.7668750000000        -8.059721324535259E-100
   78.9806250000000        -9.319246242027057E-100
   79.1943750000000        -8.568027742045141E-100
   79.4081250000000        -4.206978565532148E-100
   79.6218750000000         5.597059968914426E-100
   79.8356250000000         2.250086356106390E-099
   80.0493750000000         4.726534114265280E-099
   80.2631250000000         7.869510519165379E-099
   80.4768750000000         1.122919477879393E-098
   80.6906250000000         1.388211961780374E-098
   80.9043750000000         1.431927379938296E-098
   81.1181250000000         1.043029151064250E-098
   81.3318750000000        -3.276010162816335E-100
   81.5456250000000        -2.047183053599625E-098
   81.7593750000000        -5.164956434104384E-098
   81.9731250000000        -9.335000535080612E-098
   82.1868750000000        -1.412151546531609E-097
   82.4006250000000        -1.851552280119529E-097
   82.6143750000000        -2.077111858663888E-097
   82.8281250000000        -1.833975215550096E-097
   83.0418750000000        -8.005526443296382E-098
   83.2556250000000         1.365416020403603E-097
   83.4693750000000         4.935895118224321E-097
   83.6831250000000         9.968344554438676E-097
   83.8968750000000         1.610986209580884E-096
   84.1106250000000         2.236875514703295E-096
   84.3243750000000         2.689825762604836E-096
   84.5381250000000         2.686943384390403E-096
   84.7518750000000         1.854462943929190E-096
   84.9656250000000        -2.309881626325207E-097
   85.1793750000000        -3.952709407231034E-096
   85.3931250000000        -9.504645631212474E-096
   85.6068750000000        -1.668064798751370E-095
   85.8206250000000        -2.461762829106867E-095
   86.0343750000000        -3.153395251871568E-095
   86.2481250000000        -3.453815763441450E-095
   86.4618750000000        -2.962038304181096E-095
   86.6756250000000        -1.197134648581077E-095
   86.8893750000000         2.321214639478035E-095
   87.1031250000000         7.929843762822690E-095
   87.3168750000000         1.561120396992036E-094
   87.5306250000000         2.472446960904623E-094
   87.7443750000000         3.371335024665192E-094
   87.9581250000000         3.985843473781684E-094
   88.1718750000000         3.918010270865050E-094
   88.3856250000000         2.663399592539592E-094
   88.5993750000000        -3.237368956687141E-095
   88.8131250000000        -5.504293484998983E-094
   89.0268750000000        -1.305786890010685E-093
   89.2406250000000        -2.262008776396307E-093
   89.4543750000000        -3.297967124595818E-093
   89.6681250000000        -4.179187452980349E-093
   89.8818750000000        -4.540182210338038E-093
   90.0956250000000        -3.890854458056635E-093
   90.3093750000000        -1.662785955469851E-093
   90.5231250000000         2.688523928494443E-093
   90.7368750000000         9.513486991858959E-093
   90.9506250000000         1.872872550497331E-092
   91.1643750000000         2.952452370818548E-092
   91.3781250000000         4.006280906692127E-092
   91.5918750000000         4.724270208708690E-092
   91.8056250000000         4.664688957477706E-092
   92.0193750000000         3.281262656694231E-092
   92.2331250000000        -1.636407221437213E-095
   92.4468750000000        -5.652257125787143E-092
   92.6606250000000        -1.382713498648227E-091
   92.8743750000000        -2.410731848779615E-091
   93.0881250000000        -3.520524227875538E-091
   93.3018750000000        -4.470131767508240E-091
   93.5156250000000        -4.890236306133283E-091
   93.7293750000000        -4.294495572015352E-091
   93.9431250000000        -2.128583676699355E-091
   94.1568750000000         2.128466688450051E-091
   94.3706250000000         8.801720888266375E-091
   94.5843750000000         1.779799569582161E-090
   94.7981250000000         2.834205276918107E-090
   95.0118750000000         3.871324489238257E-090
   95.2256250000000         4.605290916652002E-090
   95.4393750000000         4.634168193825634E-090
   95.6531250000000         3.466795053337500E-090
   95.8668750000000         5.913424331338538E-091
   96.0806250000000        -4.404351225559527E-090
   96.2943750000000        -1.165747925433305E-089
   96.5081250000000        -2.080911825710313E-089
   96.7218750000000        -3.076444363099763E-089
   96.9356250000000        -3.948448545237567E-089
   97.1493750000000        -4.388463433231211E-089
   97.3631250000000        -3.993702622786980E-089
   97.5768750000000        -2.308497915846142E-089
   97.7906250000000         1.093216849294614E-089
   98.0043750000000         6.478722318753144E-089
   98.2181250000000         1.378333466594105E-088
   98.4318750000000         2.240904018677850E-088
   98.6456250000000         3.102828117047280E-088
   98.8593750000000         3.744651833395944E-088
   99.0731250000000         3.859679560756928E-088
   99.2868750000000         3.075297030937504E-088
   99.5006250000000         1.004815556648260E-088
   99.7143750000000        -2.663736869777348E-088
   99.9281250000000        -8.040740430409697E-088
   100.141875000000        -1.487782831895198E-087
   100.355625000000        -2.240088598638638E-087
   100.569375000000        -2.916907871162592E-087
   100.783125000000        -3.301188311883745E-087
   100.996875000000        -3.110920253433870E-087
   101.210625000000        -2.028456650974805E-087
   101.424375000000         2.428196507994274E-088
   101.638125000000         3.891519120918730E-087
   101.851875000000         8.883728967216774E-087
   102.065625000000         1.483231924822129E-086
   102.279375000000         2.087250163883682E-086
   102.493125000000         2.557837019953549E-086
   102.706875000000         2.696637281775483E-086
   102.920625000000         2.263834742088717E-086
   103.134375000000         1.011448188360046E-086
   103.348125000000        -1.260956442652950E-086
   103.561875000000        -4.628151095478007E-086
   103.775625000000        -8.944257375695008E-086
   103.989375000000        -1.374390253970887E-085
   104.203125000000        -1.816133808059669E-085
   104.416875000000        -2.089807694156447E-085
   104.630625000000        -2.027609803324697E-085
   104.844375000000        -1.441498634536598E-085
   105.058125000000        -1.564127140620791E-086
   105.271875000000         1.939805435410103E-085
   105.485625000000         4.831917780729458E-085
   105.699375000000         8.305155546888487E-085
   105.913125000000         1.187829175993808E-084
   106.126875000000         1.476107352517707E-084
   106.340625000000         1.586053331801817E-084
   106.554375000000         1.386329390295580E-084
   106.768125000000         7.418570576400130E-085
   106.981875000000        -4.563160130086408E-085
   107.195625000000        -2.249980321654863E-084
   107.409375000000        -4.564849665069954E-084
   107.623125000000        -7.160826282497657E-084
   107.836875000000        -9.592753874640347E-084
   108.050625000000        -1.119695509786257E-083
   108.264375000000        -1.112148203660603E-083
   108.478125000000        -8.417888951470672E-084
   108.691875000000        -2.207939425027913E-084
   108.905625000000         8.071385727470877E-084
   109.119375000000         2.235770916713301E-083
   109.333125000000         3.962370614365606E-083
   109.546875000000         5.757094083608602E-083
   109.760625000000         7.244715182485929E-083
   109.974375000000         7.909848399612726E-083
   110.188125000000         7.137546482985604E-083
   110.401875000000         4.299517857558519E-083
   110.615625000000        -1.108710273858417E-083
   110.829375000000        -9.283219528061151E-083
   111.043125000000        -1.989615837108175E-082
   111.256875000000        -3.188182647990060E-082
   111.470625000000        -4.327441876253582E-082
   111.684375000000        -5.116284519209159E-082
   111.898125000000        -5.183670972425531E-082
   112.111875000000        -4.119386425203423E-082
   112.325625000000        -1.545816153465496E-082
   112.539375000000         2.778860304610660E-082
   112.753125000000         8.832603396369311E-082
   112.966875000000         1.619228770786499E-081
   113.180625000000         2.391349631685012E-081
   113.394375000000         3.046359473965006E-081
   113.608125000000         3.375153430369707E-081
   113.821875000000         3.129898136174309E-081
   114.035625000000         2.058903578407250E-081
   114.249375000000        -3.920913796415434E-083
   114.463125000000        -3.244036748614326E-081
   114.676875000000        -7.431536403296087E-081
   114.890625000000        -1.219463353844409E-080
   115.104375000000        -1.678528185970749E-080
   115.318125000000        -2.010202495085514E-080
   115.531875000000        -2.074941337808254E-080
   115.745625000000        -1.719324564736948E-080
   115.959375000000        -8.026656950869233E-081
   116.173125000000         7.654780066867520E-081
   116.386875000000         2.979583403026810E-080
   116.600625000000         5.690101528192800E-080
   116.814375000000         8.562436782970632E-080
   117.028125000000         1.105554819754561E-079
   117.241875000000         1.243480743710343E-079
   117.455625000000         1.183361415261812E-079
   117.669375000000         8.374884815047469E-080
   117.883125000000         1.356017512354131E-080
   118.096875000000        -9.511115001645678E-080
   118.310625000000        -2.382979180609850E-079
   118.524375000000        -4.026120087308387E-079
   118.738125000000        -5.634256273569094E-079
   118.951875000000        -6.845729708500041E-079
   119.165625000000        -7.203882120273495E-079
   119.379375000000        -6.207922433141775E-079
   119.593125000000        -3.398325457790652E-079
   119.806875000000         1.524651070200362E-079
   120.020625000000         8.558551182357626E-079
   120.234375000000         1.725123958153521E-078
   120.448125000000         2.657740738318996E-078
   120.661875000000         3.487704171970518E-078
   120.875625000000         3.989892836223637E-078
   121.089375000000         3.899059090436588E-078
   121.303125000000         2.946477582967907E-078
   121.516875000000         9.149495090433687E-079
   121.730625000000        -2.290694775482724E-078
   121.944375000000        -6.565094053975868E-078
   122.158125000000        -1.152860589160016E-077
   122.371875000000        -1.647609221405361E-077
   122.585625000000        -2.036967504285454E-077
   122.799375000000        -2.189774157798439E-077
   123.013125000000        -1.961902888355853E-077
   123.226875000000        -1.220160017130765E-077
   123.440625000000         1.248756250321504E-078
   123.654375000000         2.079741442038023E-077
   123.868125000000         4.527929784633247E-077