  -1.60312500000000         0.000000000000000E+000
  -1.38937500000000         0.000000000000000E+000
  -1.17562500000000         0.000000000000000E+000
 -0.961875000000000         0.000000000000000E+000
 -0.748125000000000         0.000000000000000E+000
 -0.534375000000000         0.000000000000000E+000
 -0.320625000000000         0.000000000000000E+000
 -0.106875000000000         0.000000000000000E+000
  0.106875000000000         0.000000000000000E+000
  0.320625000000000         0.000000000000000E+000
  0.534375000000000         0.000000000000000E+000
  0.748125000000000         0.000000000000000E+000
  0.961875000000000         0.000000000000000E+000
   1.17562500000000         0.000000000000000E+000
   1.38937500000000         0.000000000000000E+000
   1.60312500000000         0.000000000000000E+000
   1.81687500000000         0.000000000000000E+000
   2.03062500000000         0.000000000000000E+000
   2.24437500000000         0.000000000000000E+000
   2.45812500000000         0.000000000000000E+000
   2.67187500000000         0.000000000000000E+000
   2.88562500000000         0.000000000000000E+000
   3.09937500000000         0.000000000000000E+000
   3.31312500000000         0.000000000000000E+000
   3.52687500000000         0.000000000000000E+000
   3.74062500000000         0.000000000000000E+000
   3.95437500000000         0.000000000000000E+000
   4.16812500000000         0.000000000000000E+000
   4.38187500000000         0.000000000000000E+000
   4.59562500000000         0.000000000000000E+000
   4.80937500000000         0.000000000000000E+000
   5.02312500000000         0.000000000000000E+000
   5.23687500000000         0.000000000000000E+000
   5.45062500000000         0.000000000000000E+000
   5.66437500000000         0.000000000000000E+000
   5.87812500000000         0.000000000000000E+000
   6.09187500000000         0.000000000000000E+000
   6.30562500000000         0.000000000000000E+000
   6.51937500000000         0.000000000000000E+000
   6.73312500000000         0.000000000000000E+000
   6.94687500000000         0.000000000000000E+000
   7.16062500000000         0.000000000000000E+000
   7.37437500000000         0.000000000000000E+000
   7.58812500000000         0.000000000000000E+000
   7.80187500000000         0.000000000000000E+000
   8.01562500000000         0.000000000000000E+000
   8.22937500000000         0.000000000000000E+000
   8.44312500000000         0.000000000000000E+000
   8.65687500000000         0.000000000000000E+000
   8.87062500000000         0.000000000000000E+000
   9.08437500000000         0.000000000000000E+000
   9.29812500000000        -2.550940752211048E-211
   9.51187500000000         2.485105480717945E-203
   9.72562500000000         1.110743120980401E-198
   9.93937500000000        -3.983280691349849E-197
   10.1531250000000         2.247517580907253E-194
   10.3668750000000         1.413924593894795E-192
   10.5806250000000         5.177621788821158E-191
   10.7943750000000         1.511388300993889E-189
   11.0081250000000         3.528723123203692E-188
   11.2218750000000         6.338351913777006E-187
   11.4356250000000         8.768126646714364E-186
   11.6493750000000         1.007468689971517E-184
   11.8631250000000         1.221136889083162E-183
   12.0768750000000         2.014379872604956E-182
   12.2906250000000         3.868256486097295E-181
   12.5043750000000         6.802408555813789E-180
   12.7181250000000         1.019596537000503E-178
   12.9318750000000         1.305054450418291E-177
   13.1456250000000         1.449956185825008E-176
   13.3593750000000         1.420590977089404E-175
   13.5731250000000         1.242987099991301E-174
   13.7868750000000         9.805927623498775E-174
   14.0006250000000         7.022551162633928E-173
   14.2143750000000         4.585363344272278E-172
   14.4281250000000         2.734791664614406E-171
   14.6418750000000         1.488125336634151E-170
   14.8556250000000         7.347167062181785E-170
   15.0693750000000         3.248031504396134E-169
   15.2831250000000         1.247497724223413E-168
   15.4968750000000         3.841575938030338E-168
   15.7106250000000         6.673603107306674E-168
   15.9243750000000        -2.220095402783268E-167
   16.1381250000000        -3.165278164027273E-166
   16.3518750000000        -2.161507168741248E-165
   16.5656250000000        -1.152316849881934E-164
   16.7793750000000        -5.255447245486867E-164
   16.9931250000000        -2.105302614693951E-163
   17.2068750000000        -7.394118422138536E-163
   17.4206250000000        -2.202992381518846E-162
   17.6343750000000        -4.948070091858020E-162
   17.8481250000000        -3.526817834328926E-162
   18.0618750000000         4.440507911023239E-161
   18.2756250000000         3.559501063743870E-160
   18.4893750000000         1.852191784620412E-159
   18.7031250000000         7.967411034795226E-159
   18.9168750000000         3.018327837793001E-158
   19.1306250000000         1.029527051858105E-157
   19.3443750000000         3.173940416936857E-157
   19.5581250000000         8.738600654577393E-157
   19.7718750000000         2.064390014405122E-156
   19.9856250000000         3.667459846431752E-156
   20.1993750000000         1.587753012815084E-156
   20.4131250000000        -2.601872564324734E-155
   20.6268750000000        -1.682198238125617E-154
   20.8406250000000        -7.414463777257607E-154
   21.0543750000000        -2.771092706024358E-153
   21.2681250000000        -9.355181420015480E-153
   21.4818750000000        -2.933174023700398E-152
   21.6956250000000        -8.670875602240737E-152
   21.9093750000000        -2.439802137855112E-151
   22.1231250000000        -6.578643166369230E-151
   22.3368750000000        -1.708820115094395E-150
   22.5506250000000        -4.295030767164959E-150
   22.7643750000000        -1.048663932658385E-149
   22.9781250000000        -2.495438351272040E-149
   23.1918750000000        -5.801816895004531E-149
   23.4056250000000        -1.319290025447800E-148
   23.6193750000000        -2.930621218565858E-148
   23.8331250000000        -6.330602252198745E-148
   24.0468750000000        -1.317011895048519E-147
   24.2606250000000        -2.590596330041226E-147
   24.4743750000000        -4.643721654247185E-147
   24.6881250000000        -6.920373741940787E-147
   24.9018750000000        -5.679294788151159E-147
   25.1156250000000         1.334794833031636E-146
   25.3293750000000         9.485203466123448E-146
   25.5431250000000         3.635367661283257E-145
   25.7568750000000         1.138738301985936E-144
   25.9706250000000         3.180088493014140E-144
   26.1843750000000         8.172113960424663E-144
   26.3981250000000         1.958722779809239E-143
   26.6118750000000         4.401020204665341E-143
   26.8256250000000         9.265572984267973E-143
   27.0393750000000         1.816982496507198E-142
   27.2531250000000         3.272495201573915E-142
   27.4668750000000         5.248330884501975E-142
   27.6806250000000         6.919318411564222E-142
   27.8943750000000         5.338861876072292E-142
   28.1081250000000        -7.304116819241194E-142
   28.3218750000000        -4.864469551676626E-141
   28.5356250000000        -1.539083656559394E-140
   28.7493750000000        -3.856761773987901E-140
   28.9631250000000        -8.408430425668866E-140
   29.1768750000000        -1.641230923373548E-139
   29.3906250000000        -2.878568615941268E-139
   29.6043750000000        -4.461417999071265E-139
   29.8181250000000        -5.787481264235009E-139
   30.0318750000000        -5.161338809888903E-139
   30.2456250000000         1.055974070535171E-139
   30.4593750000000         1.935810870087448E-138
   30.6731250000000         5.937319518940590E-138
   30.8868750000000         1.320078373855296E-137
   31.1006250000000         2.429730439651449E-137
   31.3143750000000         3.788085718125832E-137
   31.5281250000000         4.845399959573791E-137
   31.7418750000000         4.399587364172088E-137
   31.9556250000000         5.996212180136597E-138
   32.1693750000000        -8.228935634307377E-137
   32.3831250000000        -2.092832742110444E-136
   32.5968750000000        -2.775504007528347E-136
   32.8106250000000        -8.768648307822934E-138
   33.0243750000000         1.166501592012152E-135
   33.2381250000000         4.139828129338437E-135
   33.4518750000000         9.847095195214224E-135
   33.6656250000000         1.826011519394374E-134
   33.8793750000000         2.606220953426248E-134
   34.0931250000000         2.253975115155260E-134
   34.3068750000000        -1.585740557232346E-134
   34.5206250000000        -1.292830779562489E-133
   34.7343750000000        -3.685062148262300E-133
   34.9481250000000        -7.633498028391710E-133
   35.1618750000000        -1.241943247246800E-132
   35.3756250000000        -1.478002756521272E-132
   35.5893750000000        -6.719886574978707E-133
   35.8031250000000         2.639024038664481E-132
   36.0168750000000         1.045790721901463E-131
   36.2306250000000         2.429184467849482E-131
   36.4443750000000         4.222959631708861E-131
   36.6581250000000         5.298877127528519E-131
   36.8718750000000         2.649693413699870E-131
   37.0856250000000        -9.659857660416014E-131
   37.2993750000000        -4.073088826562803E-130
   37.5131250000000        -1.000821700272849E-129
   37.7268750000000        -1.879154937122279E-129
   37.9406250000000        -2.726081530993724E-129
   38.1543750000000        -2.498106284164763E-129
   38.3681250000000         1.162084300515007E-129
   38.5818750000000         1.248802389438872E-128
   38.7956250000000         3.750087443320530E-128
   39.0093750000000         8.190247495684620E-128
   39.2231250000000         1.445570703655066E-127
   39.4368750000000         2.032146651699784E-127
   39.6506250000000         1.892734971304493E-127
   39.8643750000000        -4.823778947738543E-128
   40.0781250000000        -7.790514053761927E-127
   40.2918750000000        -2.396089985703112E-126
   40.5056250000000        -5.317532797324277E-126
   40.7193750000000        -9.662444466897829E-126
   40.9331250000000        -1.452123611672023E-125
   41.1468750000000        -1.663021182815538E-125
   41.3606250000000        -8.382285235003822E-126
   41.5743750000000         2.447806669459119E-125
   41.7881250000000         1.041959297704950E-124
   42.0018750000000         2.584244720757044E-124
   42.2156250000000         5.082561161444187E-124
   42.4293750000000         8.384774902702311E-124
   42.6431250000000         1.139787014243610E-123
   42.8568750000000         1.115227630537038E-123
   43.0706250000000         1.560398132520297E-124
   43.2843750000000        -2.775313313816660E-123
   43.4981250000000        -9.153973077260211E-123
   43.7118750000000        -2.059005223028467E-122
   43.9256250000000        -3.787457869599269E-122
   44.1393750000000        -5.890060060372988E-122
   44.3531250000000        -7.495603157682786E-122
   44.5668750000000        -6.515906543427156E-122
   44.7806250000000         1.028010084429953E-122
   44.9943750000000         2.152700806089120E-121
   45.2081250000000         6.351961070059300E-121
   45.4218750000000         1.354607710339938E-120
   45.6356250000000         2.396625937598413E-120
   45.8493750000000         3.599763724006895E-120
   46.0631250000000         4.408952724600977E-120
   46.2768750000000         3.576181074737894E-120
   46.4906250000000        -1.180750695867359E-120
   46.7043750000000        -1.340283341265643E-119
   46.9181250000000        -3.765027928481375E-119
   47.1318750000000        -7.817659433919055E-119
   47.3456250000000        -1.355724931823825E-118
   47.5593750000000        -2.002006012141641E-118
   47.7731250000000        -2.413893967790979E-118
   47.9868750000000        -1.924186167939597E-118
   48.2006250000000         6.588045633284258E-119
   48.4143750000000         7.145525702199428E-118
   48.6281250000000         1.981445625106713E-117
   48.8418750000000         4.071297429302037E-117
   49.0556250000000         6.996513649265547E-117
   49.2693750000000         1.025561533506672E-116
   49.4831250000000         1.231771359654963E-116
   49.6968750000000         9.927244375738190E-117
   49.9106250000000        -2.621053645194004E-117
   50.1243750000000        -3.383036453114506E-116
   50.3381250000000        -9.415968424810796E-116
   50.5518750000000        -1.926382518930013E-115
   50.7656250000000        -3.290386976625534E-115
   50.9793750000000        -4.794883112018324E-115
   51.1931250000000        -5.741280061710329E-115
   51.4068750000000        -4.681234368213941E-115
   51.6206250000000         8.665403235560047E-116
   51.8343750000000         1.451235107085720E-114
   52.0481250000000         4.056320695749122E-114
   52.2618750000000         8.252203231394793E-114
   52.4756250000000         1.398030470943158E-113
   52.6893750000000         2.019339654691114E-113
   52.9031250000000         2.399076149614313E-113
   53.1168750000000         1.955068555934397E-113
   53.3306250000000        -2.820031105404810E-114
   53.5443750000000        -5.680341486091355E-113
   53.7581250000000        -1.580817262934567E-112
   53.9718750000000        -3.183417141477169E-112
   54.1856250000000        -5.329236470328766E-112
   54.3993750000000        -7.600074275228742E-112
   54.6131250000000        -8.909803495180161E-112
   54.8268750000000        -7.160200177573396E-112
   55.0406250000000         1.028335004557980E-112
   55.2543750000000         2.025988532777841E-111
   55.4681250000000         5.556119284756043E-111
   55.6818750000000         1.102476327850235E-110
   55.8956250000000         1.817894537235408E-110
   56.1093750000000         2.551795282014619E-110
   56.3231250000000         2.939627600637609E-110
   56.5368750000000         2.305353025787561E-110
   56.7506250000000        -4.016599287555222E-111
   56.9643750000000        -6.558100919542164E-110
   57.1781250000000        -1.758502033450998E-109
   57.3918750000000        -3.427365183084983E-109
   57.6056250000000        -5.555468365473765E-109
   57.8193750000000        -7.661969887349369E-109
   58.0331250000000        -8.651512823875032E-109
   58.2468750000000        -6.574762750623257E-109
   58.4606250000000         1.488543217475631E-109
   58.6743750000000         1.921130590365883E-108
   58.8881250000000         5.015326563021271E-108
   59.1018750000000         9.586668741349860E-108
   59.3156250000000         1.526258994435042E-107
   59.5293750000000         2.066764742445950E-107
   59.7431250000000         2.284893791839798E-107
   59.9568750000000         1.675732822681985E-107
   60.1706250000000        -4.899523612125175E-108
   60.3843750000000        -5.091434036399726E-107
   60.5981250000000        -1.292329493632804E-106
   60.8118750000000        -2.421957484873178E-106
   61.0256250000000        -3.787387790614643E-106
   61.2393750000000        -5.036038399627216E-106
   61.4531250000000        -5.450513254285298E-106
   61.6668750000000        -3.849941203974324E-106
   61.8806250000000         1.411148339542048E-106
   62.0943750000000         1.223337227389628E-105
   62.3081250000000         3.020586977355092E-105
   62.5218750000000         5.553063418757965E-105
   62.7356250000000         8.534298708724149E-105
   62.9493750000000         1.114967590929243E-104
   63.1631250000000         1.181976359373581E-104
   63.3768750000000         8.036223740524096E-105
   63.5906250000000        -3.576724937331648E-105
   63.8043750000000        -2.675260833201419E-104
   64.0181250000000        -6.435348730816881E-104
   64.2318750000000        -1.161664150911196E-103
   64.4456250000000        -1.756151468499184E-103
   64.6593750000000        -2.256239376157779E-103
   64.8731250000000        -2.344877856527793E-103
   65.0868750000000        -1.535145966040564E-103
   65.3006250000000         8.066739018510567E-104
   65.5143750000000         5.351478502008602E-103
   65.7281250000000         1.256560197261954E-102
   65.9418750000000         2.229880962101538E-102
   66.1556250000000         3.319495927491429E-102
   66.3693750000000         4.198443535012117E-102
   66.5831250000000         4.282741657334573E-102
   66.7968750000000         2.703027115970941E-102
   67.0106250000000        -1.636486912509115E-102
   67.2243750000000        -9.846268828498224E-102
   67.4381250000000        -2.261693856657721E-101
   67.6518750000000        -3.951113116038235E-101
   67.8656250000000        -5.798981386720745E-101
   68.0793750000000        -7.229555997529082E-101
   68.2931250000000        -7.249462003289122E-101
   68.5068750000000        -4.421654110703374E-101
   68.7206250000000         3.011272124789877E-101
   68.9343750000000         1.675523709050406E-100
   69.1481250000000         3.774532369822570E-100
   69.3618750000000         6.501903980264205E-100
   69.5756250000000         9.422264409695084E-100
   69.7893750000000         1.159724471782152E-099
   70.0031250000000         1.145631612671458E-099
   70.2168750000000         6.785480733845851E-100
   70.4306250000000        -5.048596974199838E-100
   70.6443750000000        -2.649919592827606E-099
   70.8581250000000        -5.873497214997333E-099
   71.0718750000000        -9.996878506525254E-099
   71.2856250000000        -1.433144056328666E-098
   71.4993750000000        -1.745317531828205E-098
   71.7131250000000        -1.704002227293113E-098
   71.9268750000000        -9.891409355993111E-099
   72.1406250000000         7.707550931854279E-099
   72.3543750000000         3.909225150075198E-098
   72.5681250000000         8.563530052197982E-098
   72.7818750000000         1.444206776668439E-097
   72.9956250000000         2.053457151717440E-097
   73.2093750000000         2.481852299234876E-097
   73.4231250000000         2.406506990140937E-097
   73.6368750000000         1.390506697952181E-097
   73.8506250000000        -1.063335122696393E-097
   74.0643750000000        -5.388409470318011E-097
   74.2781250000000        -1.174126224265490E-096
   74.4918750000000        -1.969602349694575E-096
   74.7056250000000        -2.787255074058435E-096
   74.9193750000000        -3.357123587857273E-096
   75.1331250000000        -3.254939892193058E-096
   75.3468750000000        -1.914291733600215E-096
   75.5606250000000         1.300601093423248E-096
   75.7743750000000         6.933822856125927E-096
   75.9881250000000         1.516741426409598E-095
   76.2018750000000         2.544047008514156E-095
   76.4156250000000         3.599354037259006E-095
   76.6293750000000         4.343079659226691E-095
   76.8431250000000         4.246564278419355E-095
   77.0568750000000         2.609433887216360E-095
   77.2706250000000        -1.349532735807395E-095
   77.4843750000000        -8.296225779140506E-095
   77.6981250000000        -1.845663985549369E-094
   77.9118750000000        -3.116469178163196E-094
   78.1256250000000        -4.432673179774452E-094
   78.3393750000000        -5.391208772786396E-094
   78.5531250000000        -5.366159322339471E-094
   78.7668750000000        -3.529329741186554E-094
   78.9806250000000         1.044864722928721E-094
   79.1943750000000         9.154836524648877E-094
   79.4081250000000         2.110249025777701E-093
   79.6218750000000         3.618087950531243E-093
   79.8356250000000         5.206880168021026E-093
   80.0493750000000         6.425332210870594E-093
   80.2631250000000         6.569051732507110E-093
   80.4768750000000         4.700808270513178E-093
   80.6906250000000        -2.375951756836946E-094
   80.9043750000000        -9.183711535085532E-093
   81.1181250000000        -2.255590172393219E-092
   81.3318750000000        -3.969894912545675E-092
   81.5456250000000        -5.822533084099124E-092
   81.7593750000000        -7.337757355316246E-092
   81.9731250000000        -7.762974167075341E-092
   82.1868750000000        -6.084291201010984E-092
   82.4006250000000        -1.136342709257124E-092
   82.6143750000000         8.153704351450844E-092
   82.8281250000000         2.235865442048800E-091
   83.0418750000000         4.097887646214390E-091
   83.2556250000000         6.175342427328745E-091
   83.4693750000000         7.997643512615896E-091
   83.6831250000000         8.803273830283090E-091
   83.8968750000000         7.546382468144474E-091
   84.1106250000000         2.995178525043728E-091
   84.3243750000000        -6.037438838489930E-091
   84.5381250000000        -2.029986572114599E-090
   84.7518750000000        -3.953893750146303E-090
   84.9656250000000        -6.180941355835782E-090
   85.1793750000000        -8.276621443539553E-090
   85.3931250000000        -9.513775837376986E-090
   85.6068750000000        -8.867306770154580E-090
   85.8206250000000        -5.093276653745236E-090
   86.0343750000000         3.068063407446206E-090
   86.2481250000000         1.653303587432746E-089
   86.4618750000000         3.534887226822711E-089
   86.6756250000000         5.803259097091160E-089
   86.8893750000000         8.086755676631038E-089
   87.1031250000000         9.733111222323161E-089
   87.3168750000000         9.791477461023197E-089
   87.5306250000000         7.067464033060016E-089
   87.7443750000000         2.883353298900783E-090
   87.9581250000000        -1.158936652353207E-088
   88.1718750000000        -2.891506930636571E-088
   88.3856250000000        -5.074184143144560E-088
   88.5993750000000        -7.415903024324122E-088
   88.8131250000000        -9.370231185064993E-088
   89.0268750000000        -1.010625216764185E-087
   89.2406250000000        -8.538667909894710E-088
   89.4543750000000        -3.450477887754821E-088
   89.6681250000000         6.260916222999713E-088
   89.8818750000000         2.119617740808911E-087
   90.0956250000000         4.093380748206230E-087
   90.3093750000000         6.342873190863032E-087
   90.5231250000000         8.443915748109623E-087
   90.7368750000000         9.715872381369931E-087
   90.9506250000000         9.229611503363478E-087
   91.1643750000000         5.888757256510431E-087
   91.3781250000000        -1.387741780836885E-087
   91.5918750000000        -1.336217965653733E-086
   91.8056250000000        -3.005373574157209E-086
   92.0193750000000        -5.022571634955408E-086
   92.2331250000000        -7.086254457290031E-086
   92.4468750000000        -8.676971996143989E-086
   92.6606250000000        -9.048599091146430E-086
   92.8743750000000        -7.273962252972478E-086
   93.0881250000000        -2.368975912530387E-086
   93.3018750000000         6.485489906863903E-086
   93.5156250000000         1.961794394727202E-085
   93.7293750000000         3.645408985259231E-085
   93.9431250000000         5.506940630284025E-085
   94.1568750000000         7.180039899836072E-085
   94.3706250000000         8.105408727772438E-085
   94.5843750000000         7.549401329480547E-085
   94.7981250000000         4.679835911614838E-085
   95.0118750000000        -1.283651192886098E-085
   95.2256250000000        -1.083549823043411E-084
   95.4393750000000        -2.387279951918054E-084
   95.6531250000000        -3.933693091018878E-084
   95.8668750000000        -5.486981377406237E-084
   96.0806250000000        -6.658158556771107E-084
   96.2943750000000        -6.905904724888948E-084
   96.5081250000000        -5.576440526242044E-084
   96.7218750000000        -1.996868972860096E-084
   96.9356250000000         4.368051869049615E-084
   97.1493750000000         1.369549091955638E-083
   97.3631250000000         2.553607738950160E-083
   97.5768750000000         3.853460215091521E-083
   97.7906250000000         5.020267335782197E-083
   98.0043750000000         5.683165908976941E-083
   98.2181250000000         5.365341114847124E-083
   98.4318750000000         3.536043757743027E-083
   98.6456250000000        -2.923669730173646E-084
   98.8593750000000        -6.418850657344009E-083
   99.0731250000000        -1.476585825271953E-082
   99.2868750000000        -2.466961494918323E-082
   99.5006250000000        -3.468638801776221E-082
   99.7143750000000        -4.247129740391917E-082
   99.9281250000000        -4.480222965526447E-082
   100.141875000000        -3.782928195646282E-082
   100.355625000000        -1.762322665982038E-082
   100.569375000000         1.893221287742964E-082
   100.783125000000         7.291569032164265E-082
   100.996875000000         1.419087369114776E-081
   101.210625000000         2.185117632942906E-081
   101.424375000000         2.891736335395890E-081
   101.638125000000         3.337937629660784E-081
   101.851875000000         3.266370636614350E-081
   102.065625000000         2.391021375480782E-081
   102.279375000000         4.475574091811593E-082
   102.493125000000        -2.732503257721454E-081
   102.706875000000        -7.127558046203353E-081
   102.920625000000        -1.242219349410769E-080
   103.134375000000        -1.791271217751518E-080
   103.348125000000        -2.244903834577199E-080
   103.561875000000        -2.444687913469848E-080
   103.775625000000        -2.200667005849012E-080
   103.989375000000        -1.317150817842268E-080
   104.203125000000         3.657864020582643E-081
   104.416875000000         2.915903524586990E-080
   104.630625000000         6.242140128915077E-080
   104.844375000000         1.002725954898887E-079
   105.058125000000         1.367470690986252E-079
   105.271875000000         1.628949122599166E-079
   105.485625000000         1.671593059317318E-079
   105.699375000000         1.365458308114248E-079
   105.913125000000         5.874843678693633E-080
   106.126875000000        -7.472996741359946E-080
   106.340625000000        -2.646273114225120E-079
   106.554375000000        -4.995812177274482E-079
   106.768125000000        -7.521557395454046E-079
   106.981875000000        -9.763141285119350E-079
   107.195625000000        -1.107662431658325E-078
   107.409375000000        -1.067869786727726E-078
   107.623125000000        -7.744826866757581E-079
   107.836875000000        -1.567944700255956E-079
   108.050625000000         8.225585151251802E-079
   108.264375000000         2.142030455991560E-078
   108.478125000000         3.695161071968084E-078
   108.691875000000         5.269573495566679E-078
   108.905625000000         6.538109676360284E-078
   109.119375000000         7.070234304010604E-078
   109.333125000000         6.371568489791552E-078
   109.546875000000         3.957300896918451E-078
   109.760625000000        -5.391971561002613E-079
   109.974375000000        -7.228147085194891E-078
   110.188125000000        -1.581028872655467E-077
   110.401875000000        -2.543425787068667E-077
   110.615625000000        -3.460004300141677E-077
   110.829375000000        -4.115193257145689E-077
   111.043125000000        -4.240669237002281E-077
   111.256875000000        -3.545642605316976E-077
   111.470625000000        -1.766782773350582E-077
   111.684375000000         1.263143133715316E-077
   111.898125000000         5.533242216379631E-077
   112.111875000000         1.076979444757362E-076
   112.325625000000         1.636531462907698E-076
   112.539375000000         2.134281208380418E-076
   112.753125000000         2.437956203801264E-076
   112.966875000000         2.391385739368908E-076
   113.180625000000         1.835206292468524E-076
   113.394375000000         6.380645345721682E-077
   113.608125000000        -1.263169505814026E-076
   113.821875000000        -3.818225173239605E-076
   114.035625000000        -6.820246529638889E-076
   114.249375000000        -9.874378864332220E-076
   114.463125000000        -1.239001343381563E-075
   114.676875000000        -1.360921101201835E-075
   114.890625000000        -1.268218038531096E-075
   115.104375000000        -8.796068905732538E-076
   115.318125000000        -1.355330082447340E-076
   115.531875000000         9.799316976093909E-076
   115.745625000000         2.415999574453092E-075
   115.959375000000         4.034990534686664E-075
   116.173125000000         5.600425489419066E-075
   116.386875000000         6.779474711623041E-075
   116.600625000000         7.165669858493162E-075
   116.814375000000         6.326347796842656E-075
   117.028125000000         3.876325981219819E-075
   117.241875000000        -4.252566930896222E-076
   117.455625000000        -6.563941365322488E-075
   117.669375000000        -1.416052548683526E-074
   117.883125000000        -2.238545018152283E-074
   118.096875000000        -2.992412982671417E-074
   118.310625000000        -3.502198353899486E-074
   118.524375000000        -3.563458111291763E-074
   118.738125000000        -2.969855026263388E-074
   118.951875000000        -1.552192930449638E-074
   119.165625000000         7.731193710544242E-075
   119.379375000000         3.951583539439944E-074
   119.593125000000         7.742559802978413E-074
   119.806875000000         1.168676884468321E-073
   120.020625000000         1.510208424573022E-073
   120.234375000000         1.712017052255308E-073
   120.448125000000         1.677384386956986E-073
   120.661875000000         1.313936088699994E-073
   120.875625000000         5.529055543927469E-074
   121.089375000000        -6.281720265914653E-074
   121.303125000000        -2.182242007224537E-073
   121.516875000000        -3.973167162129862E-073
   121.730625000000        -5.764983153898312E-073
   121.944375000000        -7.225536550484093E-073
   122.158125000000        -7.949576561814105E-073
   122.371875000000        -7.504729071145373E-073
   122.585625000000        -5.500849735550828E-073
   122.799375000000        -1.679081786424755E-073
   123.013125000000         3.988164213518231E-073
   123.226875000000         1.120054351622990E-072
   123.440625000000         1.925557009375992E-072
   123.654375000000         2.701926968003841E-072
   123.868125000000         3.296445603815415E-072