  -1.60312500000000         0.000000000000000E+000
  -1.38937500000000         0.000000000000000E+000
  -1.17562500000000         0.000000000000000E+000
 -0.961875000000000         0.000000000000000E+000
 -0.748125000000000         0.000000000000000E+000
 -0.534375000000000         0.000000000000000E+000
 -0.320625000000000         0.000000000000000E+000
 -0.106875000000000         0.000000000000000E+000
  0.106875000000000         0.000000000000000E+000
  0.320625000000000         0.000000000000000E+000
  0.534375000000000         0.000000000000000E+000
  0.748125000000000         0.000000000000000E+000
  0.961875000000000         0.000000000000000E+000
   1.17562500000000         0.000000000000000E+000
   1.38937500000000         0.000000000000000E+000
   1.60312500000000         0.000000000000000E+000
   1.81687500000000         0.000000000000000E+000
   2.03062500000000         0.000000000000000E+000
   2.24437500000000         0.000000000000000E+000
   2.45812500000000         0.000000000000000E+000
   2.67187500000000         0.000000000000000E+000
   2.88562500000000         0.000000000000000E+000
   3.09937500000000         0.000000000000000E+000
   3.31312500000000         0.000000000000000E+000
   3.52687500000000         0.000000000000000E+000
   3.74062500000000         0.000000000000000E+000
   3.95437500000000         0.000000000000000E+000
   4.16812500000000         0.000000000000000E+000
   4.38187500000000         0.000000000000000E+000
   4.59562500000000         0.000000000000000E+000
   4.80937500000000         0.000000000000000E+000
   5.02312500000000         0.000000000000000E+000
   5.23687500000000         0.000000000000000E+000
   5.45062500000000         0.000000000000000E+000
   5.66437500000000         0.000000000000000E+000
   5.87812500000000         0.000000000000000E+000
   6.09187500000000         0.000000000000000E+000
   6.30562500000000         0.000000000000000E+000
   6.51937500000000         0.000000000000000E+000
   6.73312500000000         0.000000000000000E+000
   6.94687500000000         0.000000000000000E+000
   7.16062500000000         0.000000000000000E+000
   7.37437500000000         0.000000000000000E+000
   7.58812500000000         0.000000000000000E+000
   7.80187500000000         0.000000000000000E+000
   8.01562500000000         0.000000000000000E+000
   8.22937500000000         0.000000000000000E+000
   8.44312500000000         0.000000000000000E+000
   8.65687500000000         0.000000000000000E+000
   8.87062500000000         0.000000000000000E+000
   9.08437500000000         0.000000000000000E+000
   9.29812500000000         0.000000000000000E+000
   9.51187500000000        -1.034524353789416E-210
   9.72562500000000        -1.512381123128226E-203
   9.93937500000000        -2.260747593691809E-199
   10.1531250000000         1.834260052458462E-197
   10.3668750000000        -5.228393319557091E-195
   10.5806250000000        -2.410473653959947E-193
   10.7943750000000        -7.245296193639667E-192
   11.0081250000000        -2.541909626130200E-190
   11.2218750000000        -7.947816831694956E-189
   11.4356250000000        -1.818879256522726E-187
   11.6493750000000        -3.088093758043126E-186
   11.8631250000000        -4.257887843514906E-185
   12.0768750000000        -5.654620178430677E-184
   12.2906250000000        -8.682584083169499E-183
   12.5043750000000        -1.507022861249820E-181
   12.7181250000000        -2.534599064223775E-180
   12.9318750000000        -3.785054130036280E-179
   13.1456250000000        -4.921270138679736E-178
   13.3593750000000        -5.598839419831831E-177
   13.5731250000000        -5.630621557193255E-176
   13.7868750000000        -5.052528048407563E-175
   14.0006250000000        -4.073114222637017E-174
   14.2143750000000        -2.960938916171835E-173
   14.4281250000000        -1.940624651841588E-172
   14.6418750000000        -1.139922026812105E-171
   14.8556250000000        -5.901844448298805E-171
   15.0693750000000        -2.581089059091959E-170
   15.2831250000000        -8.333569314107818E-170
   15.4968750000000        -6.117330626270365E-170
   15.7106250000000         1.914291311815443E-168
   15.9243750000000         2.137462590428328E-167
   16.1381250000000         1.608097303339838E-166
   16.3518750000000         1.010182564805902E-165
   16.5656250000000         5.638449714490999E-165
   16.7793750000000         2.872082651767581E-164
   16.9931250000000         1.353409199915110E-163
   17.2068750000000         5.943394936818463E-163
   17.4206250000000         2.440812578805438E-162
   17.6343750000000         9.378915303472898E-162
   17.8481250000000         3.363150515259667E-161
   18.0618750000000         1.117503980927832E-160
   18.2756250000000         3.389456091250751E-160
   18.4893750000000         9.077732599606637E-160
   18.7031250000000         1.963261014575104E-159
   18.9168750000000         2.236099625911902E-159
   19.1306250000000        -8.054798936607440E-159
   19.3443750000000        -7.720486576257393E-158
   19.5581250000000        -4.046864864859909E-157
   19.7718750000000        -1.730110043534053E-156
   19.9856250000000        -6.589396953834169E-156
   20.1993750000000        -2.314806578262457E-155
   20.4131250000000        -7.632526820245656E-155
   20.6268750000000        -2.386283490446112E-154
   20.8406250000000        -7.120505714581837E-154
   21.0543750000000        -2.036981395436482E-153
   21.2681250000000        -5.604796680306621E-153
   21.4818750000000        -1.486847100294208E-152
   21.6956250000000        -3.809330400637034E-152
   21.9093750000000        -9.435538585624812E-152
   22.1231250000000        -2.260226539198112E-151
   22.3368750000000        -5.232309210985444E-151
   22.5506250000000        -1.167947404194654E-150
   22.7643750000000        -2.502227996924127E-150
   22.9781250000000        -5.100125349483042E-150
   23.1918750000000        -9.724318587651433E-150
   23.4056250000000        -1.673948359555260E-149
   23.6193750000000        -2.369488532118131E-149
   23.8331250000000        -1.760167491910689E-149
   24.0468750000000         4.672466363996540E-149
   24.2606250000000         3.021851776035537E-148
   24.4743750000000         1.101709419326273E-147
   24.6881250000000         3.313562956883144E-147
   24.9018750000000         8.940652811439332E-147
   25.1156250000000         2.234325912767965E-146
   25.3293750000000         5.252005030590575E-146
   25.5431250000000         1.171717218574925E-145
   25.7568750000000         2.498056863168986E-145
   25.9706250000000         5.126086122462165E-145
   26.1843750000000         1.022355582339201E-144
   26.3981250000000         2.009963176453099E-144
   26.6118750000000         3.969323942474127E-144
   26.8256250000000         8.031282197434237E-144
   27.0393750000000         1.685248787490753E-143
   27.2531250000000         3.652553114995626E-143
   27.4668750000000         8.008424829102033E-143
   27.6806250000000         1.722236882640684E-142
   27.8943750000000         3.502293186051209E-142
   28.1081250000000         6.410224909134105E-142
   28.3218750000000         9.533811418816981E-142
   28.5356250000000         7.273689551880525E-142
   28.7493750000000        -2.022368743695632E-141
   28.9631250000000        -1.301745480283416E-140
   29.1768750000000        -4.674268629312334E-140
   29.3906250000000        -1.362838439461660E-139
   29.6043750000000        -3.502919076069115E-139
   29.8181250000000        -8.171587628085898E-139
   30.0318750000000        -1.747086291474609E-138
   30.2456250000000        -3.416313338593732E-138
   30.4593750000000        -6.016554650722871E-138
   30.6731250000000        -9.149684398884473E-138
   30.8868750000000        -1.053246493524471E-137
   31.1006250000000        -3.160432563032674E-138
   31.3143750000000         3.015369945943733E-137
   31.5281250000000         1.259830615739092E-136
   31.7418750000000         3.532486242891712E-136
   31.9556250000000         8.259869461225246E-136
   32.1693750000000         1.701999774821632E-135
   32.3831250000000         3.132779571103673E-135
   32.5968750000000         5.093325669243081E-135
   32.8106250000000         6.965234672383931E-135
   33.0243750000000         6.682772630945402E-135
   33.2381250000000        -7.793491046701721E-136
   33.4518750000000        -2.569220129045686E-134
   33.6656250000000        -8.629643752387588E-134
   33.8793750000000        -2.104710299195135E-133
   34.0931250000000        -4.324907711084118E-133
   34.3068750000000        -7.769292720936702E-133
   34.5206250000000        -1.215841205098780E-132
   34.7343750000000        -1.578809352607486E-132
   34.9481250000000        -1.392450231220982E-132
   35.1618750000000         3.638665245899611E-133
   35.3756250000000         5.558206214558649E-132
   35.5893750000000         1.713456832628806E-131
   35.8031250000000         3.894931459985604E-131
   36.0168750000000         7.458147786153515E-131
   36.2306250000000         1.240596082548871E-130
   36.4443750000000         1.770251392435623E-130
   36.6581250000000         2.007300431164833E-130
   36.8718750000000         1.220418859713016E-130
   37.0856250000000        -1.947252343517667E-130
   37.2993750000000        -9.665202102045772E-130
   37.5131250000000        -2.488885902700732E-129
   37.7268750000000        -5.078720173262214E-129
   37.9406250000000        -8.910634546731698E-129
   38.1543750000000        -1.367859793158138E-128
   38.3681250000000        -1.801121789965854E-128
   38.5818750000000        -1.859520290051395E-128
   38.7956250000000        -9.035469139330714E-129
   39.0093750000000         2.138637924377272E-128
   39.2231250000000         8.870697002849552E-128
   39.4368750000000         2.144685641644844E-127
   39.6506250000000         4.243164827116938E-127
   39.8643750000000         7.438915132888723E-127
   40.0781250000000         1.189990684310494E-126
   40.2918750000000         1.752233548613469E-126
   40.5056250000000         2.353404709121486E-126
   40.7193750000000         2.761338390711021E-126
   40.9331250000000         2.397556918104552E-126
   41.1468750000000        -5.198379268018005E-128
   41.3606250000000        -7.355715976514053E-126
   41.5743750000000        -2.490066241646201E-125
   41.7881250000000        -6.223297392952617E-125
   42.0018750000000        -1.343335549739748E-124
   42.2156250000000        -2.606886290951739E-124
   42.4293750000000        -4.577814242930759E-124
   42.6431250000000        -7.168102391774940E-124
   42.8568750000000        -9.536855217293189E-124
   43.0706250000000        -9.149071395363233E-124
   43.2843750000000        -2.649818272983431E-125
   43.4981250000000         2.804798596342572E-123
   43.7118750000000         9.369378695144019E-123
   43.9256250000000         2.212017880585299E-122
   44.1393750000000         4.352256801618433E-122
   44.3531250000000         7.408172516819209E-122
   44.5668750000000         1.080062400429075E-121
   44.7806250000000         1.253054069279681E-121
   44.9943750000000         7.958098183913607E-122
   45.2081250000000        -1.173226086108783E-121
   45.4218750000000        -6.080703245320760E-121
   45.6356250000000        -1.585515329714858E-120
   45.8493750000000        -3.242820620350032E-120
   46.0631250000000        -5.631007913250307E-120
   46.2768750000000        -8.359219995930112E-120
   46.4906250000000        -1.007032655786451E-119
   46.7043750000000        -7.665268592729026E-120
   46.9181250000000         4.619230253890666E-120
   47.1318750000000         3.588838194777191E-119
   47.3456250000000         9.812124016745650E-119
   47.5593750000000         2.028919618312951E-118
   47.7731250000000         3.526906142205497E-118
   47.9868750000000         5.235228764675796E-118
   48.2006250000000         6.357467571213948E-118
   48.4143750000000         5.128799558661445E-118
   48.6281250000000        -1.643458544894249E-118
   48.8418750000000        -1.886265526048646E-117
   49.0556250000000        -5.277282120561705E-117
   49.2693750000000        -1.091083930145168E-116
   49.4831250000000        -1.885520226594238E-116
   49.6968750000000        -2.780648374269900E-116
   49.9106250000000        -3.369838355136499E-116
   50.1243750000000        -2.783263923912796E-116
   50.3381250000000         5.057188880432410E-117
   50.5518750000000         8.771077188417378E-116
   50.7656250000000         2.480508286109002E-115
   50.9793750000000         5.101565124078348E-115
   51.1931250000000         8.736353597702615E-115
   51.4068750000000         1.276135177838321E-114
   51.6206250000000         1.535898279936999E-114
   51.8343750000000         1.278483261048931E-114
   52.0481250000000        -1.327342930059248E-115
   52.2618750000000        -3.615890358052749E-114
   52.4756250000000        -1.025447060895610E-113
   52.6893750000000        -2.091419564829351E-113
   52.9031250000000        -3.542424965535334E-113
   53.1168750000000        -5.115973107613979E-113
   53.3306250000000        -6.096813811522914E-113
   53.5443750000000        -5.067071394630295E-113
   53.7581250000000         3.066608321657533E-114
   53.9718750000000         1.327875673774994E-112
   54.1856250000000         3.752868569851665E-112
   54.3993750000000         7.573762513482195E-112
   54.6131250000000         1.267296898326938E-111
   54.8268750000000         1.807519105705785E-111
   55.0406250000000         2.128892089453207E-111
   55.2543750000000         1.756028076122557E-111
   55.4681250000000        -6.825255670632187E-113
   55.6818750000000        -4.364483792873529E-111
   55.8956250000000        -1.223509443367855E-110
   56.1093750000000        -2.439844033229152E-110
   56.3231250000000        -4.030498143534170E-110
   56.5368750000000        -5.674370550126427E-110
   56.7506250000000        -6.598889023007626E-110
   56.9643750000000        -5.383589773352866E-110
   57.1781250000000         1.622433405714096E-111
   57.3918750000000         1.289153401544064E-109
   57.6056250000000         3.574191078896979E-109
   57.8193750000000         7.038223334528570E-109
   58.0331250000000         1.147766803821194E-108
   58.2468750000000         1.595107003083892E-108
   58.4606250000000         1.831357162974588E-108
   58.6743750000000         1.475825428897419E-108
   58.8881250000000        -4.055062455749059E-110
   59.1018750000000        -3.434043447290901E-108
   59.3156250000000        -9.406352766788652E-108
   59.5293750000000        -1.829329979197145E-107
   59.7431250000000        -2.946224788767823E-107
   59.9568750000000        -4.044115781704899E-107
   60.1706250000000        -4.586745647568670E-107
   60.3843750000000        -3.653251039668288E-107
   60.5981250000000         9.238376065261832E-109
   60.8118750000000         8.276769219831694E-107
   61.0256250000000         2.241399468205874E-106
   61.2393750000000         4.308511439720444E-106
   61.4531250000000         6.859136776083258E-106
   61.6668750000000         9.308533328139214E-106
   61.8806250000000         1.044230587781386E-105
   62.0943750000000         8.237887084973368E-106
   62.3081250000000        -1.576206156820911E-107
   62.5218750000000        -1.810810966748652E-105
   62.7356250000000        -4.858690773876166E-105
   62.9493750000000        -9.244077321166977E-105
   63.1631250000000        -1.456529237823648E-104
   63.3768750000000        -1.956897352509716E-104
   63.5906250000000        -2.175026265067287E-104
   63.8043750000000        -1.705234363378777E-104
   64.0181250000000         9.900758077324806E-107
   64.2318750000000         3.607974603068931E-104
   64.4456250000000         9.624316872107281E-104
   64.6593750000000         1.815715437889958E-103
   64.8731250000000         2.835876808249193E-103
   65.0868750000000         3.778081885517707E-103
   65.3006250000000         4.169197954778407E-103
   65.5143750000000         3.262046841754330E-103
   65.7281250000000         5.434476559653196E-105
   65.9418750000000        -6.568411590216575E-103
   66.1556250000000        -1.749649018557916E-102
   66.3693750000000        -3.280360916582243E-102
   66.5831250000000        -5.087638150476010E-102
   66.7968750000000        -6.733227383927761E-102
   67.0106250000000        -7.394469037190465E-102
   67.2243750000000        -5.801020438639417E-102
   67.4381250000000        -2.851934988289970E-103
   67.6518750000000         1.096058035184439E-101
   67.8656250000000         2.931455699907596E-101
   68.0793750000000         5.475916008347022E-101
   68.2931250000000         8.450247450017146E-101
   68.5068750000000         1.113186763894804E-100
   68.7206250000000         1.219741653643577E-100
   68.9343750000000         9.642800108296820E-101
   69.1481250000000         8.861743653450924E-102
   69.3618750000000        -1.680926018907719E-100
   69.5756250000000        -4.544665591484685E-100
   69.7893750000000        -8.483263708114981E-100
   70.0031250000000        -1.305454956321160E-099
   70.2168750000000        -1.715584879421464E-099
   70.4306250000000        -1.880815125975777E-099
   70.6443750000000        -1.506295824924416E-099
   70.8581250000000        -2.180994380785767E-100
   71.0718750000000         2.373021705696658E-099
   71.2856250000000         6.542920612758514E-099
   71.4993750000000         1.224759735775039E-098
   71.7131250000000         1.884289762176066E-098
   71.9268750000000         2.476468685096827E-098
   72.1406250000000         2.724930382268784E-098
   72.3543750000000         2.223172933306321E-098
   72.5681250000000         4.618794205108662E-099
   72.7818750000000        -3.082256785812724E-098
   72.9956250000000        -8.772703690095843E-098
   73.2093750000000        -1.654006508284885E-097
   73.4231250000000        -2.551821215690459E-097
   73.6368750000000        -3.363735753730019E-097
   73.8506250000000        -3.727902736855855E-097
   74.0643750000000        -3.116817808452071E-097
   74.2781250000000        -8.747932778154619E-098
   74.4918750000000         3.667190414990180E-097
   74.7056250000000         1.097171716194415E-096
   74.9193750000000         2.095515164207212E-096
   75.1331250000000         3.254101888586581E-096
   75.3468750000000         4.316760720519958E-096
   75.5606250000000         4.837857340613222E-096
   75.7743750000000         4.170656834299206E-096
   75.9881250000000         1.513847805619544E-096
   76.2018750000000        -3.950197181504664E-096
   76.4156250000000        -1.279448290130986E-095
   76.6293750000000        -2.494803223657931E-095
   76.8431250000000        -3.917544956909974E-095
   77.0568750000000        -5.250745116571516E-095
   77.2706250000000        -5.977033444071739E-095
   77.4843750000000        -5.345179028377423E-095
   77.6981250000000        -2.422496483185874E-095
   77.9118750000000         3.749947488638119E-095
   78.1256250000000         1.386576228971636E-094
   78.3393750000000         2.790883419608360E-094
   78.5531250000000         4.457588107513565E-094
   78.7668750000000         6.064472745931565E-094
   78.9806250000000         7.044792390945498E-094
   79.1943750000000         6.570548530080041E-094
   79.4081250000000         3.605837216337151E-094
   79.6218750000000        -2.930708580558576E-094
   79.8356250000000        -1.385906222152551E-093
   80.0493750000000        -2.926899965599373E-093
   80.2631250000000        -4.790907501790334E-093
   80.4768750000000        -6.651326272397853E-093
   80.6906250000000        -7.922711997696778E-093
   80.9043750000000        -7.739035318953503E-093
   81.1181250000000        -5.002126544994060E-093
   81.3318750000000         1.460165959756508E-093
   81.5456250000000         1.258998249340189E-092
   81.7593750000000         2.863061905502948E-092
   81.9731250000000         4.850982667896197E-092
   82.1868750000000         6.915030888558141E-092
   82.4006250000000         8.486165736074403E-092
   82.6143750000000         8.706001520431943E-092
   82.8281250000000         6.464848097877690E-092
   83.0418750000000         5.442582299608476E-093
   83.2556250000000        -1.010006107536378E-091
   83.4693750000000        -2.589432565653584E-091
   83.6831250000000        -4.605370632279209E-091
   83.8968750000000        -6.790538714561428E-091
   84.1106250000000        -8.626558153380810E-091
   84.3243750000000        -9.309395969750353E-091
   84.5381250000000        -7.773118345294634E-091
   84.7518750000000        -2.807775305578756E-091
   84.9656250000000         6.694159906165176E-091
   85.1793750000000         2.134078416369830E-090
   85.3931250000000         4.069888402596939E-090
   85.6068750000000         6.265877580844873E-090
   85.8206250000000         8.282126605557692E-090
   86.0343750000000         9.409821225859808E-090
   86.2481250000000         8.679342821649133E-090
   86.4618750000000         4.948312156795616E-090
   86.6756250000000        -2.898617710004726E-090
   86.8893750000000        -1.561561989883799E-089
   87.1031250000000        -3.312658405984410E-089
   87.3168750000000        -5.395785449813457E-089
   87.5306250000000        -7.466269937025278E-089
   87.7443750000000        -8.939202760030765E-089
   87.9581250000000        -8.983201684360308E-089
   88.1718750000000        -6.577968269261648E-089
   88.3856250000000        -6.637382774739872E-090
   88.5993750000000         9.595327261353301E-089
   88.8131250000000         2.442795626231428E-088
   89.0268750000000         4.297565094323954E-088
   89.2406250000000         6.278031733880322E-088
   89.4543750000000         7.935658303737915E-088
   89.6681250000000         8.602129162913169E-088
   89.8818750000000         7.419867093880244E-088
   90.0956250000000         3.443749661050574E-088
   90.3093750000000        -4.165706878964218E-088
   90.5231250000000        -1.584840796892332E-087
   90.7368750000000        -3.126133577255860E-087
   90.9506250000000        -4.884824582188999E-087
   91.1643750000000        -6.544495495131790E-087
   91.3781250000000        -7.604712067829340E-087
   91.5918750000000        -7.390709584588772E-087
   91.8056250000000        -5.114809261056351E-087
   92.0193750000000        -7.037284229852842E-090
   92.2331250000000         8.474330748548863E-087
   92.4468750000000         2.035538730309731E-086
   92.6606250000000         3.480721203959609E-086
   92.8743750000000         4.980841185028041E-086
   93.0881250000000         6.189702741852640E-086
   93.3018750000000         6.613142157327907E-086
   93.5156250000000         5.640153802594070E-086
   93.7293750000000         2.623134306859309E-086
   93.9431250000000        -2.982326892017592E-086
   94.1568750000000        -1.141621315172861E-085
   94.3706250000000        -2.236374488161256E-085
   94.5843750000000        -3.468813567603018E-085
   94.7981250000000        -4.620253220069119E-085
   95.0118750000000        -5.356166445205433E-085
   95.2256250000000        -5.237295769521208E-085
   95.4393750000000        -3.763299399127360E-085
   95.6531250000000        -4.578941775171479E-086
   95.8668750000000         5.000340783714727E-085
   96.0806250000000         1.260600414151936E-084
   96.2943750000000         2.183096017491762E-084
   96.5081250000000         3.143768135169042E-084
   96.7218750000000         3.935240178671998E-084
   96.9356250000000         4.266391704643606E-084
   97.1493750000000         3.782218782479889E-084
   97.3631250000000         2.110625179337299E-084
   97.5768750000000        -1.059302392777007E-084
   97.7906250000000        -5.867843723106994E-084
   98.0043750000000        -1.215190147740189E-083
   98.2181250000000        -1.930687211419594E-083
   98.4318750000000        -2.617252851235255E-083
   98.6456250000000        -3.098337747959032E-083
   98.8593750000000        -3.143175647841963E-083
   99.0731250000000        -2.489281796163493E-083
   99.2868750000000        -8.850465292636538E-084
   99.5006250000000         1.846146842600352E-083
   99.7143750000000         5.723030609467615E-083
   99.9281250000000         1.051338695454130E-082
   100.141875000000         1.564648557335147E-082
   100.355625000000         2.015405023411020E-082
   100.569375000000         2.266885795108531E-082
   100.783125000000         2.151280832799610E-082
   100.996875000000         1.490327312528869E-082
   101.210625000000         1.295358282254677E-083
   101.424375000000        -2.014341865204163E-082
   101.638125000000        -4.896110931871509E-082
   101.851875000000        -8.282746835660799E-082
   102.065625000000        -1.170385715193993E-081
   102.279375000000        -1.442817824205176E-081
   102.493125000000        -1.548501937451048E-081
   102.706875000000        -1.374952328928927E-081
   102.920625000000        -8.106384750133978E-082
   103.134375000000         2.302950243558609E-082
   103.348125000000         1.776022154793526E-081
   103.561875000000         3.760932787615551E-081
   103.775625000000         5.991135704655914E-081
   103.989375000000         8.119811385557962E-081
   104.203125000000         9.642693976399008E-081
   104.416875000000         9.924799913402688E-081
   104.630625000000         8.268390677946279E-081
   104.844375000000         4.028336496105567E-081
   105.058125000000        -3.225958978462303E-081
   105.271875000000        -1.351315873296304E-080
   105.485625000000        -2.623107581914070E-080
   105.699375000000        -3.997423769346190E-080
   105.913125000000        -5.242873489006483E-080
   106.126875000000        -6.040346215653617E-080
   106.340625000000        -6.005681263375973E-080
   106.554375000000        -4.736559182407859E-080
   106.768125000000        -1.885523638262822E-080
   106.981875000000         2.743403869669024E-080
   107.195625000000         9.083034492134677E-080
   107.409375000000         1.669175661892980E-079
   107.623125000000         2.466525959026333E-079
   107.836875000000         3.159945913691666E-079
   108.050625000000         3.563541802205636E-079
   108.264375000000         3.461463204937784E-079
   108.478125000000         2.636392850455932E-079
   108.691875000000         9.112297508788825E-080
   108.905625000000        -1.798278037376015E-079
   109.119375000000        -5.425302929475978E-079
   109.333125000000        -9.696864771860135E-079
   109.546875000000        -1.409383389644634E-078
   109.760625000000        -1.784014483717143E-078
   109.974375000000        -1.993581066570515E-078
   110.188125000000        -1.924621929518936E-078
   110.401875000000        -1.465488344254063E-078
   110.615625000000        -5.278019084922082E-079
   110.829375000000         9.272705427337441E-079
   111.043125000000         2.860723320539626E-078
   111.256875000000         5.129688369200012E-078
   111.470625000000         7.469273745541784E-078
   111.684375000000         9.488670602983226E-078
   111.898125000000         1.068793842664152E-077
   112.111875000000         1.050077427744179E-077
   112.325625000000         8.366151515065892E-078
   112.539375000000         3.827917524216846E-078
   112.753125000000        -3.343585013979642E-078
   112.966875000000        -1.301967195905321E-077
   113.180625000000        -2.458910223732240E-077
   113.394375000000        -3.686472839796491E-077
   113.608125000000        -4.804792070963936E-077
   113.821875000000        -5.577855003035929E-077
   114.035625000000        -5.729538391454720E-077
   114.249375000000        -4.972421019122102E-077
   114.463125000000        -3.049839896826103E-077
   114.676875000000         2.101044315636802E-078
   114.890625000000         4.832103833228145E-077
   115.104375000000         1.062881829180151E-076
   115.318125000000         1.714242575391724E-076
   115.531875000000         2.360388379349537E-076
   115.745625000000         2.892336425733027E-076
   115.959375000000         3.172653668681643E-076
   116.173125000000         3.045111755075205E-076
   116.386875000000         2.351568818744146E-076
   116.600625000000         9.567442616547282E-077
   116.814375000000        -1.219352576358435E-076
   117.028125000000        -4.162918822732571E-076
   117.241875000000        -7.725156500558663E-076
   117.455625000000        -1.158395378058354E-075
   117.669375000000        -1.521646842318616E-075
   117.883125000000        -1.789297188877830E-075
   118.096875000000        -1.870402166748820E-075
   118.310625000000        -1.663337530193974E-075
   118.524375000000        -1.068714796286120E-075
   118.738125000000        -8.459942552343942E-078
   118.951875000000         1.549319206926570E-075
   119.165625000000         3.561404467922519E-075
   119.379375000000         5.879962238472057E-075
   119.593125000000         8.227957764660337E-075
   119.806875000000         1.018695676122672E-074
   120.020625000000         1.120626315209935E-074
   120.234375000000         1.064273387042824E-074
   120.448125000000         7.839229502327871E-075
   120.661875000000         2.245836811749629E-075
   120.875625000000        -6.418747954813195E-075
   121.089375000000        -1.797804990963253E-074
   121.303125000000        -3.160548583801010E-074
   121.516875000000        -4.566687316248120E-074
   121.730625000000        -5.764794689320751E-074
   121.944375000000        -6.422474930201258E-074
   122.158125000000        -6.153400694470065E-074
   122.371875000000        -4.568727054923584E-074
   122.585625000000        -1.354318197878420E-074
   122.799375000000         3.629496973243476E-074
   123.013125000000         1.023529266714603E-073
   123.226875000000         1.792015179416050E-073
   123.440625000000         2.566611282372998E-073
   123.654375000000         3.195998310322509E-073
   123.868125000000         3.486536583557113E-073