  -1.60312500000000         0.000000000000000E+000
  -1.38937500000000         0.000000000000000E+000
  -1.17562500000000         0.000000000000000E+000
 -0.961875000000000         0.000000000000000E+000
 -0.748125000000000         0.000000000000000E+000
 -0.534375000000000         0.000000000000000E+000
 -0.320625000000000         0.000000000000000E+000
 -0.106875000000000         0.000000000000000E+000
  0.106875000000000         0.000000000000000E+000
  0.320625000000000         0.000000000000000E+000
  0.534375000000000         0.000000000000000E+000
  0.748125000000000         0.000000000000000E+000
  0.961875000000000         0.000000000000000E+000
   1.17562500000000         0.000000000000000E+000
   1.38937500000000         0.000000000000000E+000
   1.60312500000000         0.000000000000000E+000
   1.81687500000000         0.000000000000000E+000
   2.03062500000000         0.000000000000000E+000
   2.24437500000000         0.000000000000000E+000
   2.45812500000000         0.000000000000000E+000
   2.67187500000000         0.000000000000000E+000
   2.88562500000000         0.000000000000000E+000
   3.09937500000000         0.000000000000000E+000
   3.31312500000000         0.000000000000000E+000
   3.52687500000000         0.000000000000000E+000
   3.74062500000000         0.000000000000000E+000
   3.95437500000000         0.000000000000000E+000
   4.16812500000000         0.000000000000000E+000
   4.38187500000000         0.000000000000000E+000
   4.59562500000000         0.000000000000000E+000
   4.80937500000000         0.000000000000000E+000
   5.02312500000000         0.000000000000000E+000
   5.23687500000000         0.000000000000000E+000
   5.45062500000000         0.000000000000000E+000
   5.66437500000000         0.000000000000000E+000
   5.87812500000000         0.000000000000000E+000
   6.09187500000000         0.000000000000000E+000
   6.30562500000000         0.000000000000000E+000
   6.51937500000000         0.000000000000000E+000
   6.73312500000000         0.000000000000000E+000
   6.94687500000000         0.000000000000000E+000
   7.16062500000000         0.000000000000000E+000
   7.37437500000000         0.000000000000000E+000
   7.58812500000000         0.000000000000000E+000
   7.80187500000000         0.000000000000000E+000
   8.01562500000000         0.000000000000000E+000
   8.22937500000000         0.000000000000000E+000
   8.44312500000000         0.000000000000000E+000
   8.65687500000000         0.000000000000000E+000
   8.87062500000000         0.000000000000000E+000
   9.08437500000000         0.000000000000000E+000
   9.29812500000000         0.000000000000000E+000
   9.51187500000000        -1.090527171570221E-211
   9.72562500000000         1.062382593006921E-203
   9.93937500000000         4.748426842190121E-199
   10.1531250000000        -1.702851433169467E-197
   10.3668750000000         9.608612501062727E-195
   10.5806250000000         6.044357353756930E-193
   10.7943750000000         2.214394175971152E-191
   11.0081250000000         6.467229344102635E-190
   11.2218750000000         1.510743529345549E-188
   11.4356250000000         2.716112672483772E-187
   11.6493750000000         3.763481576763846E-186
   11.8631250000000         4.334089776353071E-185
   12.0768750000000         5.257995016598157E-184
   12.2906250000000         8.654814853149718E-183
   12.5043750000000         1.658937642823192E-181
   12.7181250000000         2.916684472463544E-180
   12.9318750000000         4.375364572105380E-179
   13.1456250000000         5.608274620262829E-178
   13.3593750000000         6.242316340122962E-177
   13.5731250000000         6.129109173259830E-176
   13.7868750000000         5.376193015864041E-175
   14.0006250000000         4.253325150778325E-174
   14.2143750000000         3.055902552184643E-173
   14.4281250000000         2.002776081184182E-172
   14.6418750000000         1.199682462144505E-171
   14.8556250000000         6.562013422229412E-171
   15.0693750000000         3.260882165297163E-170
   15.2831250000000         1.454153602351641E-169
   15.4968750000000         5.659140987584807E-169
   15.7106250000000         1.787689073743134E-168
   15.9243750000000         3.418879427132084E-168
   16.1381250000000        -7.703218773155337E-168
   16.3518750000000        -1.318967620850338E-166
   16.5656250000000        -9.317475334100386E-166
   16.7793750000000        -5.058051295330300E-165
   16.9931250000000        -2.339878450786640E-164
   17.2068750000000        -9.505973807349667E-164
   17.4206250000000        -3.394973470542888E-163
   17.6343750000000        -1.036838981172803E-162
   17.8481250000000        -2.454797311323592E-162
   18.0618750000000        -2.544553605348418E-162
   18.2756250000000         1.652837400830075E-161
   18.4893750000000         1.496241168697020E-160
   18.7031250000000         8.083403619335271E-160
   18.9168750000000         3.555692334244660E-159
   19.1306250000000         1.371169186849860E-158
   19.3443750000000         4.756797380117863E-158
   19.5581250000000         1.493976446925493E-157
   19.7718750000000         4.211431517843622E-157
   19.9856250000000         1.031924375850739E-156
   20.1993750000000         1.988982236133936E-156
   20.4131250000000         1.710688788829187E-156
   20.6268750000000        -9.134022976354304E-156
   20.8406250000000        -7.020328589104093E-155
   21.0543750000000        -3.261023494541171E-154
   21.2681250000000        -1.254845417716454E-153
   21.4818750000000        -4.325442406510734E-153
   21.6956250000000        -1.379416436903565E-152
   21.9093750000000        -4.139343560608989E-152
   22.1231250000000        -1.180957057623417E-151
   22.3368750000000        -3.226304309683744E-151
   22.5506250000000        -8.486163049651955E-151
   22.7643750000000        -2.158756083931394E-150
   22.9781250000000        -5.331654617079793E-150
   23.1918750000000        -1.282675503561936E-149
   23.4056250000000        -3.013442184322415E-149
   23.6193750000000        -6.922640362351279E-149
   23.8331250000000        -1.554184789369145E-148
   24.0468750000000        -3.398596499050092E-148
   24.2606250000000        -7.184410640701563E-148
   24.4743750000000        -1.447339580997633E-147
   24.6881250000000        -2.703632071260827E-147
   24.9018750000000        -4.405799355677321E-147
   25.1156250000000        -5.131530593195444E-147
   25.3293750000000         1.300448555532917E-147
   25.5431250000000         3.541771422448230E-146
   25.7568750000000         1.567124160753921E-145
   25.9706250000000         5.222283383234700E-145
   26.1843750000000         1.516200246838938E-144
   26.3981250000000         4.015807056405015E-144
   26.6118750000000         9.889740130523432E-144
   26.8256250000000         2.283016843134934E-143
   27.0393750000000         4.950006463826899E-143
   27.2531250000000         1.005061701570320E-142
   27.4668750000000         1.893992345055538E-142
   27.6806250000000         3.248723154694913E-142
   27.8943750000000         4.852000965999246E-142
   28.1081250000000         5.531086606715811E-142
   28.3218750000000         1.729491025773611E-142
   28.5356250000000        -1.526452072670178E-141
   28.7493750000000        -6.406633529214048E-141
   28.9631250000000        -1.801410865646848E-140
   29.1768750000000        -4.235267359894841E-140
   29.3906250000000        -8.817673063068756E-140
   29.6043750000000        -1.654114819304376E-139
   29.8181250000000        -2.789023500909842E-139
   30.0318750000000        -4.128263059764842E-139
   30.2456250000000        -4.995495842137347E-139
   30.4593750000000        -3.676834144611048E-139
   30.6731250000000         3.280095627486529E-139
   30.8868750000000         2.170520679886000E-138
   31.1006250000000         5.971344610980038E-138
   31.3143750000000         1.255761830939596E-137
   31.5281250000000         2.216541105596797E-137
   31.7418750000000         3.327170313657386E-137
   31.9556250000000         4.097364703780360E-137
   32.1693750000000         3.583508384358223E-137
   32.3831250000000         5.794947201139201E-138
   32.5968750000000        -5.363351588163931E-137
   32.8106250000000        -1.128578491206968E-136
   33.0243750000000        -5.738211303322603E-137
   33.2381250000000         3.858215814645089E-136
   33.4518750000000         1.712394412258967E-135
   33.6656250000000         4.595454777418621E-135
   33.8793750000000         9.518593657669937E-135
   34.0931250000000         1.573704935331582E-134
   34.3068750000000         1.915433727495866E-134
   34.5206250000000         8.958008471147367E-135
   34.7343750000000        -3.611417855133775E-134
   34.9481250000000        -1.485783983670656E-133
   35.1618750000000        -3.624462192650836E-133
   35.3756250000000        -6.795091365650750E-133
   35.5893750000000        -9.942923976779288E-133
   35.8031250000000        -9.667842876454130E-133
   36.0168750000000         1.338903788511423E-133
   36.2306250000000         3.503971048483346E-132
   36.4443750000000         1.051865397890765E-131
   36.6581250000000         2.155712347403865E-131
   36.8718750000000         3.317135369909229E-131
   37.0856250000000         3.288456281760573E-131
   37.2993750000000        -8.124537799186017E-132
   37.5131250000000        -1.412399845179538E-130
   37.7268750000000        -4.359758146658294E-130
   37.9406250000000        -9.445787201377289E-130
   38.1543750000000        -1.601375669165647E-129
   38.3681250000000        -2.012519156618167E-129
   38.5818750000000        -1.104584630695476E-129
   38.7956250000000         3.326111058233019E-129
   39.0093750000000         1.492703918949980E-128
   39.2231250000000         3.833941910228477E-128
   39.4368750000000         7.672518677075394E-128
   39.6506250000000         1.252136884624505E-127
   39.8643750000000         1.576396067940209E-127
   40.0781250000000         1.045920334608685E-127
   40.2918750000000        -1.754048690043008E-127
   40.5056250000000        -9.197364354272119E-127
   40.7193750000000        -2.448650139860428E-126
   40.9331250000000        -5.050431445026033E-126
   41.1468750000000        -8.656478579758328E-126
   41.3606250000000        -1.215984700156247E-125
   41.5743750000000        -1.223990551772248E-125
   41.7881250000000        -1.695473489624750E-126
   42.0018750000000         3.230385445916412E-125
   42.2156250000000         1.087809883227388E-124
   42.4293750000000         2.495833441109030E-124
   42.6431250000000         4.672301154132626E-124
   42.8568750000000         7.368422927000463E-124
   43.0706250000000         9.439899274678457E-124
   43.2843750000000         8.035493128652888E-124
   43.4981250000000        -2.424565141887754E-124
   43.7118750000000        -3.109774177663451E-123
   43.9256250000000        -9.044703842635470E-123
   44.1393750000000        -1.930115657020032E-122
   44.3531250000000        -3.422471060072999E-122
   44.5668750000000        -5.134486006929421E-122
   44.7806250000000        -6.208021107388107E-122
   44.9943750000000        -4.695011695835618E-122
   45.2081250000000         2.994774838642876E-122
   45.4218750000000         2.245962187866788E-121
   45.6356250000000         6.090425445567522E-121
   45.8493750000000         1.249153807110001E-120
   46.0631250000000         2.147941536569699E-120
   46.2768750000000         3.133981096876917E-120
   46.4906250000000         3.676758946020149E-120
   46.7043750000000         2.629210174393622E-120
   46.9181250000000        -2.052952337890475E-120
   47.1318750000000        -1.346628421986426E-119
   47.3456250000000        -3.547344641789444E-119
   47.5593750000000        -7.142352505533280E-119
   47.7731250000000        -1.210592034369496E-118
   47.9868750000000        -1.746174921783972E-118
   48.2006250000000        -2.033181621163673E-118
   48.4143750000000        -1.464535970961070E-118
   48.6281250000000         1.021530616526582E-118
   48.8418750000000         7.006144076370126E-118
   49.0556250000000         1.842632712679279E-117
   49.2693750000000         3.691623992698033E-117
   49.4831250000000         6.226908268420301E-117
   49.6968750000000         8.957446555223000E-117
   49.9106250000000         1.047080523904838E-116
   50.1243750000000         7.836946121902565E-117
   50.3381250000000        -3.991675598016133E-117
   50.5518750000000        -3.241631889416360E-116
   50.7656250000000        -8.634452828227418E-116
   50.9793750000000        -1.730803621449051E-115
   51.1931250000000        -2.913257813210575E-115
   51.4068750000000        -4.185200847830216E-115
   51.6206250000000        -4.914485505622036E-115
   51.8343750000000        -3.814754859510023E-115
   52.0481250000000         1.289544577169422E-115
   52.2618750000000         1.352601611481746E-114
   52.4756250000000         3.656771339138215E-114
   52.6893750000000         7.329181874763746E-114
   52.9031250000000         1.228944836294272E-113
   53.1168750000000         1.758523241436493E-113
   53.3306250000000         2.064736643956228E-113
   53.5443750000000         1.637966911680437E-113
   53.7581250000000        -3.636093413478262E-114
   53.9718750000000        -5.120026887364834E-113
   54.1856250000000        -1.397271762116273E-112
   54.3993750000000        -2.790251279802032E-112
   54.6131250000000        -4.646303514776559E-112
   54.8268750000000        -6.599192273991550E-112
   55.0406250000000        -7.707289090689184E-112
   55.2543750000000        -6.159579059543007E-112
   55.4681250000000         9.538118869360934E-113
   55.6818750000000         1.759283088278907E-111
   55.8956250000000         4.808467490253364E-111
   56.1093750000000         9.530782234960274E-111
   56.3231250000000         1.571739232086586E-110
   56.5368750000000         2.209769022768605E-110
   56.7506250000000         2.557277650610768E-110
   56.9643750000000         2.038059403225619E-110
   57.1781250000000        -2.463104924935078E-111
   57.3918750000000        -5.479536789777395E-110
   57.6056250000000        -1.489829665018181E-109
   57.8193750000000        -2.922916405217775E-109
   58.0331250000000        -4.765321791860034E-109
   58.2468750000000        -6.621438137424350E-109
   58.4606250000000        -7.576032867751477E-109
   58.6743750000000        -5.985085911953519E-109
   58.8881250000000         6.368004060626704E-110
   59.1018750000000         1.545543514496241E-108
   59.3156250000000         4.161980927533331E-108
   59.5293750000000         8.070300715706048E-108
   59.7431250000000         1.299740020148976E-107
   59.9568750000000         1.783822167582118E-107
   60.1706250000000         2.016115801845525E-107
   60.3843750000000         1.574367533163767E-107
   60.5981250000000        -1.604722487153577E-108
   60.8118750000000        -3.950341052116471E-107
   61.0256250000000        -1.051434049654819E-106
   61.2393750000000        -2.014142385699406E-106
   61.4531250000000        -3.204340465495454E-106
   61.6668750000000        -4.344236801906369E-106
   61.8806250000000        -4.850190330194478E-106
   62.0943750000000        -3.740970886752145E-106
   62.3081250000000         3.795763168961830E-107
   62.5218750000000         9.172038441440879E-106
   62.7356250000000         2.411892243208648E-105
   62.9493750000000         4.565616542123661E-105
   63.1631250000000         7.178378694431161E-105
   63.3768750000000         9.618565478445718E-105
   63.5906250000000         1.061386434350522E-104
   63.8043750000000         8.089515567736443E-105
   64.0181250000000        -8.228757184308510E-106
   64.2318750000000        -1.942160025650573E-104
   64.4456250000000        -5.048401816988447E-104
   64.6593750000000        -9.449707553484583E-104
   64.8731250000000        -1.469382515006294E-103
   65.0868750000000        -1.947406039014090E-103
   65.3006250000000        -2.125657415488635E-103
   65.5143750000000        -1.602552945972761E-103
   65.7281250000000         1.620996441200407E-104
   65.9418750000000         3.769241897322089E-103
   66.1556250000000         9.694840757104120E-103
   66.3693750000000         1.796008698734794E-102
   66.5831250000000         2.764318686928092E-102
   66.7968750000000         3.626880757245325E-102
   67.0106250000000         3.919862779005669E-102
   67.2243750000000         2.927282602147678E-102
   67.4381250000000        -2.894171451773198E-103
   67.6518750000000        -6.741458635064081E-102
   67.8656250000000        -1.718042571624077E-101
   68.0793750000000        -3.153210406329526E-101
   68.2931250000000        -4.808677760567760E-101
   68.5068750000000        -6.252355412735625E-101
   68.7206250000000        -6.698934892893455E-101
   68.9343750000000        -4.965036579387955E-101
   69.1481250000000         4.639289632970245E-102
   69.3618750000000         1.117108930160353E-100
   69.5756250000000         2.825956847892649E-100
   69.7893750000000         5.145126965305000E-100
   70.0031250000000         7.783778964761352E-100
   70.2168750000000         1.004270210947548E-099
   70.4306250000000         1.068457197848045E-099
   70.6443750000000         7.884426903005056E-100
   70.8581250000000        -6.438342808575620E-101
   71.0718750000000        -1.722477369110854E-099
   71.2856250000000        -4.338048989625301E-099
   71.4993750000000        -7.849168209915898E-099
   71.7131250000000        -1.179928143819088E-098
   71.9268750000000        -1.513377773159395E-098
   72.1406250000000        -1.602785893787793E-098
   72.3543750000000        -1.183879970822625E-098
   72.5681250000000         6.840785786935502E-100
   72.7818750000000         2.477029126492013E-098
   72.9956250000000         6.242391828126937E-098
   73.2093750000000         1.125555845008407E-097
   73.4231250000000         1.685231040735603E-097
   73.6368750000000         2.154337583293657E-097
   73.8506250000000         2.279672654110160E-097
   74.0643750000000         1.699761818340949E-097
   74.2781250000000        -2.387239445079024E-099
   74.4918750000000        -3.319627790394020E-097
   74.7056250000000        -8.443922439395099E-097
   74.9193750000000        -1.523514323199383E-096
   75.1331250000000        -2.279562577748494E-096
   75.3468750000000        -2.915001127111915E-096
   75.5606250000000        -3.097922293862584E-096
   75.7743750000000        -2.358994159673476E-096
   75.9881250000000        -1.337130228687527E-097
   76.2018750000000         4.125075438227552E-096
   76.4156250000000         1.074208793852926E-095
   76.6293750000000         1.951231394750979E-095
   76.8431250000000         2.930875348172336E-095
   77.0568750000000         3.766637623775254E-095
   77.2706250000000         4.046408334957328E-095
   77.4843750000000         3.189712379217589E-095
   77.6981250000000         4.997718143747646E-096
   77.9118750000000        -4.700501159005958E-095
   78.1256250000000        -1.282313392227290E-094
   78.3393750000000        -2.365017900254174E-094
   78.5531250000000        -3.587055142593474E-094
   78.7668750000000        -4.659051010554297E-094
   78.9806250000000        -5.095843606950725E-094
   79.1943750000000        -4.212371341502268E-094
   79.4081250000000        -1.182150992663329E-094
   79.6218750000000         4.808943243697404E-094
   79.8356250000000         1.428517499585773E-093
   80.0493750000000         2.706835596198728E-093
   80.2631250000000         4.175347019732952E-093
   80.4768750000000         5.515105211845519E-093
   80.6906250000000         6.184942555377335E-093
   80.9043750000000         5.413533274240739E-093
   81.1181250000000         2.258905874128271E-093
   81.3318750000000        -4.229114712740275E-093
   81.5456250000000        -1.471239487700449E-092
   81.7593750000000        -2.912044364726401E-092
   81.9731250000000        -4.608130757098143E-092
   82.1868750000000        -6.230715821151110E-092
   82.4006250000000        -7.209165245530337E-092
   82.6143750000000        -6.716502329358531E-092
   82.8281250000000        -3.723456635285105E-092
   83.0418750000000         2.841822435400084E-092
   83.2556250000000         1.379501305228141E-091
   83.4693750000000         2.924141131223046E-091
   83.6831250000000         4.798493906871437E-091
   83.8968750000000         6.687540693669065E-091
   84.1106250000000         8.024572412003197E-091
   84.3243750000000         7.967979513125258E-091
   84.5381250000000         5.443567308548753E-091
   84.7518750000000        -7.102130826646427E-092
   84.9656250000000        -1.145932847332669E-090
   85.1793750000000        -2.713373737886261E-090
   85.3931250000000        -4.684188514445826E-090
   85.6068750000000        -6.780512908364921E-090
   85.8206250000000        -8.474962158686910E-090
   86.0343750000000        -8.957888677841008E-090
   86.2481250000000        -7.163365052003656E-090
   86.4618750000000        -1.890015841566014E-090
   86.6756250000000         7.948277842663439E-090
   86.8893750000000         2.291891679849869E-089
   87.1031250000000         4.251915836026112E-089
   87.3168750000000         6.452796727393020E-089
   87.5306250000000         8.437772450613529E-089
   87.7443750000000         9.474137601526180E-089
   87.9581250000000         8.561035804141537E-089
   88.1718750000000         4.519683412716221E-089
   88.3856250000000        -3.800156324329810E-089
   88.5993750000000        -1.717245379922678E-088
   88.8131250000000        -3.550314175331544E-088
   89.0268750000000        -5.723019211537961E-088
   89.2406250000000        -7.870736976998435E-088
   89.4543750000000        -9.373299743017949E-088
   89.6681250000000        -9.345816274013620E-088
   89.8818750000000        -6.696758057685575E-088
   90.0956250000000        -2.844504320555215E-089
   90.3093750000000         1.080244464089607E-087
   90.5231250000000         2.683133245888393E-087
   90.7368750000000         4.690018446406468E-087
   90.9506250000000         6.836668688924038E-087
   91.1643750000000         8.635677364094355E-087
   91.3781250000000         9.354112416082246E-087
   91.5918750000000         8.042417752786587E-087
   91.8056250000000         3.641780612912544E-087
   92.0193750000000        -4.805554276735482E-087
   92.2331250000000        -1.782971312652183E-086
   92.4468750000000        -3.509929208165036E-086
   92.6606250000000        -5.492376841003739E-086
   92.8743750000000        -7.378205319630135E-086
   93.0881250000000        -8.601995704149473E-086
   93.3018750000000        -8.390942522236875E-086
   93.5156250000000        -5.829448768965154E-086
   93.7293750000000        -4.271484778085667E-089
   93.9431250000000         9.754674643018061E-086
   94.1568750000000         2.353789970968611E-085
   94.3706250000000         4.044934521481725E-085
   94.5843750000000         5.818852202091327E-085
   94.7981250000000         7.272303589834657E-085
   95.0118750000000         7.819482054306669E-085
   95.2256250000000         6.723542704875849E-085
   95.4393750000000         3.187306560796087E-085
   95.6531250000000        -3.482079089573832E-085
   95.8668750000000        -1.362923140330961E-084
   96.0806250000000        -2.693892447798549E-084
   96.2943750000000        -4.209285923350608E-084
   96.5081250000000        -5.646166717688572E-084
   96.7218750000000        -6.593214248319081E-084
   96.9356250000000        -6.499828203586264E-084
   97.1493750000000        -4.725872074300372E-084
   97.3631250000000        -6.450058354759125E-085
   97.5768750000000         6.190801009711558E-084
   97.7906250000000         1.582853658404034E-083
   98.0043750000000         2.765244387018045E-083
   98.2181250000000         4.012407084491675E-083
   98.4318750000000         5.058927713615191E-083
   98.6456250000000         5.524065790926822E-083
   98.8593750000000         4.933940832650268E-083
   99.0731250000000         2.780007134912259E-083
   99.2868750000000        -1.378463570387332E-083
   99.5006250000000        -7.766253255863565E-083
   99.7143750000000        -1.620689444798068E-082
   99.9281250000000        -2.592273289603901E-082
   100.141875000000        -3.535984762560623E-082
   100.355625000000        -4.209475093242685E-082
   100.569375000000        -4.289377702267945E-082
   100.783125000000        -3.400122992732569E-082
   100.996875000000        -1.172231941017722E-082
   101.210625000000         2.666475510233093E-082
   101.424375000000         8.169145939813194E-082
   101.638125000000         1.502864834405052E-081
   101.851875000000         2.243882930661305E-081
   102.065625000000         2.899238281557687E-081
   102.279375000000         3.266044568679339E-081
   102.493125000000         3.090569073982632E-081
   102.706875000000         2.097899426003417E-081
   102.920625000000         4.353800923069865E-083
   103.134375000000        -3.212588292727622E-081
   103.348125000000        -7.614146446657042E-081
   103.561875000000        -1.280955218554515E-080
   103.775625000000        -1.806518727674065E-080
   103.989375000000        -2.221740363554967E-080
   104.203125000000        -2.369600702301634E-080
   104.416875000000        -2.065366676675059E-080
   104.630625000000        -1.123051945540696E-080
   104.844375000000         6.031482284361357E-081
   105.058125000000         3.163601511652048E-080
   105.271875000000         6.449085432402363E-080
   105.485625000000         1.012735901076348E-079
   105.699375000000         1.359514576098390E-079
   105.913125000000         1.596469327795189E-079
   106.126875000000         1.610664143362543E-079
   106.340625000000         1.276998717102052E-079
   106.554375000000         4.793823870313039E-080
   106.768125000000        -8.587109886827880E-080
   106.981875000000        -2.736083399525300E-079
   107.195625000000        -5.032453888071312E-079
   107.409375000000        -7.471340294864640E-079
   107.623125000000        -9.597597226332335E-079
   107.836875000000        -1.078225378040350E-078
   108.050625000000        -1.026789358569175E-078
   108.264375000000        -7.265816128243358E-079
   108.478125000000        -1.110713386327836E-079
   108.691875000000         8.530997454420195E-079
   108.905625000000         2.141671330721971E-078
   109.119375000000         3.648141632086040E-078
   109.333125000000         5.164196495686506E-078
   109.546875000000         6.371987161471930E-078
   109.760625000000         6.855942629119142E-078
   109.974375000000         6.141480377239067E-078
   110.188125000000         3.765909750198326E-078
   110.401875000000        -6.174180533630545E-079
   110.615625000000        -7.107235489520223E-078
   110.829375000000        -1.540893643646872E-077
   111.043125000000        -2.469968666381805E-077
   111.256875000000        -3.353779742465347E-077
   111.470625000000        -3.985730880154812E-077
   111.684375000000        -4.109079378072721E-077
   111.898125000000        -3.445737190491514E-077
   112.111875000000        -1.743618330570429E-077
   112.325625000000         1.158349935846206E-077
   112.539375000000         5.252553673359978E-077
   112.753125000000         1.028240210167249E-076
   112.966875000000         1.567481644461038E-076
   113.180625000000         2.050557613747457E-076
   113.394375000000         2.352032334491333E-076
   113.608125000000         2.323330202277059E-076
   113.821875000000         1.812027370755836E-076
   114.035625000000         6.910389407171279E-077
   114.249375000000        -1.103628020664788E-076
   114.463125000000        -3.530258023784896E-076
   114.676875000000        -6.400358763620972E-076
   114.890625000000        -9.348195731422739E-076
   115.104375000000        -1.182199087834141E-075
   115.318125000000        -1.310851518862340E-075
   115.531875000000        -1.240139448858765E-075
   115.745625000000        -8.919307181343252E-076
   115.959375000000        -2.072996307800679E-076
   116.173125000000         8.330277354442231E-076
   116.386875000000         2.186882265946583E-075
   116.600625000000         3.731253174663073E-075
   116.814375000000         5.250206130452408E-075
   117.028125000000         6.435766857813306E-075
   117.241875000000         6.907335487423881E-075
   117.455625000000         6.253969621517494E-075
   117.669375000000         4.101250553748516E-075
   117.883125000000         2.003449758954231E-076
   118.096875000000        -5.468529398852491E-075
   118.310625000000        -1.259222052502488E-074
   118.524375000000        -2.044042736177280E-074
   118.738125000000        -2.782600395079717E-074
   118.951875000000        -3.313655759904878E-074
   119.165625000000        -3.446162872846937E-074
   119.379375000000        -2.983147228779110E-074
   119.593125000000        -1.756860909736361E-074
   119.806875000000         3.267970869941608E-075
   120.020625000000         3.239232771365710E-074
   120.234375000000         6.782938102043829E-074
   120.448125000000         1.055810566975715E-073
   120.661875000000         1.395375635628494E-073
   120.875625000000         1.617518244894962E-073
   121.089375000000         1.631742760131393E-073
   121.303125000000         1.348974703527111E-073
   121.516875000000         6.988343020429038E-074
   121.730625000000        -3.495542582834050E-074
   121.944375000000        -1.765695996248624E-073
   122.158125000000        -3.438471133615353E-073
   122.371875000000        -5.164139976424154E-073
   122.585625000000        -6.646742811530000E-073
   122.799375000000        -7.515753238372134E-073
   123.013125000000        -7.364550275226583E-073
   123.226875000000        -5.810813037093090E-073
   123.440625000000        -2.576317922038303E-073
   123.654375000000         2.420943177989273E-073
   123.868125000000         8.974419866178117E-073