  -1.60312500000000         0.000000000000000E+000
  -1.38937500000000        -1.411730191298175E-012
  -1.17562500000000        -9.863217930677899E-012
 -0.961875000000000        -4.715436556928207E-011
 -0.748125000000000        -1.817872697472669E-010
 -0.534375000000000        -5.884570844870099E-010
 -0.320625000000000        -1.628115688912120E-009
 -0.106875000000000        -3.905186019262046E-009
  0.106875000000000        -8.237053084382689E-009
  0.320625000000000        -1.550591922303759E-008
  0.534375000000000        -2.646282455326293E-008
  0.748125000000000        -4.158204648032109E-008
  0.961875000000000        -6.096154787442921E-008
   1.17562500000000        -8.444377147872805E-008
   1.38937500000000        -1.117115910605739E-007
   1.60312500000000        -1.421796596435387E-007
   1.81687500000000        -1.751206807260718E-007
   2.03062500000000        -2.096992601941724E-007
   2.24437500000000        -2.439191744182578E-007
   2.45812500000000        -2.791375700216094E-007
   2.67187500000000        -3.122796501478043E-007
   2.88562500000000        -3.454069179533070E-007
   3.09937500000000        -3.765439650958854E-007
   3.31312500000000        -4.045431686996390E-007
   3.52687500000000        -4.292763294082150E-007
   3.74062500000000        -4.505884580088956E-007
   3.95437500000000        -4.683636339046983E-007
   4.16812500000000        -4.824685796206547E-007
   4.38187500000000        -4.923922512829372E-007
   4.59562500000000        -4.980109937272260E-007
   4.80937500000000        -4.997519106092905E-007
   5.02312500000000        -4.977140328639248E-007
   5.23687500000000        -4.916252526042265E-007
   5.45062500000000        -4.818809191949901E-007
   5.66437500000000        -4.690472544514060E-007
   5.87812500000000        -4.539282456656922E-007
   6.09187500000000        -4.375331111876761E-007
   6.30562500000000        -4.208175210846113E-007
   6.51937500000000        -4.047922313684700E-007
   6.73312500000000        -3.921905385939704E-007
   6.94687500000000        -3.818404369140253E-007
   7.16062500000000        -3.776281993139232E-007
   7.37437500000000        -3.793498173151932E-007
   7.58812500000000        -3.868769966234600E-007
   7.80187500000000        -3.997193813341787E-007
   8.01562500000000        -4.167900537837156E-007
   8.22937500000000        -4.365221472662692E-007
   8.44312500000000        -4.569873448786036E-007
   8.65687500000000        -4.760902313502998E-007
   8.87062500000000        -4.917419859753648E-007
   9.08437500000000        -5.020825155915236E-007
   9.29812500000000        -5.056088678462166E-007
   9.51187500000000        -5.016958099647890E-007
   9.72562500000000        -4.892140180384329E-007
   9.93937500000000        -4.694453846937626E-007
   10.1531250000000        -4.436099614772679E-007
   10.3668750000000        -4.134170941972740E-007
   10.5806250000000        -3.809446739943261E-007
   10.7943750000000        -3.484282671326412E-007
   11.0081250000000        -3.180530008940886E-007
   11.2218750000000        -2.948017201004930E-007
   11.4356250000000        -2.733572170287000E-007
   11.6493750000000        -2.629289484972108E-007
   11.8631250000000        -2.523751624707224E-007
   12.0768750000000        -2.549829686947000E-007
   12.2906250000000        -2.549591714061184E-007
   12.5043750000000        -2.650640320486806E-007
   12.7181250000000        -2.701677457584512E-007
   12.9318750000000        -2.799156751053673E-007
   13.1456250000000        -2.839578741074044E-007
   13.3593750000000        -2.886061709646375E-007
   13.5731250000000        -2.908716231287946E-007
   13.7868750000000        -2.906166424133723E-007
   14.0006250000000        -2.880132538980345E-007
   14.2143750000000        -2.835785442120022E-007
   14.4281250000000        -2.781407153972984E-007
   14.6418750000000        -2.727100252545591E-007
   14.8556250000000        -2.683599816887796E-007
   15.0693750000000        -2.657634078655732E-007
   15.2831250000000        -2.651131081845710E-007
   15.4968750000000        -2.675507247598957E-007
   15.7106250000000        -2.729570449929399E-007
   15.9243750000000        -2.791540958665563E-007
   16.1381250000000        -2.856334002960845E-007
   16.3518750000000        -2.912297931559093E-007
   16.5656250000000        -2.952207686794855E-007
   16.7793750000000        -2.966299826500046E-007
   16.9931250000000        -2.944368532419116E-007
   17.2068750000000        -2.877418846154297E-007
   17.4206250000000        -2.732985870977515E-007
   17.6343750000000        -2.540307057838915E-007
   17.8481250000000        -2.398835820221405E-007
   18.0618750000000        -2.172778596193869E-007
   18.2756250000000        -2.031440953061662E-007
   18.4893750000000        -1.816736699847579E-007
   18.7031250000000        -1.657002044129724E-007
   18.9168750000000        -1.463161935769787E-007
   19.1306250000000        -1.269567230575923E-007
   19.3443750000000        -1.056374828009018E-007
   19.5581250000000        -8.191351319571978E-008
   19.7718750000000        -5.590392599411747E-008
   19.9856250000000        -2.819131407474921E-008
   20.1993750000000         4.043420232376579E-010
   20.4131250000000         2.846823454901038E-008
   20.6268750000000         5.427001019045355E-008
   20.8406250000000         7.521727414155917E-008
   21.0543750000000         8.903712918733209E-008
   21.2681250000000         9.401704179392727E-008
   21.4818750000000         8.893117874269477E-008
   21.6956250000000         7.186821029059092E-008
   21.9093750000000         4.307420556814802E-008
   22.1231250000000         3.450236939461178E-009
   22.3368750000000        -4.517731648360493E-008
   22.5506250000000        -1.002245257659548E-007
   22.7643750000000        -1.586251301772873E-007
   22.9781250000000        -2.167473626706012E-007
   23.1918750000000        -2.713871407271225E-007
   23.4056250000000        -3.201635131495322E-007
   23.6193750000000        -3.612071955518335E-007
   23.8331250000000        -3.936864142327718E-007
   24.0468750000000        -4.174633105259564E-007
   24.2606250000000        -4.330391644377918E-007
   24.4743750000000        -4.412702509498975E-007
   24.6881250000000        -4.434238695416523E-007
   24.9018750000000        -4.409233998117323E-007
   25.1156250000000        -4.352708528294628E-007
   25.3293750000000        -4.275808394216217E-007
   25.5431250000000        -4.170022865838409E-007
   25.7568750000000        -4.064170884004226E-007
   25.9706250000000        -3.961114200292325E-007
   26.1843750000000        -3.897303012175842E-007
   26.3981250000000        -3.753271175115261E-007
   26.6118750000000        -3.681675696670303E-007
   26.8256250000000        -3.521545393118416E-007
   27.0393750000000        -3.438379977959062E-007
   27.2531250000000        -3.298542915838345E-007
   27.4668750000000        -3.197565331941289E-007
   27.6806250000000        -3.132673778263165E-007
   27.8943750000000        -3.104275080954974E-007
   28.1081250000000        -3.108345394329879E-007
   28.3218750000000        -3.150077143423297E-007
   28.5356250000000        -3.215552856847595E-007
   28.7493750000000        -3.288733607267931E-007
   28.9631250000000        -3.349582447607801E-007
   29.1768750000000        -3.378440514425421E-007
   29.3906250000000        -3.356053974183569E-007
   29.6043750000000        -3.267966467477774E-007
   29.8181250000000        -3.109618245593712E-007
   30.0318750000000        -2.881447355260285E-007
   30.2456250000000        -2.573588380650125E-007
   30.4593750000000        -2.224291300474906E-007
   30.6731250000000        -1.840416157447609E-007
   30.8868750000000        -1.442670374836117E-007
   31.1006250000000        -1.052830483015099E-007
   31.3143750000000        -6.889586303076903E-008
   31.5281250000000        -3.644553837465401E-008
   31.7418750000000        -8.500942364406907E-009
   31.9556250000000         1.508708091208782E-008
   32.1693750000000         3.520842136131851E-008
   32.3831250000000         5.329601948073951E-008
   32.5968750000000         7.083716219169223E-008
   32.8106250000000         8.998816627449485E-008
   33.0243750000000         1.120069990710107E-007
   33.2381250000000         1.375758980802197E-007
   33.4518750000000         1.665846946398103E-007
   33.6656250000000         1.979753917624484E-007
   33.8793750000000         2.298117379301046E-007
   34.0931250000000         2.595113502473045E-007
   34.3068750000000         2.839784471601663E-007
   34.5206250000000         2.999130485263576E-007
   34.7343750000000         3.050367970601706E-007
   34.9481250000000         2.974639220462683E-007
   35.1618750000000         2.760871771125754E-007
   35.3756250000000         2.410850212303537E-007
   35.5893750000000         1.940439956078543E-007
   35.8031250000000         1.376247237563521E-007
   36.0168750000000         7.543583239498244E-008
   36.2306250000000         1.151730509818766E-008
   36.4443750000000        -5.021278139073349E-008
   36.6581250000000        -1.059704458996063E-007
   36.8718750000000        -1.563799483514794E-007
   37.0856250000000        -1.885382307014323E-007
   37.2993750000000        -2.118929528699298E-007
   37.5131250000000        -2.194243822062382E-007
   37.7268750000000        -2.241242993440582E-007
   37.9406250000000        -2.097221648787032E-007
   38.1543750000000        -1.908052128870883E-007
   38.3681250000000        -1.669019870544806E-007
   38.5818750000000        -1.396553653028433E-007
   38.7956250000000        -1.104766308916099E-007
   39.0093750000000        -8.032357379700531E-008
   39.2231250000000        -4.939430106106664E-008
   39.4368750000000        -1.761175899547129E-008
   39.6506250000000         1.815143713662859E-008
   39.8643750000000         4.942536290234576E-008
   40.0781250000000         7.922434867663182E-008
   40.2918750000000         1.056702375729246E-007
   40.5056250000000         1.261500355085877E-007
   40.7193750000000         1.389959436482349E-007
   40.9331250000000         1.388396748925212E-007
   41.1468750000000         1.353004865114032E-007
   41.3606250000000         1.142117485007090E-007
   41.5743750000000         8.276935603618207E-008
   41.7881250000000         4.209913863411636E-008
   42.0018750000000        -6.015776990548015E-009
   42.2156250000000        -5.867510848861373E-008
   42.4293750000000        -1.121842373975418E-007
   42.6431250000000        -1.627532829345630E-007
   42.8568750000000        -2.083669456490284E-007
   43.0706250000000        -2.350362711188992E-007
   43.2843750000000        -2.513354567934926E-007
   43.4981250000000        -2.457353413121530E-007
   43.7118750000000        -2.239575484766965E-007
   43.9256250000000        -1.867770395297973E-007
   44.1393750000000        -1.362609006841279E-007
   44.3531250000000        -7.556659701908260E-008
   44.5668750000000        -8.454863333271906E-009
   44.7806250000000         6.112477766163992E-008
   44.9943750000000         1.295417656760968E-007
   45.2081250000000         1.936231461427709E-007
   45.4218750000000         2.511297741213029E-007
   45.6356250000000         3.006435817358600E-007
   45.8493750000000         3.415533087071854E-007
   46.0631250000000         3.740067267571898E-007
   46.2768750000000         3.985775638698671E-007
   46.4906250000000         4.159342447939632E-007
   46.7043750000000         4.268821862059412E-007
   46.9181250000000         4.318934815697523E-007
   47.1318750000000         4.313094810108099E-007
   47.3456250000000         4.241598787769990E-007
   47.5593750000000         4.078535283507275E-007
   47.7731250000000         3.863319453976596E-007
   47.9868750000000         3.552176181646689E-007
   48.2006250000000         3.219812816774504E-007
   48.4143750000000         2.784198572979310E-007
   48.6281250000000         2.337349877767236E-007
   48.8418750000000         1.866524831905702E-007
   49.0556250000000         1.422894714881299E-007
   49.2693750000000         9.927346727672998E-008
   49.4831250000000         6.136940586738806E-008
   49.6968750000000         3.124393356547266E-008
   49.9106250000000         1.078157021070126E-008
   50.1243750000000         1.308552410683366E-009
   50.3381250000000         3.421785447780266E-009
   50.5518750000000         1.722495406054750E-008
   50.7656250000000         4.559764352398316E-008
   50.9793750000000         7.706012590891040E-008
   51.1931250000000         1.199062279946630E-007
   51.4068750000000         1.605433702174567E-007
   51.6206250000000         2.080366777092681E-007
   51.8343750000000         2.481268170020530E-007
   52.0481250000000         2.909663988821959E-007
   52.2618750000000         3.227503951069080E-007
   52.4756250000000         3.526135017939492E-007
   52.6893750000000         3.748260193809839E-007
   52.9031250000000         3.895719716189008E-007
   53.1168750000000         3.994759655018896E-007
   53.3306250000000         4.033505113488976E-007
   53.5443750000000         4.024816884866056E-007
   53.7581250000000         3.974306446316956E-007
   53.9718750000000         3.889034109900910E-007
   54.1856250000000         3.776616952225886E-007
   54.3993750000000         3.646278056724059E-007
   54.6131250000000         3.507971773433768E-007
   54.8268750000000         3.372506378908419E-007
   55.0406250000000         3.250969110616404E-007
   55.2543750000000         3.154325561444244E-007
   55.4681250000000         3.092832177616800E-007
   55.6818750000000         3.075200262587809E-007
   55.8956250000000         3.106928840026731E-007
   56.1093750000000         3.191281354217269E-007
   56.3231250000000         3.329865205585366E-007
   56.5368750000000         3.514077693072800E-007
   56.7506250000000         3.720033166367028E-007
   56.9643750000000         3.964707726701607E-007
   57.1781250000000         4.227790165795566E-007
   57.3918750000000         4.497055074243906E-007
   57.6056250000000         4.759153445464537E-007
   57.8193750000000         5.003871823632627E-007
   58.0331250000000         5.218407413093328E-007
   58.2468750000000         5.398322619261927E-007
   58.4606250000000         5.540880246153621E-007
   58.6743750000000         5.645826378369846E-007
   58.8881250000000         5.683879248720787E-007
   59.1018750000000         5.729450580941815E-007
   59.3156250000000         5.689811273718747E-007
   59.5293750000000         5.678863504533796E-007
   59.7431250000000         5.646884788026577E-007
   59.9568750000000         5.615848044633370E-007
   60.1706250000000         5.594153702232729E-007
   60.3843750000000         5.578754503845055E-007
   60.5981250000000         5.574345499060915E-007
   60.8118750000000         5.580255892997971E-007
   61.0256250000000         5.628820550394316E-007
   61.2393750000000         5.604318197251360E-007
   61.4531250000000         5.664999713185947E-007
   61.6668750000000         5.685190575586525E-007
   61.8806250000000         5.688244324545865E-007
   62.0943750000000         5.682375927161291E-007
   62.3081250000000         5.668916712731184E-007
   62.5218750000000         5.655257929352725E-007
   62.7356250000000         5.629725693090396E-007
   62.9493750000000         5.626876250000252E-007
   63.1631250000000         5.537941525917832E-007
   63.3768750000000         5.454889927622085E-007
   63.5906250000000         5.281903572154398E-007
   63.8043750000000         5.063566246033525E-007
   64.0181250000000         4.843705288169729E-007
   64.2318750000000         4.517097858751434E-007
   64.4456250000000         4.154408940722366E-007
   64.6593750000000         3.778806966121128E-007
   64.8731250000000         3.411283872082736E-007
   65.0868750000000         3.080805904451463E-007
   65.3006250000000         2.820056870222312E-007
   65.5143750000000         2.659865318442131E-007
   65.7281250000000         2.640708548101604E-007
   65.9418750000000         2.764491738204487E-007
   66.1556250000000         3.051836099731253E-007
   66.3693750000000         3.505529668714610E-007
   66.5831250000000         4.096705000229229E-007
   66.7968750000000         4.796627221584150E-007
   67.0106250000000         5.564265527693132E-007
   67.2243750000000         6.352094211017280E-007
   67.4381250000000         7.111767976657311E-007
   67.6518750000000         7.838853406304092E-007
   67.8656250000000         8.381269075778247E-007
   68.0793750000000         8.858376154435864E-007
   68.2931250000000         9.120653295349423E-007
   68.5068750000000         9.274809525034137E-007
   68.7206250000000         9.258870322833063E-007
   68.9343750000000         9.170429627300636E-007
   69.1481250000000         9.022932060111644E-007
   69.3618750000000         8.849292199211270E-007
   69.5756250000000         8.678135497174561E-007
   69.7893750000000         8.530190142243957E-007
   70.0031250000000         8.415671082834935E-007
   70.2168750000000         8.334148694964243E-007
   70.4306250000000         8.276901653674915E-007
   70.6443750000000         8.234178351897155E-007
   70.8581250000000         8.182143205199894E-007
   71.0718750000000         8.104692674707890E-007
   71.2856250000000         7.997193837414745E-007
   71.4993750000000         7.827263273308443E-007
   71.7131250000000         7.721835619113606E-007
   71.9268750000000         7.585010427609184E-007
   72.1406250000000         7.542046239599439E-007
   72.3543750000000         7.531936457526414E-007
   72.5681250000000         7.681028442330057E-007
   72.7818750000000         7.958079769183915E-007
   72.9956250000000         8.338189885887048E-007
   73.2093750000000         8.864627967009270E-007
   73.4231250000000         9.502314091106054E-007
   73.6368750000000         1.019686980251486E-006
   73.8506250000000         1.090035951713678E-006
   74.0643750000000         1.155923005827692E-006
   74.2781250000000         1.212025204334477E-006
   74.4918750000000         1.253995797630651E-006
   74.7056250000000         1.278754393388671E-006
   74.9193750000000         1.285301080533262E-006
   75.1331250000000         1.272555977548075E-006
   75.3468750000000         1.239199927644100E-006
   75.5606250000000         1.200102830345580E-006
   75.7743750000000         1.147408259853344E-006
   75.9881250000000         1.096241056526258E-006
   76.2018750000000         1.047669379668768E-006
   76.4156250000000         1.007401097391650E-006
   76.6293750000000         9.743190207247079E-007
   76.8431250000000         9.504779516081080E-007
   77.0568750000000         9.356694158282251E-007
   77.2706250000000         9.283659469174863E-007
   77.4843750000000         9.263999796534406E-007
   77.6981250000000         9.327170824149228E-007
   77.9118750000000         9.313970742979543E-007
   78.1256250000000         9.355746166618148E-007
   78.3393750000000         9.264965383687781E-007
   78.5531250000000         9.224647207955501E-007
   78.7668750000000         9.052643015929857E-007
   78.9806250000000         8.952366318789731E-007
   79.1943750000000         8.779338702460896E-007
   79.4081250000000         8.664216254113983E-007
   79.6218750000000         8.603620968251324E-007
   79.8356250000000         8.627204403999483E-007
   80.0493750000000         8.729382618713733E-007
   80.2631250000000         8.910322889075619E-007
   80.4768750000000         9.149992233121968E-007
   80.6906250000000         9.426629211131357E-007
   80.9043750000000         9.714258027021089E-007
   81.1181250000000         9.939699095598197E-007
   81.3318750000000         1.018800200855817E-006
   81.5456250000000         1.034040461301645E-006
   81.7593750000000         1.046892603923100E-006
   81.9731250000000         1.052253888257412E-006
   82.1868750000000         1.047129149494122E-006
   82.4006250000000         1.044453002887187E-006
   82.6143750000000         1.036667821754544E-006
   82.8281250000000         1.031038737012270E-006
   83.0418750000000         1.026873354267504E-006
   83.2556250000000         1.027627404876089E-006
   83.4693750000000         1.033043302945870E-006
   83.6831250000000         1.044415378046902E-006
   83.8968750000000         1.062697961082854E-006
   84.1106250000000         1.090083187171500E-006
   84.3243750000000         1.116458669924410E-006
   84.5381250000000         1.151724218401495E-006
   84.7518750000000         1.181673472885806E-006
   84.9656250000000         1.211589631309498E-006
   85.1793750000000         1.237886691066173E-006
   85.3931250000000         1.260739548007027E-006
   85.6068750000000         1.276737706328578E-006
   85.8206250000000         1.294653008001512E-006
   86.0343750000000         1.306933576203823E-006
   86.2481250000000         1.323048034090330E-006
   86.4618750000000         1.342464293951235E-006
   86.6756250000000         1.366784339668371E-006
   86.8893750000000         1.397340653101065E-006
   87.1031250000000         1.428142576767673E-006
   87.3168750000000         1.476484976550302E-006
   87.5306250000000         1.524320280359887E-006
   87.7443750000000         1.588435708898437E-006
   87.9581250000000         1.649794013592945E-006
   88.1718750000000         1.720320812733401E-006
   88.3856250000000         1.788588594147362E-006
   88.5993750000000         1.851159735186769E-006
   88.8131250000000         1.905053743831837E-006
   89.0268750000000         1.947316829807818E-006
   89.2406250000000         1.975393854742482E-006
   89.4543750000000         1.988140496798678E-006
   89.6681250000000         1.984967530163630E-006
   89.8818750000000         1.966601869886159E-006
   90.0956250000000         1.934887114132096E-006
   90.3093750000000         1.891769465341123E-006
   90.5231250000000         1.840300223687348E-006
   90.7368750000000         1.783715020520097E-006
   90.9506250000000         1.725179787366860E-006
   91.1643750000000         1.667567313655503E-006
   91.3781250000000         1.613110013264352E-006
   91.5918750000000         1.563102079612528E-006
   91.8056250000000         1.518173533146424E-006
   92.0193750000000         1.478052800816996E-006
   92.2331250000000         1.442081910626939E-006
   92.4468750000000         1.409315885006724E-006
   92.6606250000000         1.378856782935640E-006
   92.8743750000000         1.350197930911730E-006
   93.0881250000000         1.323423483860021E-006
   93.3018750000000         1.299287864036911E-006
   93.5156250000000         1.279458197084146E-006
   93.7293750000000         1.265022480542687E-006
   93.9431250000000         1.259632394419259E-006
   94.1568750000000         1.262718375081843E-006
   94.3706250000000         1.276075550353529E-006
   94.5843750000000         1.300819331551311E-006
   94.7981250000000         1.335961571039315E-006
   95.0118750000000         1.380019338346917E-006
   95.2256250000000         1.429513288839689E-006
   95.4393750000000         1.480861142759592E-006
   95.6531250000000         1.530059258684745E-006
   95.8668750000000         1.575532780718945E-006
   96.0806250000000         1.604924864585291E-006
   96.2943750000000         1.623273678559558E-006
   96.5081250000000         1.629393136525926E-006
   96.7218750000000         1.624376043985098E-006
   96.9356250000000         1.610274249589284E-006
   97.1493750000000         1.590490966415885E-006
   97.3631250000000         1.569588294350879E-006
   97.5768750000000         1.550564569398948E-006
   97.7906250000000         1.540198595211551E-006
   98.0043750000000         1.541976791281606E-006
   98.2181250000000         1.558147800457178E-006
   98.4318750000000         1.588895913889589E-006
   98.6456250000000         1.632764129784111E-006
   98.8593750000000         1.687447425122231E-006
   99.0731250000000         1.748736313077370E-006
   99.2868750000000         1.812500949394457E-006
   99.5006250000000         1.878436582802710E-006
   99.7143750000000         1.931283207927556E-006
   99.9281250000000         1.980361683199719E-006
   100.141875000000         2.010988285240122E-006
   100.355625000000         2.032180718535157E-006
   100.569375000000         2.040935688108671E-006
   100.783125000000         2.040619393597923E-006
   100.996875000000         2.036607462203256E-006
   101.210625000000         2.032114507539762E-006
   101.424375000000         2.030632109725999E-006
   101.638125000000         2.034791084855314E-006
   101.851875000000         2.046139901801294E-006
   102.065625000000         2.061366746017643E-006
   102.279375000000         2.087699741924397E-006
   102.493125000000         2.113966696142836E-006
   102.706875000000         2.148385259554680E-006
   102.920625000000         2.179931562647951E-006
   103.134375000000         2.206322873640627E-006
   103.348125000000         2.226009704207382E-006
   103.561875000000         2.239153380915518E-006
   103.775625000000         2.244638107821965E-006
   103.989375000000         2.243809860284458E-006
   104.203125000000         2.238527035952343E-006
   104.416875000000         2.232196691146172E-006
   104.630625000000         2.228017043183318E-006
   104.844375000000         2.228682369995171E-006
   105.058125000000         2.235963879907721E-006
   105.271875000000         2.250426335038073E-006
   105.485625000000         2.270581864915017E-006
   105.699375000000         2.295070163780790E-006
   105.913125000000         2.319661207647730E-006
   106.126875000000         2.340489297190010E-006
   106.340625000000         2.353760240114666E-006
   106.554375000000         2.356296045312249E-006
   106.768125000000         2.346056488120803E-006
   106.981875000000         2.323058186241074E-006
   107.195625000000         2.288949932704083E-006
   107.409375000000         2.247118916997294E-006
   107.623125000000         2.202414583081262E-006
   107.836875000000         2.160236957474094E-006
   108.050625000000         2.125925284747451E-006
   108.264375000000         2.104034337103982E-006
   108.478125000000         2.098977129045843E-006
   108.691875000000         2.113588635281476E-006
   108.905625000000         2.141507496856296E-006
   109.119375000000         2.183278095600921E-006
   109.333125000000         2.232861642851204E-006
   109.546875000000         2.284046287090107E-006
   109.760625000000         2.330640386857524E-006
   109.974375000000         2.366008315102329E-006
   110.188125000000         2.385715874030594E-006
   110.401875000000         2.387658345782602E-006
   110.615625000000         2.371454714972563E-006
   110.829375000000         2.339222102427748E-006
   111.043125000000         2.295212683702988E-006
   111.256875000000         2.250504858215234E-006
   111.470625000000         2.196508318675732E-006
   111.684375000000         2.150825854837268E-006
   111.898125000000         2.122422554108377E-006
   112.111875000000         2.099619391397480E-006
   112.325625000000         2.095706028008147E-006
   112.539375000000         2.108528261879820E-006
   112.753125000000         2.134102508658433E-006
   112.966875000000         2.170687517629922E-006
   113.180625000000         2.213478853465575E-006
   113.394375000000         2.258185206034133E-006
   113.608125000000         2.301241637312888E-006
   113.821875000000         2.340450868620798E-006
   114.035625000000         2.374516531202628E-006
   114.249375000000         2.403970703528915E-006
   114.463125000000         2.430687451159481E-006
   114.676875000000         2.457348869278481E-006
   114.890625000000         2.486796104537900E-006
   115.104375000000         2.521522752674416E-006
   115.318125000000         2.563142758636930E-006
   115.531875000000         2.611937679548352E-006
   115.745625000000         2.666807132702943E-006
   115.959375000000         2.725231430077927E-006
   116.173125000000         2.783667223063890E-006
   116.386875000000         2.837983466544280E-006
   116.600625000000         2.884040447927050E-006
   116.814375000000         2.918357768053572E-006
   117.028125000000         2.938610374232930E-006
   117.241875000000         2.944696246701107E-006
   117.455625000000         2.936693523058452E-006
   117.669375000000         2.916528882242087E-006
   117.883125000000         2.887937309560512E-006
   118.096875000000         2.855972609280867E-006
   118.310625000000         2.825030325773964E-006
   118.524375000000         2.799300744376148E-006
   118.738125000000         2.782155581407474E-006
   118.951875000000         2.775637981636544E-006
   119.165625000000         2.779965687368399E-006
   119.379375000000         2.796101642128934E-006
   119.593125000000         2.821480765836330E-006
   119.806875000000         2.853097391511124E-006
   120.020625000000         2.887552625953664E-006
   120.234375000000         2.921287667304963E-006
   120.448125000000         2.951851703752776E-006
   120.661875000000         2.977624128913032E-006
   120.875625000000         2.998072987435857E-006
   121.089375000000         3.012463748691536E-006
   121.303125000000         3.016236367755331E-006
   121.516875000000         3.012060160352547E-006
   121.730625000000         3.000361566825592E-006
   121.944375000000         2.983589512276411E-006
   122.158125000000         2.962856105730669E-006
   122.371875000000         2.939431810684428E-006
   122.585625000000         2.914511686139291E-006
   122.799375000000         2.889351186463946E-006
   123.013125000000         2.865187905406593E-006
   123.226875000000         2.843760242934432E-006
   123.440625000000         2.826336592900173E-006
   123.654375000000         2.814095590458375E-006
   123.868125000000         2.808507856358427E-006