  -1.60312500000000         0.000000000000000E+000
  -1.38937500000000         0.000000000000000E+000
  -1.17562500000000         0.000000000000000E+000
 -0.961875000000000         0.000000000000000E+000
 -0.748125000000000         0.000000000000000E+000
 -0.534375000000000         0.000000000000000E+000
 -0.320625000000000         0.000000000000000E+000
 -0.106875000000000         0.000000000000000E+000
  0.106875000000000         0.000000000000000E+000
  0.320625000000000         0.000000000000000E+000
  0.534375000000000         0.000000000000000E+000
  0.748125000000000         0.000000000000000E+000
  0.961875000000000         0.000000000000000E+000
   1.17562500000000         0.000000000000000E+000
   1.38937500000000         0.000000000000000E+000
   1.60312500000000         0.000000000000000E+000
   1.81687500000000         0.000000000000000E+000
   2.03062500000000         0.000000000000000E+000
   2.24437500000000         0.000000000000000E+000
   2.45812500000000         0.000000000000000E+000
   2.67187500000000         0.000000000000000E+000
   2.88562500000000         0.000000000000000E+000
   3.09937500000000         0.000000000000000E+000
   3.31312500000000         0.000000000000000E+000
   3.52687500000000         0.000000000000000E+000
   3.74062500000000         0.000000000000000E+000
   3.95437500000000         0.000000000000000E+000
   4.16812500000000         0.000000000000000E+000
   4.38187500000000         0.000000000000000E+000
   4.59562500000000         0.000000000000000E+000
   4.80937500000000         0.000000000000000E+000
   5.02312500000000         0.000000000000000E+000
   5.23687500000000         0.000000000000000E+000
   5.45062500000000         0.000000000000000E+000
   5.66437500000000         0.000000000000000E+000
   5.87812500000000         0.000000000000000E+000
   6.09187500000000         0.000000000000000E+000
   6.30562500000000         0.000000000000000E+000
   6.51937500000000         0.000000000000000E+000
   6.73312500000000         0.000000000000000E+000
   6.94687500000000         0.000000000000000E+000
   7.16062500000000         0.000000000000000E+000
   7.37437500000000         0.000000000000000E+000
   7.58812500000000         0.000000000000000E+000
   7.80187500000000         0.000000000000000E+000
   8.01562500000000         0.000000000000000E+000
   8.22937500000000         0.000000000000000E+000
   8.44312500000000         0.000000000000000E+000
   8.65687500000000         0.000000000000000E+000
   8.87062500000000         0.000000000000000E+000
   9.08437500000000         0.000000000000000E+000
   9.29812500000000        -1.438575519859523E-209
   9.51187500000000         1.083374600441869E-202
   9.72562500000000         1.290590621184177E-198
   9.93937500000000        -6.235777555877751E-197
   10.1531250000000         1.305383358724533E-194
   10.3668750000000         6.034802773371470E-193
   10.5806250000000         2.125536988392618E-191
   10.7943750000000         8.816030513284706E-190
   11.0081250000000         2.828723670390803E-188
   11.2218750000000         6.169419237534182E-187
   11.4356250000000         9.381219205951002E-186
   11.6493750000000         1.051495975404991E-184
   11.8631250000000         1.044752431775938E-183
   12.0768750000000         1.456263127811536E-182
   12.2906250000000         2.984710940913288E-181
   12.5043750000000         5.908601087855887E-180
   12.7181250000000         9.720132778480385E-179
   12.9318750000000         1.330429345074465E-177
   13.1456250000000         1.552348273477779E-176
   13.3593750000000         1.577533785834950E-175
   13.5731250000000         1.418695712139240E-174
   13.7868750000000         1.141873951339547E-173
   14.0006250000000         8.287231953101243E-173
   14.2143750000000         5.445361433812395E-172
   14.4281250000000         3.240797465334321E-171
   14.6418750000000         1.739209996732833E-170
   14.8556250000000         8.309971129587841E-170
   15.0693750000000         3.427865782777068E-169
   15.2831250000000         1.121164928532849E-168
   15.4968750000000         1.952666220550568E-168
   15.7106250000000        -8.903016913035887E-168
   15.9243750000000        -1.247550935673546E-166
   16.1381250000000        -9.030498555755306E-166
   16.3518750000000        -5.171036858749866E-165
   16.5656250000000        -2.557560520575645E-164
   16.7793750000000        -1.125499236228265E-163
   16.9931250000000        -4.440975620664230E-163
   17.2068750000000        -1.558261822464054E-162
   17.4206250000000        -4.706760822744377E-162
   17.6343750000000        -1.104853622510499E-161
   17.8481250000000        -1.111841122998144E-161
   18.0618750000000         7.697763189223697E-161
   18.2756250000000         6.909036033083419E-160
   18.4893750000000         3.745323873436448E-159
   18.7031250000000         1.658711231131309E-158
   18.9168750000000         6.452679829927615E-158
   19.1306250000000         2.261143751770731E-157
   19.3443750000000         7.178116878061521E-157
   19.5581250000000         2.044567710237074E-156
   19.7718750000000         5.048269199005697E-156
   19.9856250000000         9.691269349747817E-156
   20.1993750000000         7.322354240180972E-156
   20.4131250000000        -5.340301690672349E-155
   20.6268750000000        -3.937943544884548E-154
   20.8406250000000        -1.832292576105202E-153
   21.0543750000000        -7.104806751236734E-153
   21.2681250000000        -2.466527270752968E-152
   21.4818750000000        -7.891593297151518E-152
   21.6956250000000        -2.359294009729425E-151
   21.9093750000000        -6.634276105554330E-151
   22.1231250000000        -1.758296999963119E-150
   22.3368750000000        -4.384156382107980E-150
   22.5506250000000        -1.021721811245447E-149
   22.7643750000000        -2.193739208351930E-149
   22.9781250000000        -4.205261195568452E-149
   23.1918750000000        -6.629599622325543E-149
   23.4056250000000        -5.994706732218840E-149
   23.6193750000000         1.129761891821124E-148
   23.8331250000000         8.786405175434636E-148
   24.0468750000000         3.414477311603669E-147
   24.2606250000000         1.068694852965384E-146
   24.4743750000000         2.959995847995046E-146
   24.6881250000000         7.502415678036654E-146
   24.9018750000000         1.763705137249353E-145
   25.1156250000000         3.858240039185065E-145
   25.3293750000000         7.814997424214651E-145
   25.5431250000000         1.441979535935449E-144
   25.7568750000000         2.326927895729475E-144
   25.9706250000000         2.904827060443649E-144
   26.1843750000000         1.176401758988506E-144
   26.3981250000000        -8.620608640517147E-144
   26.6118750000000        -4.096068688005709E-143
   26.8256250000000        -1.289031725422580E-142
   27.0393750000000        -3.422844517668740E-142
   27.2531250000000        -8.183209388378214E-142
   27.4668750000000        -1.807203498115224E-141
   27.6806250000000        -3.727550480477131E-141
   27.8943750000000        -7.205052797226252E-141
   28.1081250000000        -1.302016783132534E-140
   28.3218750000000        -2.180296219996360E-140
   28.5356250000000        -3.318054644102018E-140
   28.7493750000000        -4.394471675892570E-140
   28.9631250000000        -4.482760277819473E-140
   29.1768750000000        -1.608806589732245E-140
   29.3906250000000         7.574015082301077E-140
   29.6043750000000         2.722466446245462E-139
   29.8181250000000         5.902373162278641E-139
   30.0318750000000         9.256338836881456E-139
   30.2456250000000         8.390885034963070E-139
   30.4593750000000        -8.284186047266387E-139
   30.6731250000000        -6.463739354209890E-138
   30.8868750000000        -1.990310710950166E-137
   31.1006250000000        -4.497800083840271E-137
   31.3143750000000        -7.879721258794781E-137
   31.5281250000000        -9.190547093727065E-137
   31.7418750000000         1.963340735539359E-137
   31.9556250000000         5.345164394959312E-136
   32.1693750000000         2.089750569463092E-135
   32.3831250000000         5.966614414233681E-135
   32.5968750000000         1.443057477231202E-134
   32.8106250000000         3.087805656644792E-134
   33.0243750000000         5.908452660955396E-134
   33.2381250000000         9.994966347127908E-134
   33.4518750000000         1.426260511383211E-133
   33.6656250000000         1.448422840213917E-133
   33.8793750000000        -4.667028010718969E-135
   34.0931250000000        -5.480501506002912E-133
   34.3068750000000        -1.942193802321999E-132
   34.5206250000000        -4.934575354622645E-132
   34.7343750000000        -1.053722024648440E-131
   34.9481250000000        -1.968175744304643E-131
   35.1618750000000        -3.213734717649884E-131
   35.3756250000000        -4.400560484223023E-131
   35.5893750000000        -4.287155134125402E-131
   35.8031250000000         2.264634980106197E-133
   36.0168750000000         1.418221645523836E-130
   36.2306250000000         4.767831702146485E-130
   36.4443750000000         1.138764933286912E-129
   36.6581250000000         2.267900245367836E-129
   36.8718750000000         3.904178268044672E-129
   37.0856250000000         5.741648559378230E-129
   37.2993750000000         6.661934695330386E-129
   37.5131250000000         3.982610467659676E-129
   37.7268750000000        -7.540510997909323E-129
   37.9406250000000        -3.664275972263855E-128
   38.1543750000000        -9.553742855164548E-128
   38.3681250000000        -1.971392226923561E-127
   38.5818750000000        -3.463770353027813E-127
   38.7956250000000        -5.210543133332000E-127
   39.0093750000000        -6.371889418348013E-127
   39.2231250000000        -4.960863971020371E-127
   39.4368750000000         2.810208659243647E-127
   39.6506250000000         2.305256546601391E-126
   39.8643750000000         6.397786921146289E-126
   40.0781250000000         1.337656201152830E-125
   40.2918750000000         2.346886046388243E-125
   40.5056250000000         3.511430627948185E-125
   40.7193750000000         4.294774472735160E-125
   40.9331250000000         3.496508179830765E-125
   41.1468750000000        -1.055456307812969E-125
   41.3606250000000        -1.266721540013385E-124
   41.5743750000000        -3.544368652109814E-124
   41.7881250000000        -7.286173762363218E-124
   42.0018750000000        -1.244216798103154E-123
   42.2156250000000        -1.794856261687548E-123
   42.4293750000000        -2.078431927751818E-123
   42.6431250000000        -1.479689597033122E-123
   42.8568750000000         1.030155691882765E-123
   43.0706250000000         6.884242002256258E-123
   43.2843750000000         1.763416454204836E-122
   43.4981250000000         3.413654112689157E-122
   43.7118750000000         5.490772197245490E-122
   43.9256250000000         7.339885718956231E-122
   44.1393750000000         7.424258784562195E-122
   44.3531250000000         2.924737121639451E-122
   44.5668750000000        -1.047348551207276E-121
   44.7806250000000        -3.818457875003476E-121
   44.9943750000000        -8.502381629394893E-121
   45.2081250000000        -1.512540288986044E-120
   45.4218750000000        -2.253392019465674E-120
   45.6356250000000        -2.727706469554699E-120
   45.8493750000000        -2.217095305813794E-120
   46.0631250000000         5.080353912676390E-121
   46.2768750000000         7.229842729438144E-120
   46.4906250000000         2.005589714268084E-119
   46.7043750000000         4.064707671623998E-119
   46.9181250000000         6.851965316203843E-119
   47.1318750000000         9.799473624166075E-119
   47.3456250000000         1.134944119670803E-118
   47.5593750000000         8.337309381796689E-119
   47.7731250000000        -4.639436311454823E-119
   47.9868750000000        -3.552164090386574E-118
   48.2006250000000        -9.406657783858302E-118
   48.4143750000000        -1.889229438405699E-117
   48.6281250000000        -3.207485740991668E-117
   48.8418750000000        -4.691642847842625E-117
   49.0556250000000        -5.714718205819680E-117
   49.2693750000000        -4.926564766772370E-117
   49.4831250000000         9.351175564019989E-119
   49.6968750000000         1.309930550905329E-116
   49.9106250000000         3.906154435071901E-116
   50.1243750000000         8.313567025051187E-116
   50.3381250000000         1.478690318430719E-115
   50.5518750000000         2.275194678566195E-115
   50.7656250000000         2.983117436469646E-115
   50.9793750000000         3.040609510834377E-115
   51.1931250000000         1.385044168464049E-115
   51.4068750000000        -3.701962312583230E-115
   51.6206250000000        -1.460046627707103E-114
   51.8343750000000        -3.397254127712105E-114
   52.0481250000000        -6.362489181208839E-114
   52.2618750000000        -1.021206542058568E-113
   52.4756250000000        -1.406363671847117E-113
   52.6893750000000        -1.568325019103112E-113
   52.9031250000000        -1.073261999345860E-113
   53.1168750000000         7.894338137271551E-114
   53.3306250000000         5.012759258934676E-113
   53.5443750000000         1.272372826382736E-112
   53.7581250000000         2.473954189585770E-112
   53.9718750000000         4.064964780917754E-112
   54.1856250000000         5.725601048472477E-112
   54.3993750000000         6.632535466908202E-112
   54.6131250000000         5.192675580502722E-112
   54.8268750000000        -1.175510143086895E-112
   55.0406250000000        -1.602551875556903E-111
   55.2543750000000        -4.331164853815135E-111
   55.4681250000000        -8.580468366259171E-111
   55.6818750000000        -1.419561737107216E-110
   55.8956250000000        -2.007753145472399E-110
   56.1093750000000        -2.347559293384732E-110
   56.3231250000000        -1.919774767841552E-110
   56.5368750000000         9.561920869570294E-112
   56.7506250000000         4.794459444524167E-110
   56.9643750000000         1.334696147675889E-109
   57.1781250000000         2.649272804676003E-109
   57.3918750000000         4.359655033923474E-109
   57.6056250000000         6.117933170726172E-109
   57.8193750000000         7.099573111014893E-109
   58.0331250000000         5.805015154138971E-109
   58.2468750000000        -5.319757893101936E-111
   58.4606250000000        -1.341377542206709E-108
   58.6743750000000        -3.723605861017858E-108
   58.8881250000000        -7.307205949190969E-108
   59.1018750000000        -1.185558428462155E-107
   59.3156250000000        -1.637043272080442E-107
   59.5293750000000        -1.863716175558619E-107
   59.7431250000000        -1.480206425812893E-107
   59.9568750000000         7.779336010340540E-109
   60.1706250000000         3.501478653645097E-107
   60.3843750000000         9.434615297374515E-107
   60.5981250000000         1.811441991468181E-106
   60.8118750000000         2.877863203016406E-106
   61.0256250000000         3.884195956960024E-106
   61.2393750000000         4.295606239823113E-106
   61.4531250000000         3.225275938050214E-106
   61.6668750000000        -5.670701818509623E-107
   61.8806250000000        -8.516853264636199E-106
   62.0943750000000        -2.182683382602035E-105
   62.3081250000000        -4.065875369139473E-105
   62.5218750000000        -6.288081936784101E-105
   62.7356250000000        -8.243633664203028E-105
   62.9493750000000        -8.764110457993675E-105
   63.1631250000000        -6.008885739909434E-105
   63.3768750000000         2.467922427150457E-105
   63.5906250000000         1.931005020812327E-104
   63.8043750000000         4.641856246812996E-104
   64.0181250000000         8.331063732976030E-104
   64.2318750000000         1.247355348717312E-103
   64.4456250000000         1.577836721436601E-103
   64.6593750000000         1.591965629727433E-103
   64.8731250000000         9.425155282335284E-104
   65.0868750000000        -8.062702848804137E-104
   65.3006250000000        -4.087067727078284E-103
   65.5143750000000        -9.142445602978816E-103
   65.7281250000000        -1.572181796512725E-102
   65.9418750000000        -2.266948857321359E-102
   66.1556250000000        -2.746426914571501E-102
   66.3693750000000        -2.585399056066551E-102
   66.5831250000000        -1.183585306566635E-102
   66.7968750000000         2.165383811706207E-102
   67.0106250000000         8.090135833059886E-102
   67.2243750000000         1.680195653629967E-101
   67.4381250000000         2.758149107730123E-101
   67.6518750000000         3.812731018854887E-101
   67.8656250000000         4.389440531881392E-101
   68.0793750000000         3.768310615967217E-101
   68.2931250000000         9.896805883253270E-102
   68.5068750000000        -4.996884077532485E-101
   68.7206250000000        -1.499838072243880E-100
   68.9343750000000        -2.901016033455730E-100
   69.1481250000000        -4.541124068459913E-100
   69.3618750000000        -6.001308779100205E-100
   69.5756250000000        -6.519835517336343E-100
   69.7893750000000        -4.958074344530397E-100
   70.0031250000000         1.170880136188564E-101
   70.2168750000000         1.015388460227627E-099
   70.4306250000000         2.605876144118444E-099
   70.6443750000000         4.731285014286324E-099
   70.8581250000000         7.079355327587875E-099
   71.0718750000000         8.947833545649974E-099
   71.2856250000000         9.142229560891928E-099
   71.4993750000000         5.966686685177101E-099
   71.7131250000000        -2.600017363729432E-099
   71.9268750000000        -1.843568730031746E-098
   72.1406250000000        -4.241641013732257E-098
   72.3543750000000        -7.312996900411688E-098
   72.5681250000000        -1.052487813558359E-097
   72.7818750000000        -1.278608411352235E-097
   72.9956250000000        -1.233499399570336E-097
   73.2093750000000        -6.775687741464915E-098
   73.4231250000000         6.614212303742451E-098
   73.6368750000000         3.016808674342862E-097
   73.8506250000000         6.459828925895952E-097
   74.0643750000000         1.072301901631558E-096
   74.2781250000000         1.498658097386985E-096
   74.4918750000000         1.767245910351281E-096
   74.7056250000000         1.632848126761426E-096
   74.9193750000000         7.726250338959129E-097
   75.1331250000000        -1.167006259268756E-096
   75.3468750000000        -4.470027423361705E-096
   75.5606250000000        -9.185264931334395E-096
   75.7743750000000        -1.489679434970021E-095
   75.9881250000000        -2.045532131193409E-095
   76.2018750000000        -2.373144049450950E-095
   76.4156250000000        -2.149739473051968E-095
   76.6293750000000        -9.591985619965739E-096
   76.8431250000000         1.644116486901474E-095
   77.0568750000000         6.005181919941696E-095
   77.2706250000000         1.215936145036926E-094
   77.4843750000000         1.954881141101299E-094
   77.6981250000000         2.669762187958643E-094
   77.9118750000000         3.092177458887713E-094
   78.1256250000000         2.820293570801120E-094
   78.3393750000000         1.340891108287896E-094
   78.5531250000000        -1.891917566992479E-094
   78.7668750000000        -7.299860520332785E-094
   78.9806250000000        -1.493236302227211E-093
   79.1943750000000        -2.413337121912542E-093
   79.4081250000000        -3.316296646051888E-093
   79.6218750000000        -3.886162535554165E-093
   79.8356250000000        -3.650352173812555E-093
   80.0493750000000        -2.004366679599911E-093
   80.2631250000000         1.699725793856798E-093
   80.4768750000000         7.977514951303994E-093
   80.6906250000000         1.693485070510265E-092
   80.9043750000000         2.789572601982539E-092
   81.1181250000000         3.897841364845205E-092
   81.3318750000000         4.671399561413574E-092
   81.5456250000000         4.586333501773178E-092
   81.7593750000000         2.965001628652793E-092
   81.9731250000000        -9.331969953191152E-093
   82.1868750000000        -7.728485001561046E-092
   82.4006250000000        -1.762898206074153E-091
   82.6143750000000        -3.003625257137190E-091
   82.8281250000000        -4.309022630101290E-091
   83.0418750000000        -5.324724361455068E-091
   83.2556250000000        -5.504757221950199E-091
   83.4693750000000        -4.129139854246960E-091
   83.6831250000000        -3.885851439693271E-092
   83.8968750000000         6.437774861407159E-091
   84.1106250000000         1.669420007836415E-090
   84.3243750000000         2.995243778928607E-090
   84.5381250000000         4.454545463966948E-090
   84.7518750000000         5.711755542470469E-090
   84.9656250000000         6.233805809944014E-090
   85.1793750000000         5.298728500502654E-090
   85.3931250000000         2.066894383402704E-090
   85.6068750000000        -4.259340990055418E-090
   85.8206250000000        -1.416878879743152E-089
   86.0343750000000        -2.746620792331500E-089
   86.2481250000000        -4.281841786362959E-089
   86.4618750000000        -5.729616140693309E-089
   86.6756250000000        -6.604169780409262E-089
   86.8893750000000        -6.225022778400341E-089
   87.1031250000000        -3.769898407157869E-089
   87.3168750000000         1.593084397594776E-089
   87.5306250000000         1.047449805740087E-088
   87.7443750000000         2.292878393153954E-088
   87.9581250000000         3.803616989542118E-088
   88.1718750000000         5.346023466641030E-088
   88.3856250000000         6.508859684511035E-088
   88.5993750000000         6.691661684574467E-088
   88.8131250000000         5.137821220341254E-088
   89.0268750000000         1.034585469271551E-088
   89.2406250000000        -6.300958824591210E-088
   89.4543750000000        -1.714145271805015E-087
   89.6681250000000        -3.098616270320865E-087
   89.8818750000000        -4.615786902722930E-087
   90.0956250000000        -5.944267235405273E-087
   90.3093750000000        -6.590062686123177E-087
   90.5231250000000        -5.901570128549397E-087
   90.7368750000000        -3.137577854873574E-087
   90.9506250000000         2.394111190126924E-087
   91.1643750000000         1.111699669921306E-086
   91.3781250000000         2.288949344600100E-086
   91.5918750000000         3.665966002712144E-086
   91.8056250000000         5.013045217435689E-086
   92.0193750000000         5.953152898954601E-086
   92.2331250000000         5.962885183286301E-086
   92.4468750000000         4.412686447172470E-086
   92.6606250000000         6.616122529094873E-087
   92.8743750000000        -5.782414571477654E-086
   93.0881250000000        -1.503592912581759E-085
   93.3018750000000        -2.656264420085807E-085
   93.5156250000000        -3.888476911056437E-085
   93.7293750000000        -4.935033832706282E-085
   93.9431250000000        -5.405273075942971E-085
   94.1568750000000        -4.802081485359905E-085
   94.3706250000000        -2.580404412417378E-085
   94.5843750000000         1.744545601124551E-085
   94.7981250000000         8.435417760392184E-085
   95.0118750000000         1.732439183928153E-084
   95.2256250000000         2.758190107527632E-084
   95.4393750000000         3.750643194777692E-084
   95.6531250000000         4.440153129213797E-084
   95.8668750000000         4.462526387239806E-084
   96.0806250000000         3.390683630028955E-084
   96.2943750000000         8.016669598035787E-085
   96.5081250000000        -3.615892988512075E-084
   96.7218750000000        -9.915661829016335E-084
   96.9356250000000        -1.772133075422886E-083
   97.1493750000000        -2.605473117606818E-083
   97.3631250000000        -3.320683813867202E-083
   97.5768750000000        -3.670925283649253E-083
   97.7906250000000        -3.347373497758587E-083
   98.0043750000000        -2.016675153204156E-083
   98.2181250000000         6.131293967594048E-084
   98.4318750000000         4.697211252471676E-083
   98.6456250000000         1.013462479781320E-082
   98.8593750000000         1.643963143113839E-082
   99.0731250000000         2.262908384224249E-082
   99.2868750000000         2.716230288163855E-082
   99.5006250000000         2.797856760536915E-082
   99.7143750000000         2.268026213796656E-082
   99.9281250000000         8.902866919142677E-083
   100.141875000000        -1.510762013823100E-082
   100.355625000000        -4.972654082365215E-082
   100.569375000000        -9.306305221180635E-082
   100.783125000000        -1.400934301683185E-081
   100.996875000000        -1.820303045039856E-081
   101.210625000000        -2.062096089365782E-081
   101.424375000000        -1.968152305683498E-081
   101.638125000000        -1.367462057906610E-081
   101.851875000000        -1.083666453514187E-082
   102.065625000000         1.895574958348478E-081
   102.279375000000         4.608995871045384E-081
   102.493125000000         7.814459466139009E-081
   102.706875000000         1.106032295726419E-080
   102.920625000000         1.363315959546009E-080
   103.134375000000         1.457457368723460E-080
   103.348125000000         1.276295675034421E-080
   103.561875000000         7.077142028772225E-081
   103.775625000000        -3.350484271484354E-081
   103.989375000000        -1.880004418567908E-080
   104.203125000000        -3.858096448789159E-080
   104.416875000000        -6.065915232114463E-080
   104.630625000000        -8.138380790296100E-080
   104.844375000000        -9.542840873889723E-080
   105.058125000000        -9.607335601018638E-080
   105.271875000000        -7.594901356478950E-080
   105.485625000000        -2.831796394105764E-080
   105.699375000000         5.110310564710620E-080
   105.913125000000         1.619009597074835E-079
   106.126875000000         2.965771754501685E-079
   106.340625000000         4.384628067429406E-079
   106.554375000000         5.605522653319825E-079
   106.768125000000         6.259887692188718E-079
   106.981875000000         5.909489054477033E-079
   107.195625000000         4.105328342798834E-079
   107.409375000000         4.792098382272183E-080
   107.623125000000        -5.135201879185850E-079
   107.836875000000        -1.256302661313062E-078
   108.050625000000        -2.115133926470741E-078
   108.264375000000        -2.966564553410350E-078
   108.478125000000        -3.625872220387282E-078
   108.691875000000        -3.855486083927913E-078
   108.905625000000        -3.388923898347344E-078
   109.119375000000        -1.972864552575762E-078
   109.333125000000         5.726001482312114E-079
   109.546875000000         4.279347787398141E-078
   109.760625000000         8.950989017538021E-078
   109.974375000000         1.409124040319346E-077
   110.188125000000         1.886025751583644E-077
   110.401875000000         2.208178239966550E-077
   110.615625000000         2.232431773352910E-077
   110.829375000000         1.807516780147590E-077
   111.043125000000         8.015745504102515E-078
   111.256875000000        -8.610654483006237E-078
   111.470625000000        -3.157096237315421E-077
   111.684375000000        -5.921461596282176E-077
   111.898125000000        -8.813488815916583E-077
   112.111875000000        -1.130316400779957E-076
   112.325625000000        -1.268990571452385E-076
   112.539375000000        -1.216526882413636E-076
   112.753125000000        -8.927289151520809E-077
   112.966875000000        -2.347135874544386E-077
   113.180625000000         7.821700788629832E-077
   113.394375000000         2.121470196961174E-076
   113.608125000000         3.664570992684841E-076
   113.821875000000         5.196561403005613E-076
   114.035625000000         6.405084522792834E-076
   114.249375000000         6.898339986716621E-076
   114.463125000000         6.247331539798187E-076
   114.676875000000         4.054851825028208E-076
   114.890625000000         4.942327566875580E-078
   115.104375000000        -5.803412316733695E-076
   115.318125000000        -1.318695480228268E-075
   115.531875000000        -2.133789556477138E-075
   115.745625000000        -2.899692972869928E-075
   115.959375000000        -3.443573514426571E-075
   116.173125000000        -3.558879173739200E-075
   116.386875000000        -3.031021145240853E-075
   116.600625000000        -1.675981611817256E-075
   116.814375000000         6.100996755250523E-076
   117.028125000000         3.795317123149715E-075
   117.241875000000         7.658658905288298E-075
   117.455625000000         1.175035812258590E-074
   117.669375000000         1.537959376420946E-074
   117.883125000000         1.764371450207155E-074
   118.096875000000         1.751112516782344E-074
   118.310625000000         1.396471786504555E-074
   118.524375000000         6.203916835058245E-075
   118.738125000000        -6.108737557826415E-075
   118.951875000000        -2.258505211409551E-074
   119.165625000000        -4.187633935094068E-074
   119.379375000000        -6.152285940776792E-074
   119.593125000000        -7.795159511467897E-074
   119.806875000000        -8.668471795771107E-074
   120.020625000000        -8.280683794007788E-074
   120.234375000000        -6.170988602671912E-074
   120.448125000000        -2.008972154278854E-074
   120.661875000000         4.288952167540015E-074
   120.875625000000         1.244131590701426E-073
   121.089375000000         2.170298683630779E-073
   121.303125000000         3.081260652676448E-073
   121.516875000000         3.801460152940567E-073
   121.730625000000         4.118193229441743E-073
   121.944375000000         3.805759030623557E-073
   122.158125000000         2.661813374485023E-073
   122.371875000000         5.541395877429696E-074
   122.585625000000        -2.526573005166181E-073
   122.799375000000        -6.415201528978378E-073
   123.013125000000        -1.073181532375188E-072
   123.226875000000        -1.486423666234285E-072
   123.440625000000        -1.798579741230273E-072
   123.654375000000        -1.911900629518630E-072
   123.868125000000        -1.725176858941490E-072