  -1.60312500000000         0.000000000000000E+000
  -1.38937500000000         0.000000000000000E+000
  -1.17562500000000         0.000000000000000E+000
 -0.961875000000000         0.000000000000000E+000
 -0.748125000000000         0.000000000000000E+000
 -0.534375000000000         0.000000000000000E+000
 -0.320625000000000         0.000000000000000E+000
 -0.106875000000000         0.000000000000000E+000
  0.106875000000000         0.000000000000000E+000
  0.320625000000000         0.000000000000000E+000
  0.534375000000000         0.000000000000000E+000
  0.748125000000000         0.000000000000000E+000
  0.961875000000000         0.000000000000000E+000
   1.17562500000000         0.000000000000000E+000
   1.38937500000000         0.000000000000000E+000
   1.60312500000000         0.000000000000000E+000
   1.81687500000000         0.000000000000000E+000
   2.03062500000000         0.000000000000000E+000
   2.24437500000000         0.000000000000000E+000
   2.45812500000000         0.000000000000000E+000
   2.67187500000000         0.000000000000000E+000
   2.88562500000000         0.000000000000000E+000
   3.09937500000000         0.000000000000000E+000
   3.31312500000000         0.000000000000000E+000
   3.52687500000000         0.000000000000000E+000
   3.74062500000000         0.000000000000000E+000
   3.95437500000000         0.000000000000000E+000
   4.16812500000000         0.000000000000000E+000
   4.38187500000000         0.000000000000000E+000
   4.59562500000000         0.000000000000000E+000
   4.80937500000000         0.000000000000000E+000
   5.02312500000000         0.000000000000000E+000
   5.23687500000000         0.000000000000000E+000
   5.45062500000000         0.000000000000000E+000
   5.66437500000000         0.000000000000000E+000
   5.87812500000000         0.000000000000000E+000
   6.09187500000000         0.000000000000000E+000
   6.30562500000000         0.000000000000000E+000
   6.51937500000000         0.000000000000000E+000
   6.73312500000000         0.000000000000000E+000
   6.94687500000000         0.000000000000000E+000
   7.16062500000000         0.000000000000000E+000
   7.37437500000000         0.000000000000000E+000
   7.58812500000000         0.000000000000000E+000
   7.80187500000000         0.000000000000000E+000
   8.01562500000000         0.000000000000000E+000
   8.22937500000000         0.000000000000000E+000
   8.44312500000000         0.000000000000000E+000
   8.65687500000000         0.000000000000000E+000
   8.87062500000000         0.000000000000000E+000
   9.08437500000000         0.000000000000000E+000
   9.29812500000000         0.000000000000000E+000
   9.51187500000000         0.000000000000000E+000
   9.72562500000000         0.000000000000000E+000
   9.93937500000000         0.000000000000000E+000
   10.1531250000000        -6.140428305722591E-212
   10.3668750000000        -2.603545285898200E-204
   10.5806250000000         4.222545182655049E-200
   10.7943750000000         2.435750713795831E-196
   11.0081250000000        -1.167424798338367E-193
   11.2218750000000        -2.003793063878288E-192
   11.4356250000000         4.227104443069218E-191
   11.6493750000000         2.065308584673256E-189
   11.8631250000000         6.707211683245714E-188
   12.0768750000000         2.162143857829774E-186
   12.2906250000000         4.878511582087622E-185
   12.5043750000000         5.756893381219179E-184
   12.7181250000000        -2.209402574153176E-183
   12.9318750000000        -2.493668592954977E-181
   13.1456250000000        -5.939519838675341E-180
   13.3593750000000        -9.108967048121785E-179
   13.5731250000000        -1.012736555234509E-177
   13.7868750000000        -7.900663781767748E-177
   14.0006250000000        -2.851397969393619E-176
   14.2143750000000         3.335580352744429E-175
   14.4281250000000         8.669875329440966E-174
   14.6418750000000         1.180004562205740E-172
   14.8556250000000         1.241835438906904E-171
   15.0693750000000         1.107531574210502E-170
   15.2831250000000         8.696077356294774E-170
   15.4968750000000         6.132889940546283E-169
   15.7106250000000         3.930731124205231E-168
   15.9243750000000         2.305556416280805E-167
   16.1381250000000         1.242048513755907E-166
   16.3518750000000         6.149108016019647E-166
   16.5656250000000         2.789388912658648E-165
   16.7793750000000         1.149828305862898E-164
   16.9931250000000         4.228873841206786E-164
   17.2068750000000         1.329797044981465E-163
   17.4206250000000         3.148841615953694E-163
   17.6343750000000         2.190548059779668E-163
   17.8481250000000        -3.343240841373981E-162
   18.0618750000000        -2.786814501895034E-161
   18.2756250000000        -1.515048025388089E-160
   18.4893750000000        -6.759335480058699E-160
   18.7031250000000        -2.621303623670485E-159
   18.9168750000000        -8.962969799094524E-159
   19.1306250000000        -2.670855900340753E-158
   19.3443750000000        -6.583544513844151E-158
   19.5581250000000        -1.095890104515717E-157
   19.7718750000000         5.618674363648753E-158
   19.9856250000000         1.564135291075952E-156
   20.1993750000000         9.032475216963093E-156
   20.4131250000000         3.856276287287419E-155
   20.6268750000000         1.396307913522544E-154
   20.8406250000000         4.463768980506524E-154
   21.0543750000000         1.271111043614250E-153
   21.2681250000000         3.181253516480931E-153
   21.4818750000000         6.645011791414731E-153
   21.6956250000000         9.528973672385766E-153
   21.9093750000000        -3.306537807942147E-153
   22.1231250000000        -9.514003347329698E-152
   22.3368750000000        -4.812795183081921E-151
   22.5506250000000        -1.805412552873810E-150
   22.7643750000000        -5.806286229962703E-150
   22.9781250000000        -1.677085262168730E-149
   23.1918750000000        -4.434548313968572E-149
   23.4056250000000        -1.081441174051750E-148
   23.6193750000000        -2.432916114643661E-148
   23.8331250000000        -5.017376411509909E-148
   24.0468750000000        -9.340285616850928E-148
   24.2606250000000        -1.518473155992226E-147
   24.4743750000000        -1.987324247165235E-147
   24.6881250000000        -1.525183447200233E-147
   24.9018750000000         1.484462944154769E-147
   25.1156250000000         8.790988312813115E-147
   25.3293750000000         1.797712855875711E-146
   25.5431250000000         7.841087837246425E-147
   25.7568750000000        -1.002982391633284E-145
   25.9706250000000        -5.284735670077747E-145
   26.1843750000000        -1.802665115055997E-144
   26.3981250000000        -4.992318545584156E-144
   26.6118750000000        -1.192832294195237E-143
   26.8256250000000        -2.501396565575860E-143
   27.0393750000000        -4.564038977772432E-143
   27.2531250000000        -6.920326284713226E-143
   27.4668750000000        -7.349424360365186E-143
   27.6806250000000         3.151708462995376E-144
   27.8943750000000         2.944428013320979E-142
   28.1081250000000         1.038345573488874E-141
   28.3218750000000         2.571926114933660E-141
   28.5356250000000         5.212299755304864E-141
   28.7493750000000         8.922008895029074E-141
   28.9631250000000         1.274447494940050E-140
   29.1768750000000         1.442915011338082E-140
   29.3906250000000         1.187209371064308E-140
   29.6043750000000         1.051361823705806E-140
   29.8181250000000         4.479210717785018E-140
   30.0318750000000         2.253355852272334E-139
   30.2456250000000         8.195932751356101E-139
   30.4593750000000         2.343498343194418E-138
   30.6731250000000         5.547804376996280E-138
   30.8868750000000         1.096436322632877E-137
   31.1006250000000         1.726845702402611E-137
   31.3143750000000         1.711618778533775E-137
   31.5281250000000        -1.139934270862215E-137
   31.7418750000000        -1.190179639772893E-136
   31.9556250000000        -4.028156886795933E-136
   32.1693750000000        -1.012785789083903E-135
   32.3831250000000        -2.106739579434413E-135
   32.5968750000000        -3.663133892796341E-135
   32.8106250000000        -4.986821740762735E-135
   33.0243750000000        -3.665828428507872E-135
   33.2381250000000         6.256942337075671E-135
   33.4518750000000         3.683470244915148E-134
   33.6656250000000         1.084214408589917E-133
   33.8793750000000         2.480707322120624E-133
   34.0931250000000         4.760524771833779E-133
   34.3068750000000         7.650563724297530E-133
   34.5206250000000         9.477149280818904E-133
   34.7343750000000         5.431643618994235E-133
   34.9481250000000        -1.512762614072586E-132
   35.1618750000000        -7.186131576369651E-132
   35.3756250000000        -1.950124988176659E-131
   35.5893750000000        -4.199020932471498E-131
   35.8031250000000        -7.632661782890257E-131
   36.0168750000000        -1.162651527381524E-130
   36.2306250000000        -1.353147906150523E-130
   36.4443750000000        -6.578250078504551E-131
   36.6581250000000         2.302778948661599E-130
   36.8718750000000         9.889363494028586E-130
   37.0856250000000         2.542673031256540E-129
   37.2993750000000         5.226406692631868E-129
   37.5131250000000         9.078031818254322E-129
   37.7268750000000         1.316429564040455E-128
   37.9406250000000         1.433956749490637E-128
   38.1543750000000         5.341430286440705E-129
   38.3681250000000        -2.749766012809043E-128
   38.5818750000000        -1.057497288663541E-127
   38.7956250000000        -2.567414910720364E-127
   39.0093750000000        -5.022635988145141E-127
   39.2231250000000        -8.294091310419871E-127
   39.4368750000000        -1.132451093932490E-126
   39.6506250000000        -1.116777955489369E-126
   39.8643750000000        -1.692451973768809E-127
   40.0781250000000         2.765716182333340E-126
   40.2918750000000         9.195719212802167E-126
   40.5056250000000         2.075517762101226E-125
   40.7193750000000         3.817849566860257E-125
   40.9331250000000         5.907595926549419E-125
   41.1468750000000         7.403395982576503E-125
   41.3606250000000         6.097178347643804E-125
   41.5743750000000        -2.112579438624309E-125
   41.7881250000000        -2.355495288593438E-124
   42.0018750000000        -6.607051949171571E-124
   42.2156250000000        -1.359491661213232E-123
   42.4293750000000        -2.307143795022544E-123
   42.6431250000000        -3.258811512916329E-123
   42.8568750000000        -3.549917039056666E-123
   43.0706250000000        -1.858768051924281E-123
   43.2843750000000         3.963277828563144E-123
   43.4981250000000         1.676293913021207E-122
   43.7118750000000         3.925803270103598E-122
   43.9256250000000         7.195271265954563E-122
   44.1393750000000         1.092090360882869E-121
   44.3531250000000         1.332312244815621E-121
   44.5668750000000         1.067800184414365E-121
   44.7806250000000        -3.238170404395908E-122
   44.9943750000000        -3.687457390877025E-121
   45.2081250000000        -9.868037896014980E-121
   45.4218750000000        -1.913864716882749E-120
   45.6356250000000        -3.012396492492921E-120
   45.8493750000000        -3.816780648644841E-120
   46.0631250000000        -3.339711994956395E-120
   46.2768750000000         6.610016471830786E-122
   46.4906250000000         8.609525604921146E-120
   46.7043750000000         2.442439312151215E-119
   46.9181250000000         4.799352952618628E-119
   47.1318750000000         7.525373880005431E-119
   47.3456250000000         9.331824380108260E-119
   47.5593750000000         7.560618752291011E-119
   47.7731250000000        -2.118997169493402E-119
   47.9868750000000        -2.533335154661716E-118
   48.2006250000000        -6.714101177135788E-118
   48.4143750000000        -1.276347977927692E-117
   48.6281250000000        -1.940512578162747E-117
   48.8418750000000        -2.293058025568753E-117
   49.0556250000000        -1.591573242680028E-117
   49.2693750000000         1.354514378586147E-117
   49.4831250000000         8.076468933578975E-117
   49.6968750000000         1.994017470101604E-116
   49.9106250000000         3.695941846464801E-116
   50.1243750000000         5.565956318310494E-116
   50.3381250000000         6.592948631139594E-116
   50.5518750000000         4.735958005794873E-116
   50.7656250000000        -3.334920583521349E-116
   50.9793750000000        -2.206029922104535E-115
   51.1931250000000        -5.582455629296542E-115
   51.4068750000000        -1.060422246427714E-114
   51.6206250000000        -1.656961898924977E-114
   51.8343750000000        -2.109112440741226E-114
   52.0481250000000        -1.903520986620165E-114
   52.2618750000000        -1.572683388024252E-115
   52.4756250000000         4.391753387407540E-114
   52.6893750000000         1.317759359485177E-113
   52.9031250000000         2.718879929426053E-113
   53.1168750000000         4.571081544060262E-113
   53.3306250000000         6.424392667780764E-113
   53.5443750000000         7.163039028761165E-113
   53.7581250000000         4.693199522503808E-113
   53.9718750000000        -4.248749742772325E-113
   54.1856250000000        -2.388543076203875E-112
   54.3993750000000        -5.833530136690742E-112
   54.6131250000000        -1.090996975271175E-111
   54.8268750000000        -1.704852726966436E-111
   55.0406250000000        -2.226484629948590E-111
   55.2543750000000        -2.228382036974404E-111
   55.4681250000000        -9.720278907568693E-112
   55.6818750000000         2.615415138281917E-111
   55.8956250000000         9.812611094325443E-111
   56.1093750000000         2.168655544743786E-110
   56.3231250000000         3.821969852069581E-110
   56.5368750000000         5.683632587716047E-110
   56.7506250000000         7.030949538209288E-110
   56.9643750000000         6.433461586064443E-110
   57.1781250000000         1.561229212692520E-110
   57.3918750000000        -1.078709129161000E-109
   57.6056250000000        -3.416039105840559E-109
   57.8193750000000        -7.105627263029536E-109
   58.0331250000000        -1.202271996137881E-108
   58.2468750000000        -1.723944767720067E-108
   58.4606250000000        -2.045064210582225E-108
   58.6743750000000        -1.735966326235838E-108
   58.8881250000000        -1.285474533688848E-109
   59.1018750000000         3.652650292899211E-108
   59.3156250000000         1.051488487832112E-107
   59.5293750000000         2.098182941577160E-107
   59.7431250000000         3.444257190761552E-107
   59.9568750000000         4.801573681693252E-107
   60.1706250000000         5.510801622177011E-107
   60.3843750000000         4.399482441417542E-107
   60.5981250000000        -2.855404053068060E-108
   60.8118750000000        -1.074666917486353E-106
   61.0256250000000        -2.912424512699195E-106
   61.2393750000000        -5.638729684813675E-106
   61.4531250000000        -9.043044547748222E-106
   61.6668750000000        -1.233231800926280E-105
   61.8806250000000        -1.379950157656240E-105
   62.0943750000000        -1.052445077284704E-105
   62.3081250000000         1.713718013338459E-106
   62.5218750000000         2.802081910690336E-105
   62.7356250000000         7.306676712550694E-105
   62.9493750000000         1.384064121918215E-104
   63.1631250000000         2.180853133951559E-104
   63.3768750000000         2.925447682466436E-104
   63.5906250000000         3.216306953107732E-104
   63.8043750000000         2.388394181655325E-104
   64.0181250000000        -4.918932475144717E-105
   64.2318750000000        -6.517187796776314E-104
   64.4456250000000        -1.663375371580661E-103
   64.6593750000000        -3.105446529973120E-103
   64.8731250000000        -4.833268658761492E-103
   65.0868750000000        -6.412438803536036E-103
   65.3006250000000        -6.983214150911680E-103
   65.5143750000000        -5.158915512462971E-103
   65.7281250000000         9.603371948053268E-104
   65.9418750000000         1.353812694212280E-102
   66.1556250000000         3.436620194326499E-102
   66.3693750000000         6.369460026496466E-102
   66.5831250000000         9.844592826442412E-102
   66.7968750000000         1.299043197260284E-101
   67.0106250000000         1.412856143674830E-101
   67.2243750000000         1.060744297335572E-101
   67.4381250000000        -1.137248313551896E-102
   67.6518750000000        -2.508222799785405E-101
   67.8656250000000        -6.442092560054427E-101
   68.0793750000000        -1.194365000154623E-100
   68.2931250000000        -1.843420945583027E-100
   68.5068750000000        -2.432996027621343E-100
   68.7206250000000        -2.663734009204361E-100
   68.9343750000000        -2.069689260589211E-100
   69.1481250000000        -3.280519692381016E-102
   69.3618750000000         4.127764096821028E-100
   69.5756250000000         1.095144429000554E-099
   69.7893750000000         2.048223039789380E-099
   70.0031250000000         3.175372896205473E-099
   70.2168750000000         4.215345459038584E-099
   70.4306250000000         4.679246371541824E-099
   70.6443750000000         3.812720879556663E-099
   70.8581250000000         6.223661572912178E-100
   71.0718750000000        -5.981366917850774E-099
   71.2856250000000        -1.686632971387192E-098
   71.4993750000000        -3.213731637466789E-098
   71.7131250000000        -5.035998463922495E-098
   71.9268750000000        -6.761553969154013E-098
   72.1406250000000        -7.657591157206792E-098
   72.3543750000000        -6.595930219028180E-098
   72.5681250000000        -2.092202813644069E-098
   72.7818750000000         7.488313446545719E-098
   72.9956250000000         2.347824622470839E-097
   73.2093750000000         4.614467525913055E-097
   73.4231250000000         7.360314743540983E-097
   73.6368750000000         1.005024569319124E-096
   73.8506250000000         1.167395431580734E-096
   74.0643750000000         1.066869737063342E-096
   74.2781250000000         4.966770566202914E-097
   74.4918750000000        -7.736954249429329E-097
   74.7056250000000        -2.939417350700337E-096
   74.9193750000000        -6.060668881704368E-096
   75.1331250000000        -9.920983486232862E-096
   75.3468750000000        -1.385531953916298E-095
   75.5606250000000        -1.658022118138234E-095
   75.7743750000000        -1.608584059442962E-095
   75.9881250000000        -9.680308978510477E-096
   76.2018750000000         5.696596309972458E-096
   76.4156250000000         3.276384258020908E-095
   76.6293750000000         7.269141645988720E-095
   76.8431250000000         1.233715444634738E-094
   77.0568750000000         1.772995177292673E-094
   77.2706250000000         2.194340425223583E-094
   77.4843750000000         2.257244604801929E-094
   77.6981250000000         1.633484924009264E-094
   77.9118750000000        -5.984789906091622E-096
   78.1256250000000        -3.181844501689662E-094
   78.3393750000000        -7.931444654773759E-094
   78.5531250000000        -1.414940267268983E-093
   78.7668750000000        -2.107131135179625E-093
   78.9806250000000        -2.707052392755816E-093
   79.1943750000000        -2.946464157860594E-093
   79.4081250000000        -2.449879226786193E-093
   79.6218750000000        -7.654503215989982E-094
   79.8356250000000         2.554980670988915E-093
   80.0493750000000         7.812179805921288E-093
   80.2631250000000         1.494599278284187E-092
   80.4768750000000         2.326265774158940E-092
   80.6906250000000         3.114045804229187E-092
   80.9043750000000         3.578757918939473E-092
   81.1181250000000         3.316817522025420E-092
   81.3318750000000         1.825212176504746E-092
   81.5456250000000        -1.423342449602487E-092
   81.7593750000000        -6.838667153037263E-092
   81.9731250000000        -1.449590517027766E-091
   82.1868750000000        -2.384992683350326E-091
   82.4006250000000        -3.341462563511322E-091
   82.6143750000000        -4.047662718597845E-091
   82.8281250000000        -4.095603710561800E-091
   83.0418750000000        -2.956909809232588E-091
   83.2556250000000        -4.757133129945205E-093
   83.4693750000000         5.141038115899982E-091
   83.6831250000000         1.283330225771025E-090
   83.8968750000000         2.268540615301021E-090
   84.1106250000000         3.345332878039043E-090
   84.3243750000000         4.267439462057780E-090
   84.5381250000000         4.646629701981850E-090
   84.7518750000000         3.959085695759578E-090
   84.9656250000000         1.596222206004767E-090
   85.1793750000000        -3.021686032066196E-090
   85.3931250000000        -1.025538847102610E-089
   85.6068750000000        -1.997850749138940E-089
   85.8206250000000        -3.125133770879848E-089
   86.0343750000000        -4.198814678695585E-089
   86.2481250000000        -4.870930300955825E-089
   86.4618750000000        -4.651200228634403E-089
   86.6756250000000        -2.942815030716898E-089
   86.8893750000000         8.650542645288436E-090
   87.1031250000000         7.233216207417019E-089
   87.3168750000000         1.623184329114660E-088
   87.5306250000000         2.723649363580578E-088
   87.7443750000000         3.860160115328388E-088
   87.9581250000000         4.738804023134474E-088
   88.1718750000000         4.926090032249960E-088
   88.3856250000000         3.870827713884088E-088
   88.5993750000000         9.748360992125028E-089
   88.8131250000000        -4.272721069459464E-088
   89.0268750000000        -1.209006783555466E-087
   89.2406250000000        -2.213415365439027E-087
   89.4543750000000        -3.319929072392523E-087
   89.6681250000000        -4.294453179605702E-087
   89.8818750000000        -4.774618260028851E-087
   90.0956250000000        -4.280407744883325E-087
   90.3093750000000        -2.264879841523706E-087
   90.5231250000000         1.781280024886012E-087
   90.7368750000000         8.163141595361395E-087
   90.9506250000000         1.675620173246450E-086
   91.1643750000000         2.674431145559135E-086
   91.3781250000000         3.636805830929500E-086
   91.5918750000000         4.276014070504982E-086
   91.8056250000000         4.197232782069363E-086
   92.0193750000000         2.931671079501445E-086
   92.2331250000000         1.403790226611452E-088
   92.4468750000000        -4.888620034741543E-086
   92.6606250000000        -1.179738746032859E-085
   92.8743750000000        -2.020627687279754E-085
   93.0881250000000        -2.886615252783138E-085
   93.3018750000000        -3.562596743751654E-085
   93.5156250000000        -3.741244651277685E-085
   93.7293750000000        -3.044527577689119E-085
   93.9431250000000        -1.078478611124372E-085
   94.1568750000000         2.471741044302833E-085
   94.3706250000000         7.705739475488973E-085
   94.5843750000000         1.434061660501646E-084
   94.7981250000000         2.153719515554447E-084
   95.0118750000000         2.776216980484957E-084
   95.2256250000000         3.074628305439364E-084
   95.4393750000000         2.761149751314899E-084
   95.6531250000000         1.524158706428783E-084
   95.8668750000000        -9.047050695031418E-085
   96.0806250000000        -4.652162049066185E-084
   96.2943750000000        -9.579884622921060E-084
   96.5081250000000        -1.515294748510587E-083
   96.7218750000000        -2.032982711584629E-083
   96.9356250000000        -2.351655510614626E-083
   97.1493750000000        -2.263727732974651E-083
   97.3631250000000        -1.537524337605058E-083
   97.5768750000000         3.732087910687452E-085
   97.7906250000000         2.581893106660804E-083
   98.0043750000000         6.041334475246198E-083
   98.2181250000000         1.009067794744249E-082
   98.4318750000000         1.405318757173359E-082
   98.6456250000000         1.686015858406767E-082
   98.8593750000000         1.708790362353387E-082
   99.0731250000000         1.310915362985481E-082
   99.2868750000000         3.388755404008834E-083
   99.5006250000000        -1.306604359472280E-082
   99.7143750000000        -3.612447448001932E-082
   99.9281250000000        -6.389225530702564E-082
   100.141875000000        -9.214291152570985E-082
   100.355625000000        -1.140095451562475E-081
   100.569375000000        -1.201709311746236E-081
   100.783125000000        -9.977629917559132E-082
   100.996875000000        -4.230648192317885E-082
   101.210625000000         5.955612663255917E-082
   101.424375000000         2.061936133063928E-081
   101.638125000000         3.869060075864319E-081
   101.851875000000         5.761721321638332E-081
   102.065625000000         7.315089144277142E-081
   102.279375000000         7.943995425465137E-081
   102.493125000000         6.958234477215755E-081
   102.706875000000         3.676263573641792E-081
   102.920625000000        -2.398122659931828E-081
   103.134375000000        -1.134501232598556E-080
   103.348125000000        -2.257119057601345E-080
   103.561875000000        -3.457670277514970E-080
   103.775625000000        -4.481770136336088E-080
   103.989375000000        -4.975465037338241E-080
   104.203125000000        -4.517814391134613E-080
   104.416875000000        -2.688610561087661E-080
   104.630625000000         8.261452091777673E-081
   104.844375000000         6.096475686102986E-080
   105.058125000000         1.279503688961914E-079
   105.271875000000         2.005798142572306E-079
   105.485625000000         2.640293081437778E-079
   105.699375000000         2.975623601711111E-079
   105.913125000000         2.764299936597539E-079
   106.126875000000         1.758184789865816E-079
   106.340625000000        -2.301923968755340E-080
   106.554375000000        -3.247856981604360E-079
   106.768125000000        -7.112993217906759E-079
   106.981875000000        -1.133530761237399E-078
   107.195625000000        -1.506979235555046E-078
   107.409375000000        -1.713355630171232E-078
   107.623125000000        -1.611570544054364E-078
   107.836875000000        -1.060323221474885E-078
   108.050625000000         4.706807836762500E-080
   108.264375000000         1.737660201995242E-078
   108.478125000000         3.909414037753888E-078
   108.691875000000         6.287142081188550E-078
   108.905625000000         8.397701391007087E-078
   109.119375000000         9.580864254959919E-078
   109.333125000000         9.052205577441359E-078
   109.546875000000         6.030143117418308E-078
   109.760625000000        -7.017947706770075E-080
   109.974375000000        -9.388594129500192E-078
   110.188125000000        -2.134965320287728E-077
   110.401875000000        -3.442544717103269E-077
   110.615625000000        -4.600738044228144E-077
   110.829375000000        -5.247587321265230E-077
   111.043125000000        -4.955496025731096E-077
   111.256875000000        -3.301428595700682E-077
   111.470625000000         2.716539532838812E-079
   111.684375000000         5.097972273862617E-077
   111.898125000000         1.158902108443273E-076
   112.111875000000         1.866346464816527E-076
   112.325625000000         2.490472857696382E-076
   112.539375000000         2.835924758575823E-076
   112.753125000000         2.673222233755266E-076
   112.966875000000         1.776803776256689E-076
   113.180625000000        -1.816247729423091E-078
   113.394375000000        -2.744301095652660E-076
   113.608125000000        -6.225659833197972E-076
   113.821875000000        -1.001242962247736E-075
   114.035625000000        -1.334824569836123E-075
   114.249375000000        -1.519468645455372E-075
   114.463125000000        -1.433635869742943E-075
   114.676875000000        -9.582465417426278E-076
   114.890625000000        -6.562890206994616E-078
   115.104375000000         1.438422938432735E-075
   115.318125000000         3.284241064542702E-075
   115.531875000000         5.295151843221926E-075
   115.745625000000         7.075402512599653E-075
   115.959375000000         8.082149994356958E-075
   116.173125000000         7.679949154613232E-075
   116.386875000000         5.244796840694765E-075
   116.600625000000         3.179624564510220E-076
   116.814375000000        -7.201846567583156E-075
   117.028125000000        -1.685421973479466E-074
   117.241875000000        -2.744283900983132E-074
   117.455625000000        -3.694736729690194E-074
   117.669375000000        -4.258500462395563E-074
   117.883125000000        -4.108161646208975E-074
   118.096875000000        -2.919281969461280E-074
   118.310625000000        -4.476862235178741E-075
   118.524375000000         3.373672695019352E-074
   118.738125000000         8.331181782522871E-074
   118.951875000000         1.384114686746228E-073
   119.165625000000         1.890213253099556E-073
   119.379375000000         2.212051513860121E-073
   119.593125000000         2.183907340531689E-073
   119.806875000000         1.638914745658441E-073
   120.020625000000         4.468400990700253E-074
   120.234375000000        -1.438163051862848E-073
   120.448125000000        -3.925930633007728E-073
   120.661875000000        -6.744723953534144E-073
   120.875625000000        -9.415024975256378E-073
   121.089375000000        -1.125793812805862E-072
   121.303125000000        -1.145285128028514E-072
   121.516875000000        -9.154809261759225E-073
   121.730625000000        -3.673506223113597E-073
   121.944375000000         5.297198423325634E-073
   122.158125000000         1.742694206085804E-072
   122.371875000000         3.151955518748338E-072
   122.585625000000         4.536899427200594E-072
   122.799375000000         5.577274882643502E-072
   123.013125000000         5.877352210762140E-072
   123.226875000000         5.018210100252430E-072
   123.440625000000         2.639641722594162E-072
   123.654375000000        -1.452690748148950E-072
   123.868125000000        -7.166824530167687E-072