  -1.60312500000000         0.000000000000000E+000
  -1.38937500000000         0.000000000000000E+000
  -1.17562500000000         0.000000000000000E+000
 -0.961875000000000         0.000000000000000E+000
 -0.748125000000000         0.000000000000000E+000
 -0.534375000000000         0.000000000000000E+000
 -0.320625000000000         0.000000000000000E+000
 -0.106875000000000         0.000000000000000E+000
  0.106875000000000         0.000000000000000E+000
  0.320625000000000         0.000000000000000E+000
  0.534375000000000         0.000000000000000E+000
  0.748125000000000         0.000000000000000E+000
  0.961875000000000         0.000000000000000E+000
   1.17562500000000         0.000000000000000E+000
   1.38937500000000         0.000000000000000E+000
   1.60312500000000         0.000000000000000E+000
   1.81687500000000         0.000000000000000E+000
   2.03062500000000         0.000000000000000E+000
   2.24437500000000         0.000000000000000E+000
   2.45812500000000         0.000000000000000E+000
   2.67187500000000         0.000000000000000E+000
   2.88562500000000         0.000000000000000E+000
   3.09937500000000         0.000000000000000E+000
   3.31312500000000         0.000000000000000E+000
   3.52687500000000         0.000000000000000E+000
   3.74062500000000         0.000000000000000E+000
   3.95437500000000         0.000000000000000E+000
   4.16812500000000         0.000000000000000E+000
   4.38187500000000         0.000000000000000E+000
   4.59562500000000         0.000000000000000E+000
   4.80937500000000         0.000000000000000E+000
   5.02312500000000         0.000000000000000E+000
   5.23687500000000         0.000000000000000E+000
   5.45062500000000         0.000000000000000E+000
   5.66437500000000         0.000000000000000E+000
   5.87812500000000         0.000000000000000E+000
   6.09187500000000         0.000000000000000E+000
   6.30562500000000         0.000000000000000E+000
   6.51937500000000         0.000000000000000E+000
   6.73312500000000         0.000000000000000E+000
   6.94687500000000         0.000000000000000E+000
   7.16062500000000         0.000000000000000E+000
   7.37437500000000         0.000000000000000E+000
   7.58812500000000         0.000000000000000E+000
   7.80187500000000         0.000000000000000E+000
   8.01562500000000         0.000000000000000E+000
   8.22937500000000         0.000000000000000E+000
   8.44312500000000         0.000000000000000E+000
   8.65687500000000         0.000000000000000E+000
   8.87062500000000         0.000000000000000E+000
   9.08437500000000         0.000000000000000E+000
   9.29812500000000         0.000000000000000E+000
   9.51187500000000         0.000000000000000E+000
   9.72562500000000         0.000000000000000E+000
   9.93937500000000         0.000000000000000E+000
   10.1531250000000        -5.745429993658565E-211
   10.3668750000000        -2.436065649674512E-203
   10.5806250000000         3.951406682292348E-199
   10.7943750000000         2.278274762749376E-195
   11.0081250000000        -1.096884636448984E-192
   11.2218750000000        -1.655972901542893E-191
   11.4356250000000         4.308272143447432E-190
   11.6493750000000         1.849817901014708E-188
   11.8631250000000         5.897526583960181E-187
   12.0768750000000         1.901325778368413E-185
   12.2906250000000         4.172250763734757E-184
   12.5043750000000         4.512872910069018E-183
   12.7181250000000        -3.057221244012836E-182
   12.9318750000000        -2.282012177935025E-180
   13.1456250000000        -5.095918528994654E-179
   13.3593750000000        -7.457673704297493E-178
   13.5731250000000        -7.877829212057184E-177
   13.7868750000000        -5.657061267363393E-176
   14.0006250000000        -1.363025186682931E-175
   14.2143750000000         3.524110845857807E-174
   14.4281250000000         7.447651880716231E-173
   14.6418750000000         9.484996766654275E-172
   14.8556250000000         9.566915366013685E-171
   15.0693750000000         8.244225706157105E-170
   15.2831250000000         6.275971143615188E-169
   15.4968750000000         4.297111381467072E-168
   15.7106250000000         2.674328281877249E-167
   15.9243750000000         1.522025233903767E-166
   16.1381250000000         7.942235557935547E-166
   16.3518750000000         3.797177148078951E-165
   16.5656250000000         1.654881687350406E-164
   16.7793750000000         6.493791197768030E-164
   16.9931250000000         2.231599158907538E-163
   17.2068750000000         6.254105270199234E-163
   17.4206250000000         1.076619480907311E-162
   17.6343750000000        -1.973268422356693E-162
   17.8481250000000        -3.135815283941591E-161
   18.0618750000000        -1.981146347870296E-160
   18.2756250000000        -9.587195876210032E-160
   18.4893750000000        -3.948216042480153E-159
   18.7031250000000        -1.425407706315368E-158
   18.9168750000000        -4.508315030923496E-158
   19.1306250000000        -1.209574504328751E-157
   19.3443750000000        -2.451420689592559E-157
   19.5581250000000        -1.642480158419623E-157
   19.7718750000000         1.715366182747779E-156
   19.9856250000000         1.239409391025306E-155
   20.1993750000000         5.748511007465587E-155
   20.4131250000000         2.188216750098925E-154
   20.6268750000000         7.268440885398633E-154
   20.8406250000000         2.143294921503627E-153
   21.0543750000000         5.573515797220091E-153
   21.2681250000000         1.229916231147400E-152
   21.4818750000000         2.011027183995338E-152
   21.6956250000000         6.874166812407154E-153
   21.9093750000000        -1.269725198447151E-151
   22.1231250000000        -7.322882583106522E-151
   22.3368750000000        -2.880712769384273E-150
   22.5506250000000        -9.508836092048405E-150
   22.7643750000000        -2.792623924913424E-149
   22.9781250000000        -7.466619482548184E-149
   23.1918750000000        -1.833420439394157E-148
   23.4056250000000        -4.136042415856301E-148
   23.6193750000000        -8.509337145237603E-148
   23.8331250000000        -1.567274750380331E-147
   24.0468750000000        -2.477552576254545E-147
   24.2606250000000        -2.990934855858977E-147
   24.4743750000000        -1.395975938742278E-147
   24.6881250000000         5.720100382859248E-147
   24.9018750000000         2.244033368829867E-146
   25.1156250000000         4.592481595996656E-146
   25.3293750000000         4.002737347576670E-146
   25.5431250000000        -1.348675205776208E-145
   25.7568750000000        -8.769624396616764E-145
   25.9706250000000        -3.129356417362384E-144
   26.1843750000000        -8.792903681334432E-144
   26.3981250000000        -2.105180677974776E-143
   26.6118750000000        -4.384647996989635E-143
   26.8256250000000        -7.859228226454795E-143
   27.0393750000000        -1.144034989936108E-142
   27.2531250000000        -1.060678279716100E-142
   27.4668750000000         6.591830042522796E-143
   27.6806250000000         6.512368066311204E-142
   27.8943750000000         2.074293886880950E-141
   28.1081250000000         4.886199887685375E-141
   28.3218750000000         9.463091728172270E-141
   28.5356250000000         1.524215870804953E-140
   28.7493750000000         1.946857008469161E-140
   28.9631250000000         1.629719416673696E-140
   29.1768750000000        -5.341516967456200E-142
   29.3906250000000        -2.339152224699936E-140
   29.6043750000000         1.068064062281196E-140
   29.8181250000000         3.100537588231963E-139
   30.0318750000000         1.379241942223665E-138
   30.2456250000000         4.181063928264071E-138
   30.4593750000000         1.007769694246162E-137
   30.6731250000000         1.990411390012890E-137
   30.8868750000000         3.077713849128622E-137
   31.1006250000000         2.820853446962452E-137
   31.3143750000000        -2.963327588425241E-137
   31.5281250000000        -2.371787053457818E-136
   31.7418750000000        -7.697791544780050E-136
   31.9556250000000        -1.885638152678057E-135
   32.1693750000000        -3.821684424204376E-135
   32.3831250000000        -6.414140514747767E-135
   32.5968750000000        -8.148613294486654E-135
   32.8106250000000        -4.236770078298314E-135
   33.0243750000000         1.659694142103389E-134
   33.2381250000000         7.624769732126826E-134
   33.4518750000000         2.098599996338270E-133
   33.6656250000000         4.599574357798829E-133
   33.8793750000000         8.467026002722405E-133
   34.0931250000000         1.286459925775156E-132
   34.3068750000000         1.417670088226014E-132
   34.5206250000000         2.914158126127024E-133
   34.7343750000000        -4.076684268121170E-132
   34.9481250000000        -1.516005936670465E-131
   35.1618750000000        -3.792409466648426E-131
   35.3756250000000        -7.730508246003686E-131
   35.5893750000000        -1.331179298716441E-130
   35.8031250000000        -1.881584070096433E-130
   36.0168750000000        -1.855354868780746E-130
   36.2306250000000         7.293261129304038E-132
   36.4443750000000         6.433012635959053E-130
   36.6581250000000         2.126854485187304E-129
   36.8718750000000         4.971704153752569E-129
   37.0856250000000         9.566182927919302E-129
   37.2993750000000         1.554477530717149E-128
   37.5131250000000         2.049382235947136E-128
   37.7268750000000         1.774022509924420E-128
   37.9406250000000        -6.743529384607167E-129
   38.1543750000000        -7.744956730279095E-128
   38.3681250000000        -2.298167757571496E-127
   38.5818750000000        -5.023663235482420E-127
   38.7956250000000        -9.104220947505388E-127
   39.0093750000000        -1.386860784711241E-126
   39.2231250000000        -1.674150043148157E-126
   39.4368750000000        -1.161330311382865E-126
   39.6506250000000         1.307979559973469E-126
   39.8643750000000         7.557824024704788E-126
   40.0781250000000         1.990380291995225E-125
   40.2918750000000         4.025996812537012E-125
   40.5056250000000         6.789870703916871E-125
   40.7193750000000         9.512649106693954E-125
   40.9331250000000         1.004053320618710E-124
   41.1468750000000         3.955256791727129E-125
   41.3606250000000        -1.617717618291029E-124
   41.5743750000000        -6.063927094006623E-124
   41.7881250000000        -1.399911238885660E-123
   42.0018750000000        -2.578153472766396E-123
   42.2156250000000        -3.960199428249513E-123
   42.4293750000000        -4.906721122013054E-123
   42.6431250000000        -3.997772144829383E-123
   42.8568750000000         1.273977748194658E-123
   43.0706250000000         1.454963850567561E-122
   43.2843750000000         3.992564458660440E-122
   43.4981250000000         7.983726817736218E-122
   43.7118750000000         1.306431395028615E-121
   43.9256250000000         1.752719946118488E-121
   44.1393750000000         1.733251836687717E-121
   44.3531250000000         5.144383053731185E-122
   44.5668750000000        -2.989404952402415E-121
   44.7806250000000        -1.003157492927202E-120
   44.9943750000000        -2.144108332043496E-120
   45.2081250000000        -3.638890971009562E-120
   45.4218750000000        -5.035363319341323E-120
   45.6356250000000        -5.243296569408831E-120
   45.8493750000000        -2.283104891661761E-120
   46.0631250000000         6.746905160091662E-120
   46.2768750000000         2.512034311756638E-119
   46.4906250000000         5.481814053345436E-119
   46.7043750000000         9.315722804283580E-119
   46.9181250000000         1.273727032289689E-118
   47.1318750000000         1.276935823744748E-118
   47.3456250000000         4.133102582228099E-119
   47.5593750000000        -2.070578681911463E-118
   47.7731250000000        -6.986371888179217E-118
   47.9868750000000        -1.473466144714126E-117
   48.2006250000000        -2.438361712571554E-117
   48.4143750000000        -3.221875575981560E-117
   48.6281250000000        -2.992530040252873E-117
   48.8418750000000        -3.061408126688148E-118
   49.0556250000000         6.869741120399579E-117
   49.2693750000000         2.069599100840675E-116
   49.4831250000000         4.219949020790043E-116
   49.6968750000000         6.880594387338207E-116
   49.9106250000000         9.043844221908082E-116
   50.1243750000000         8.453367210566251E-116
   50.3381250000000         1.155917587834670E-116
   50.5518750000000        -1.853126846825311E-115
   50.7656250000000        -5.698572418031976E-115
   50.9793750000000        -1.182224969894955E-114
   51.1931250000000        -1.977003761980608E-114
   51.4068750000000        -2.721725440340424E-114
   51.6206250000000        -2.859932126885422E-114
   51.8343750000000        -1.370716217594097E-114
   52.0481250000000         3.294378946212199E-114
   52.2618750000000         1.304482711524035E-113
   52.4756250000000         2.951911886099324E-113
   52.6893750000000         5.268757313848498E-113
   52.9031250000000         7.841142755773737E-113
   53.1168750000000         9.489398667704246E-113
   53.3306250000000         7.851524127341381E-113
   53.5443750000000        -9.402131474077956E-114
   53.7581250000000        -2.216939626786573E-112
   53.9718750000000        -6.149796527857761E-112
   54.1856250000000        -1.222370618022778E-111
   54.3993750000000        -2.001009087695929E-111
   54.6131250000000        -2.748875933142444E-111
   54.8268750000000        -2.994803614883385E-111
   55.0406250000000        -1.885962728809287E-111
   55.2543750000000         1.868209212778281E-111
   55.4681250000000         9.887151219666494E-111
   55.6818750000000         2.367956718069643E-110
   55.8956250000000         4.366261720333656E-110
   56.1093750000000         6.743861650999605E-110
   56.3231250000000         8.725745902925956E-110
   56.5368750000000         8.693320629438653E-110
   56.7506250000000         3.913153761141381E-110
   56.9643750000000        -9.503684307525897E-110
   57.1781250000000        -3.608445485852720E-109
   57.3918750000000        -7.945538611740284E-109
   57.6056250000000        -1.392421555602167E-108
   57.8193750000000        -2.059824673346584E-108
   58.0331250000000        -2.540963816336948E-108
   58.2468750000000        -2.340184923613336E-108
   58.4606250000000        -6.644414423483767E-109
   58.6743750000000         3.556585389449080E-108
   58.8881250000000         1.148359119877973E-107
   59.1018750000000         2.389603683647732E-107
   59.3156250000000         4.031200606805515E-107
   59.5293750000000         5.762431708937623E-107
   59.7431250000000         6.832415067056683E-107
   59.9568750000000         5.867622274994315E-107
   60.1706250000000         7.684286301168806E-108
   60.3843750000000        -1.116673675418208E-106
   60.5981250000000        -3.266973432627966E-106
   60.8118750000000        -6.521217228945577E-106
   61.0256250000000        -1.067417547480031E-105
   61.2393750000000        -1.483511268533518E-105
   61.4531250000000        -1.701812579826294E-105
   61.6668750000000        -1.375870191181500E-105
   61.8806250000000         3.066853357313055E-108
   62.0943750000000         3.061308167662908E-105
   62.3081250000000         8.389609994849843E-105
   62.5218750000000         1.622522143772551E-104
   62.7356250000000         2.592303401827785E-104
   62.9493750000000         3.521347598529138E-104
   63.1631250000000         3.933988186578170E-104
   63.3768750000000         3.032978349233540E-104
   63.5906250000000        -3.114880976190646E-105
   63.8043750000000        -7.435064149888847E-104
   64.0181250000000        -1.951499366690458E-103
   64.2318750000000        -3.686203135542847E-103
   64.4456250000000        -5.779589537234038E-103
   64.6593750000000        -7.713473933104754E-103
   64.8731250000000        -8.453282827488202E-103
   65.0868750000000        -6.322578176250233E-103
   65.3006250000000         9.819901306302020E-104
   65.5143750000000         1.608747081391912E-102
   65.7281250000000         4.116869486812346E-102
   65.9418750000000         7.651822674420376E-102
   66.1556250000000         1.183643463658986E-101
   66.3693750000000         1.560534157084843E-101
   66.5831250000000         1.691052088478616E-101
   66.7968750000000         1.252423135998982E-101
   67.0106250000000        -1.875066783190204E-102
   67.2243750000000        -3.107107088598020E-101
   67.4381250000000        -7.882077741257057E-101
   67.6518750000000        -1.452258161247595E-100
   67.8656250000000        -2.228555649530437E-100
   68.0793750000000        -2.919100436075928E-100
   68.2931250000000        -3.153937649803874E-100
   68.5068750000000        -2.362554345876280E-100
   68.7206250000000         2.036024714152968E-101
   68.9343750000000         5.354710965919444E-100
   69.1481250000000         1.370385337247027E-099
   69.3618750000000         2.522544996081477E-099
   69.5756250000000         3.862185009237370E-099
   69.7893750000000         5.055509594634690E-099
   70.0031250000000         5.490921810428169E-099
   70.2168750000000         4.239815619589236E-099
   70.4306250000000         1.007777137744202E-100
   70.6443750000000        -8.208618574454297E-099
   70.8581250000000        -2.164265368066097E-098
   71.0718750000000        -4.014666164230503E-098
   71.2856250000000        -6.170094346666477E-098
   71.4993750000000        -8.118548142967174E-098
   71.7131250000000        -8.931901695214877E-098
   71.9268750000000        -7.213646891746688E-098
   72.1406250000000        -1.170326797636049E-098
   72.3543750000000         1.110399639462892E-097
   72.5681250000000         3.103614307095343E-097
   72.7818750000000         5.860611433433114E-097
   72.9956250000000         9.100729177713251E-097
   73.2093750000000         1.210762547437766E-096
   73.4231250000000         1.358451223442168E-096
   73.6368750000000         1.158443232370938E-096
   73.8506250000000         3.608162975622560E-097
   74.0643750000000        -1.301407591292245E-096
   74.2781250000000        -4.033728599987758E-096
   74.4918750000000        -7.852797543293879E-096
   74.7056250000000        -1.241126725911458E-095
   74.9193750000000        -1.679342542864244E-095
   75.1331250000000        -1.932647730378789E-095
   75.3468750000000        -1.748602377626000E-095
   75.5606250000000        -8.010131940412419E-096
   75.7743750000000         1.263591521014545E-095
   75.9881250000000         4.729888353529686E-095
   76.2018750000000         9.657859284816920E-095
   76.4156250000000         1.566821909669103E-094
   76.6293750000000         2.169091435797854E-094
   76.8431250000000         2.572908845239490E-094
   77.0568750000000         2.472983390156400E-094
   77.2706250000000         1.469428286390118E-094
   77.4843750000000        -8.808511675284012E-095
   77.6981250000000        -4.955496722929279E-094
   77.9118750000000        -1.088855308357534E-093
   78.1256250000000        -1.832311103458836E-093
   78.3393750000000        -2.611759215216344E-093
   78.5531250000000        -3.206213199208049E-093
   78.7668750000000        -3.270426500540648E-093
   78.9806250000000        -2.342871815961731E-093
   79.1943750000000         1.027617331100173E-094
   79.4081250000000         4.543646978697236E-093
   79.6218750000000         1.121709131545196E-092
   79.8356250000000         1.985126884911331E-092
   80.0493750000000         2.933889849528315E-092
   80.2631250000000         3.741022877414917E-092
   80.4768750000000         4.040651937787462E-092
   80.6906250000000         3.330389279244086E-092
   80.9043750000000         1.017794250208878E-092
   81.1181250000000        -3.468698548819901E-092
   81.3318750000000        -1.048784269581798E-091
   81.5456250000000        -1.990799006308012E-091
   81.7593750000000        -3.076171476437978E-091
   81.9731250000000        -4.088495674196307E-091
   82.1868750000000        -4.663805297242856E-091
   82.4006250000000        -4.285620482041326E-091
   82.6143750000000        -2.322100267306257E-091
   82.8281250000000         1.873529582263404E-091
   83.0418750000000         8.780916278126883E-091
   83.2556250000000         1.844096421715393E-090
   83.4693750000000         3.010742827126184E-090
   83.6831250000000         4.186697305561787E-090
   83.8968750000000         5.031645520449879E-090
   84.1106250000000         5.043603721543307E-090
   84.3243750000000         3.584294140620318E-090
   84.5381250000000        -3.631528752960523E-092
   84.7518750000000        -6.396845004608608E-090
   84.9656250000000        -1.571181922701537E-089
   85.1793750000000        -2.749667890698195E-089
   85.3931250000000        -4.018708660375398E-089
   85.6068750000000        -5.078946563356345E-089
   85.8206250000000        -5.468730833049811E-089
   86.0343750000000        -4.577406316103288E-089
   86.2481250000000        -1.711394827852173E-089
   86.4618750000000         3.767348720918111E-089
   86.6756250000000         1.221754201983047E-088
   86.8893750000000         2.341164436843380E-088
   87.1031250000000         3.617349661765442E-088
   87.3168750000000         4.802418369794396E-088
   87.5306250000000         5.494330490705421E-088
   87.7443750000000         5.139688239098651E-088
   87.9581250000000         3.081541307624952E-088
   88.1718750000000        -1.329157596602843E-088
   88.3856250000000        -8.544641873487201E-088
   88.5993750000000        -1.855235569069138E-087
   88.8131250000000        -3.054759442553757E-087
   89.0268750000000        -4.259717063734147E-087
   89.2406250000000        -5.138257971433668E-087
   89.4543750000000        -5.215086655031788E-087
   89.6681250000000        -3.903267564506739E-087
   89.8818750000000        -5.895051178151253E-088
   90.0956250000000         5.213697072393144E-087
   90.3093750000000         1.364504354383722E-086
   90.5231250000000         2.421376222373908E-086
   90.7368750000000         3.549956241228789E-086
   90.9506250000000         4.490333945534355E-086
   91.1643750000000         4.855265795403052E-086
   91.3781250000000         4.149409623267023E-086
   91.5918750000000         1.831486185626375E-086
   91.8056250000000        -2.568621048181870E-086
   92.0193750000000        -9.272891958301581E-086
   92.2331250000000        -1.802659975852022E-085
   92.4468750000000        -2.784622304389062E-085
   92.6606250000000        -3.679721485633911E-085
   92.8743750000000        -4.188245216091418E-085
   93.0881250000000        -3.914562414349607E-085
   93.3018750000000        -2.410410600560485E-085
   93.5156250000000         7.388512318958691E-086
   93.7293750000000         5.780138930336323E-085
   93.9431250000000         1.261564087377828E-084
   94.1568750000000         2.060278865068682E-084
   94.3706250000000         2.837029608555776E-084
   94.5843750000000         3.371042559423164E-084
   94.7981250000000         3.362598189608893E-084
   95.0118750000000         2.461939493951432E-084
   95.2256250000000         3.302132541599784E-085
   95.4393750000000        -3.263345924330416E-084
   95.6531250000000        -8.310839290978269E-084
   95.8668750000000        -1.441537147797542E-083
   96.0806250000000        -2.064855347700042E-083
   96.2943750000000        -2.545879224327914E-083
   96.5081250000000        -2.668682518067231E-083
   96.7218750000000        -2.175181463912116E-083
   96.9356250000000        -8.065523281814157E-084
   97.1493750000000         1.629268376274750E-083
   97.3631250000000         5.165617194434888E-083
   97.5768750000000         9.569776646144599E-083
   97.7906250000000         1.423908630172842E-082
   98.0043750000000         1.812995574351502E-082
   98.2181250000000         1.975863814838010E-082
   98.4318750000000         1.731747529527928E-082
   98.6456250000000         8.946580960478258E-083
   98.8593750000000        -6.815633222782775E-083
   99.0731250000000        -3.041243689351261E-082
   99.2868750000000        -6.053865761732691E-082
   99.5006250000000        -9.342437394975274E-082
   99.7143750000000        -1.223270261465890E-081
   99.9281250000000        -1.374884669715988E-081
   100.141875000000        -1.268451584663820E-081
   100.355625000000        -7.775492228718729E-082
   100.569375000000         2.010452679361087E-082
   100.783125000000         1.707224392792054E-081
   100.996875000000         3.670068449538935E-081
   101.210625000000         5.860935859769889E-081
   101.424375000000         7.859530729594668E-081
   101.638125000000         9.049231308303730E-081
   101.851875000000         8.659879763265978E-081
   102.065625000000         5.874556004114709E-081
   102.279375000000         9.947211679383995E-084
   102.493125000000        -9.233441464305174E-081
   102.706875000000        -2.147505821825821E-080
   102.920625000000        -3.536130420114408E-080
   103.134375000000        -4.835228331748734E-080
   103.348125000000        -5.668798101025901E-080
   103.561875000000        -5.564429687639606E-080
   103.775625000000        -4.017791213610616E-080
   103.989375000000        -6.015762811463758E-081
   104.203125000000         4.883687590654008E-080
   104.416875000000         1.223166988346951E-079
   104.630625000000         2.065493381492047E-079
   104.844375000000         2.865809988730382E-079
   105.058125000000         3.401849616898767E-079
   105.271875000000         3.393887960742329E-079
   105.485625000000         2.542906788876120E-079
   105.699375000000         5.946887224533082E-080
   105.913125000000        -2.571986173808366E-079
   106.126875000000        -6.841956719587865E-079
   106.340625000000        -1.176274210372302E-078
   106.554375000000        -1.647271599900285E-078
   106.768125000000        -1.969230141669211E-078
   106.981875000000        -1.981473385317677E-078
   107.195625000000        -1.512781345139839E-078
   107.409375000000        -4.182258559472809E-079
   107.623125000000         1.370600930724993E-078
   107.836875000000         3.787268754229199E-078
   108.050625000000         6.574287267689020E-078
   108.264375000000         9.244118567423188E-078
   108.478125000000         1.107638515897350E-077
   108.691875000000         1.117136261585375E-077
   108.905625000000         8.576560750869399E-078
   109.119375000000         2.493968970326688E-078
   109.333125000000        -7.440482912020827E-078
   109.546875000000        -2.083612490106035E-077
   109.760625000000        -3.624291691869177E-077
   109.974375000000        -5.094692778243098E-077
   110.188125000000        -6.096941442460609E-077
   110.401875000000        -6.137719580374860E-077
   110.615625000000        -4.699177047694145E-077
   110.829375000000        -1.353213848559280E-077
   111.043125000000         4.086231818469302E-077
   111.256875000000         1.139042249760476E-076
   111.470625000000         1.975431659974327E-076
   111.684375000000         2.769182963215595E-076
   111.898125000000         3.304312999890948E-076
   112.111875000000         3.315049398923124E-076
   112.325625000000         2.524729715742177E-076
   112.539375000000         7.075687720186754E-077
   112.753125000000        -2.229931577357216E-076
   112.966875000000        -6.157609545436481E-076
   113.180625000000        -1.063739633574172E-075
   113.394375000000        -1.487033342667633E-075
   113.608125000000        -1.770378341585290E-075
   113.821875000000        -1.772798069436359E-075
   114.035625000000        -1.348433346595328E-075
   114.249375000000        -3.792305188479464E-076
   114.463125000000         1.182344209724479E-075
   114.676875000000         3.265743069810635E-075
   114.890625000000         5.638899283739149E-075
   115.104375000000         7.881435954995166E-075
   115.318125000000         9.389376920887563E-075
   115.531875000000         9.426162528742607E-075
   115.745625000000         7.231153675961274E-075
   115.959375000000         2.188705802469659E-075
   116.173125000000        -5.951988513522078E-075
   116.386875000000        -1.683306237694311E-074
   116.600625000000        -2.926597279726733E-074
   116.814375000000        -4.109481339252616E-074
   117.028125000000        -4.921978934161660E-074
   117.241875000000        -4.985501089264452E-074
   117.455625000000        -3.907624793374732E-074
   117.669375000000        -1.367357500944509E-074
   117.883125000000         2.774036482807329E-074
   118.096875000000         8.349983884422570E-074
   118.310625000000         1.477605818288415E-073
   118.524375000000         2.097934690284428E-073
   118.738125000000         2.540670303870914E-073
   118.951875000000         2.614852582622100E-073
   119.165625000000         2.120572599631259E-073
   119.379375000000         8.907795478360190E-074
   119.593125000000        -1.154116842137135E-073
   119.806875000000        -3.945229074805534E-073
   120.020625000000        -7.208685747074385E-073
   120.234375000000        -1.042877063592326E-072
   120.448125000000        -1.284858684847328E-072
   120.661875000000        -1.352608749563354E-072
   120.875625000000        -1.145918522223531E-072
   121.089375000000        -5.784446616850020E-073
   121.303125000000         3.960697824087262E-073
   121.516875000000         1.754144971767571E-072
   121.730625000000         3.374559625795591E-072
   121.944375000000         5.019082148650474E-072
   122.158125000000         6.330385582374003E-072
   122.371875000000         6.855685179380703E-072
   122.585625000000         6.102854314909405E-072
   122.799375000000         3.631652870521320E-072
   123.013125000000        -8.239117887094992E-073
   123.226875000000        -7.214844800855042E-072
   123.440625000000        -1.504076575033344E-071
   123.654375000000        -2.325006438527464E-071
   123.868125000000        -3.021551486168431E-071