  -1.60312500000000         0.000000000000000E+000
  -1.38937500000000         0.000000000000000E+000
  -1.17562500000000         0.000000000000000E+000
 -0.961875000000000         0.000000000000000E+000
 -0.748125000000000         0.000000000000000E+000
 -0.534375000000000         0.000000000000000E+000
 -0.320625000000000         0.000000000000000E+000
 -0.106875000000000         0.000000000000000E+000
  0.106875000000000         0.000000000000000E+000
  0.320625000000000         0.000000000000000E+000
  0.534375000000000         0.000000000000000E+000
  0.748125000000000         0.000000000000000E+000
  0.961875000000000         0.000000000000000E+000
   1.17562500000000         0.000000000000000E+000
   1.38937500000000         0.000000000000000E+000
   1.60312500000000         0.000000000000000E+000
   1.81687500000000         0.000000000000000E+000
   2.03062500000000         0.000000000000000E+000
   2.24437500000000         0.000000000000000E+000
   2.45812500000000         0.000000000000000E+000
   2.67187500000000         0.000000000000000E+000
   2.88562500000000         0.000000000000000E+000
   3.09937500000000         0.000000000000000E+000
   3.31312500000000         0.000000000000000E+000
   3.52687500000000         0.000000000000000E+000
   3.74062500000000         0.000000000000000E+000
   3.95437500000000         0.000000000000000E+000
   4.16812500000000         0.000000000000000E+000
   4.38187500000000         0.000000000000000E+000
   4.59562500000000         0.000000000000000E+000
   4.80937500000000         0.000000000000000E+000
   5.02312500000000         0.000000000000000E+000
   5.23687500000000         0.000000000000000E+000
   5.45062500000000         0.000000000000000E+000
   5.66437500000000         0.000000000000000E+000
   5.87812500000000         0.000000000000000E+000
   6.09187500000000         0.000000000000000E+000
   6.30562500000000         0.000000000000000E+000
   6.51937500000000         0.000000000000000E+000
   6.73312500000000         0.000000000000000E+000
   6.94687500000000         0.000000000000000E+000
   7.16062500000000         0.000000000000000E+000
   7.37437500000000         0.000000000000000E+000
   7.58812500000000         0.000000000000000E+000
   7.80187500000000         0.000000000000000E+000
   8.01562500000000         0.000000000000000E+000
   8.22937500000000         0.000000000000000E+000
   8.44312500000000         0.000000000000000E+000
   8.65687500000000         0.000000000000000E+000
   8.87062500000000         0.000000000000000E+000
   9.08437500000000         0.000000000000000E+000
   9.29812500000000         0.000000000000000E+000
   9.51187500000000         0.000000000000000E+000
   9.72562500000000         0.000000000000000E+000
   9.93937500000000         0.000000000000000E+000
   10.1531250000000         0.000000000000000E+000
   10.3668750000000         1.356898921250628E-212
   10.5806250000000        -1.066287788266922E-205
   10.7943750000000        -7.814936477502984E-201
   11.0081250000000        -3.314567224017537E-197
   11.2218750000000         3.296080521319207E-194
   11.4356250000000         1.866506174059321E-192
   11.6493750000000         7.805940202112365E-191
   11.8631250000000         3.003395638669551E-189
   12.0768750000000         9.649166190954414E-188
   12.2906250000000         2.597164309995663E-186
   12.5043750000000         6.173573007795367E-185
   12.7181250000000         1.329542727038761E-183
   12.9318750000000         2.572426474942393E-182
   13.1456250000000         4.396932122828291E-181
   13.3593750000000         6.578646764973933E-180
   13.5731250000000         8.611493439115579E-179
   13.7868750000000         9.904587299492030E-178
   14.0006250000000         1.006779240876828E-176
   14.2143750000000         9.093344955310629E-176
   14.4281250000000         7.326729981015263E-175
   14.6418750000000         5.274690799740726E-174
   14.8556250000000         3.387126090421820E-173
   15.0693750000000         1.926439847049322E-172
   15.2831250000000         9.542259209493388E-172
   15.4968750000000         3.957635290133636E-171
   15.7106250000000         1.229282271264615E-170
   15.9243750000000         1.497863504078924E-170
   16.1381250000000        -1.415769972760140E-169
   16.3518750000000        -1.399819518058202E-168
   16.5656250000000        -7.450904090518211E-168
   16.7793750000000        -2.346792272640962E-167
   16.9931250000000         1.422558097875426E-167
   17.2068750000000         8.734815605361905E-166
   17.4206250000000         8.136160685126332E-165
   17.6343750000000         5.430108077457933E-164
   17.8481250000000         3.023942769171410E-163
   18.0618750000000         1.476350852156329E-162
   18.2756250000000         6.443924737426228E-162
   18.4893750000000         2.526602210370105E-161
   18.7031250000000         8.827502140996711E-161
   18.9168750000000         2.669940123716178E-160
   19.1306250000000         6.409955177163274E-160
   19.3443750000000         7.974875560211456E-160
   19.5581250000000        -3.101037094750137E-159
   19.7718750000000        -3.153010658585947E-158
   19.9856250000000        -1.727651555994398E-157
   20.1993750000000        -7.594963425957783E-157
   20.4131250000000        -2.919343302523592E-156
   20.6268750000000        -1.012293860049373E-155
   20.8406250000000        -3.205222894551299E-155
   21.0543750000000        -9.282914528004753E-155
   21.2681250000000        -2.440263792107912E-154
   21.4818750000000        -5.694720869440724E-154
   21.6956250000000        -1.114224381391807E-153
   21.9093750000000        -1.498474363815632E-153
   22.1231250000000         4.691930789548989E-154
   22.3368750000000         1.281046813785204E-152
   22.5506250000000         5.906937298915893E-152
   22.7643750000000         1.968182306315102E-151
   22.9781250000000         5.384732958610901E-151
   23.1918750000000         1.219764340466743E-150
   23.4056250000000         2.092427550362999E-150
   23.6193750000000         1.423537400216969E-150
   23.8331250000000        -8.384932384422972E-150
   24.0468750000000        -5.293794954384649E-149
   24.2606250000000        -2.065577603865652E-148
   24.4743750000000        -6.622362361361186E-148
   24.6881250000000        -1.874370410470721E-147
   24.9018750000000        -4.813292488145136E-147
   25.1156250000000        -1.133469418995962E-146
   25.3293750000000        -2.450615098787929E-146
   25.5431250000000        -4.828092898903687E-146
   25.7568750000000        -8.490765622861773E-146
   25.9706250000000        -1.266674859973323E-145
   26.1843750000000        -1.361276803151187E-145
   26.3981250000000        -7.799073767746264E-147
   26.6118750000000         4.907877683088855E-145
   26.8256250000000         1.777105350409205E-144
   27.0393750000000         4.427279890919102E-144
   27.2531250000000         8.859540522475970E-144
   27.4668750000000         1.434639038744862E-143
   27.6806250000000         1.686651169558247E-143
   27.8943750000000         5.667935434800105E-144
   28.1081250000000        -3.982493494301092E-143
   28.3218750000000        -1.463162752193138E-142
   28.5356250000000        -3.198657930568967E-142
   28.7493750000000        -4.647102763352947E-142
   28.9631250000000        -2.039109049758047E-142
   29.1768750000000         1.423198554802198E-141
   29.3906250000000         6.292009982894193E-141
   29.6043750000000         1.710579720764154E-140
   29.8181250000000         3.568488307305667E-140
   30.0318750000000         5.717130656242191E-140
   30.2456250000000         5.637336227483153E-140
   30.4593750000000        -3.695884957328569E-140
   30.6731250000000        -3.694257180300492E-139
   30.8868750000000        -1.171393253475341E-138
   31.1006250000000        -2.647218269053214E-138
   31.3143750000000        -4.532462435782394E-138
   31.5281250000000        -4.912925589317423E-138
   31.7418750000000         2.292304676574702E-138
   31.9556250000000         3.172339500639951E-137
   32.1693750000000         1.124223624566305E-136
   32.3831250000000         2.914790941834890E-136
   32.5968750000000         6.240850034825504E-136
   32.8106250000000         1.123391489568508E-135
   33.0243750000000         1.619063038470054E-135
   33.2381250000000         1.443883929618846E-135
   33.4518750000000        -1.145391611211380E-135
   33.6656250000000        -9.845384023640724E-135
   33.8793750000000        -3.125478678123553E-134
   34.0931250000000        -7.499403905419245E-134
   34.3068750000000        -1.507022981300845E-133
   34.5206250000000        -2.572177138125183E-133
   34.7343750000000        -3.559160030737486E-133
   34.9481250000000        -3.171497573384540E-133
   35.1618750000000         1.701540160108650E-133
   35.3756250000000         1.721706680905685E-132
   35.5893750000000         5.366871837621816E-132
   35.8031250000000         1.249976788868502E-131
   36.0168750000000         2.434959032160674E-131
   36.2306250000000         4.037148102795420E-131
   36.4443750000000         5.463276689215111E-131
   36.6581250000000         4.908707417339979E-131
   36.8718750000000        -1.692260881660869E-131
   37.0856250000000        -2.195513621693393E-130
   37.2993750000000        -6.791478965573611E-130
   37.5131250000000        -1.547748049846454E-129
   37.7268750000000        -2.940946574093872E-129
   37.9406250000000        -4.756061670133865E-129
   38.1543750000000        -6.296227906397607E-129
   38.3681250000000        -5.621157198593414E-129
   38.5818750000000         1.383795439478106E-129
   38.7956250000000         2.200771488466262E-128
   39.0093750000000         6.708624556465849E-128
   39.2231250000000         1.491820291083216E-127
   39.4368750000000         2.757254676410446E-127
   39.6506250000000         4.327995986243349E-127
   39.8643750000000         5.544251039528397E-127
   40.0781250000000         4.738795251925327E-127
   40.2918750000000        -1.388643085943906E-127
   40.5056250000000        -1.831073061828793E-126
   40.7193750000000        -5.355026907694407E-126
   40.9331250000000        -1.147707545111654E-125
   41.1468750000000        -2.042609473341518E-125
   41.3606250000000        -3.074239711468464E-125
   41.5743750000000        -3.730741588913241E-125
   41.7881250000000        -2.854925720345972E-125
   42.0018750000000         1.658932974349015E-125
   42.2156250000000         1.301494670622552E-124
   42.4293750000000         3.514185572180083E-124
   42.6431250000000         7.117002664788247E-124
   42.8568750000000         1.198937016085342E-123
   43.0706250000000         1.693238271660715E-123
   43.2843750000000         1.869849306215399E-123
   43.4981250000000         1.082926779697154E-123
   43.7118750000000        -1.721677309848828E-123
   43.9256250000000        -7.958787615747097E-123
   44.1393750000000        -1.903853765093166E-122
   44.3531250000000        -3.542602966746587E-122
   44.5668750000000        -5.485235371672480E-122
   44.7806250000000        -6.954662729184358E-122
   44.9943750000000        -6.281296944301446E-122
   45.2081250000000        -6.214442284619228E-123
   45.4218750000000         1.398425915616456E-121
   45.6356250000000         4.173331051606551E-121
   45.8493750000000         8.470359549476296E-121
   46.0631250000000         1.383407467349517E-120
   46.2768750000000         1.845375969188908E-120
   46.4906250000000         1.832871895595327E-120
   46.7043750000000         6.633702495298817E-121
   46.9181250000000        -2.598902259107034E-120
   47.1318750000000        -8.901135538064707E-120
   47.3456250000000        -1.858998451761750E-119
   47.5593750000000        -3.028483039225224E-119
   47.7731250000000        -3.922294714734272E-119
   47.9868750000000        -3.540450105511131E-119
   48.2006250000000        -2.504146791031923E-120
   48.4143750000000         8.052848376455480E-119
   48.6281250000000         2.321517137700197E-118
   48.8418750000000         4.514380424225192E-118
   49.0556250000000         6.887517436227797E-118
   49.2693750000000         8.047187018200676E-118
   49.4831250000000         5.275707143894735E-118
   49.6968750000000        -5.643991035648585E-118
   49.9106250000000        -2.984354452066431E-117
   50.1243750000000        -7.124432331124297E-117
   50.3381250000000        -1.279488490827059E-116
   50.5518750000000        -1.844169207921187E-116
   50.7656250000000        -2.007127652818443E-116
   50.9793750000000        -1.014845759450822E-116
   51.1931250000000         2.284278946905660E-116
   51.4068750000000         9.287077592287932E-116
   51.6206250000000         2.108542976625401E-115
   51.8343750000000         3.727156586170273E-115
   52.0481250000000         5.389266647790729E-115
   52.2618750000000         6.058124961683742E-115
   52.4756250000000         3.744966778312549E-115
   52.6893750000000        -4.663674713090869E-115
   52.9031250000000        -2.312554912945579E-114
   53.1168750000000        -5.520859300370788E-114
   53.3306250000000        -1.012528358880405E-113
   53.5443750000000        -1.533062862665787E-113
   53.7581250000000        -1.876596045580528E-113
   53.9718750000000        -1.560052257455333E-113
   54.1856250000000         2.143091344585444E-114
   54.3993750000000         4.537629922266868E-113
   54.6131250000000         1.256513012121215E-112
   54.8268750000000         2.491375925221774E-112
   55.0406250000000         4.050478694942587E-112
   55.2543750000000         5.473392701321209E-112
   55.4681250000000         5.707558080922475E-112
   55.6818750000000         2.870618543508015E-112
   55.8956250000000        -5.845272537980333E-112
   56.1093750000000        -2.387109338610531E-111
   56.3231250000000        -5.417152799544705E-111
   56.5368750000000        -9.688063392697439E-111
   56.7506250000000        -1.452118600197532E-110
   56.9643750000000        -1.795301393647313E-110
   57.1781250000000        -1.603381814258642E-110
   57.3918750000000        -2.256051581581953E-111
   57.6056250000000         3.239430720283276E-110
   57.8193750000000         9.793821764624685E-110
   58.0331250000000         2.012961537838299E-109
   58.2468750000000         3.382518541309815E-109
   58.4606250000000         4.804938347836132E-109
   58.6743750000000         5.580305006211931E-109
   58.8881250000000         4.401137034358553E-109
   59.1018750000000        -7.725879537569717E-110
   59.3156250000000        -1.261989318087758E-108
   59.5293750000000        -3.390711058728727E-108
   59.7431250000000        -6.616198490687317E-108
   59.9568750000000        -1.072440702389426E-107
   60.1706250000000        -1.476187232548391E-107
   60.3843750000000        -1.655511587656461E-107
   60.5981250000000        -1.222580112039536E-107
   60.8118750000000         4.060417875652623E-108
   61.0256250000000         3.968837327960195E-107
   61.2393750000000         1.019001511951300E-106
   61.4531250000000         1.940254576770864E-106
   61.6668750000000         3.088785813207245E-106
   61.8806250000000         4.190029524513856E-106
   62.0943750000000         4.645735882754488E-106
   62.3081250000000         3.418868842957929E-106
   62.5218750000000        -1.013370631423226E-106
   62.7356250000000        -1.053288596731098E-105
   62.9493750000000        -2.692936882750016E-105
   63.1631250000000        -5.094415080866201E-105
   63.3768750000000        -8.064915350164908E-105
   63.5906250000000        -1.091188421371353E-104
   63.8043750000000        -1.216291244900991E-104
   64.0181250000000        -9.310885452488107E-105
   64.2318750000000         1.269705754518806E-105
   64.4456250000000         2.399724723948320E-104
   64.6593750000000         6.301916809657586E-104
   64.8731250000000         1.200326238178576E-103
   65.0868750000000         1.906775226422721E-103
   65.3006250000000         2.594662989432360E-103
   65.5143750000000         2.938183690541629E-103
   65.7281250000000         2.387980544251541E-103
   65.9418750000000         1.563827306776429E-104
   66.1556250000000        -4.710739060643741E-103
   66.3693750000000        -1.311000523655492E-102
   66.5831250000000        -2.543189180414334E-102
   66.7968750000000        -4.083095731872605E-102
   67.0106250000000        -5.621585471944726E-102
   67.2243750000000        -6.507891036596575E-102
   67.4381250000000        -5.648124533094604E-102
   67.6518750000000        -1.478340295574956E-102
   67.8656250000000         7.896797647755476E-102
   68.0793750000000         2.428026666159819E-101
   68.2931250000000         4.854500941770631E-101
   68.5068750000000         7.928676216812594E-101
   68.7206250000000         1.109783184632910E-100
   68.9343750000000         1.318482367586856E-100
   69.1481250000000         1.220476403013900E-100
   69.3618750000000         5.313299902403794E-101
   69.5756250000000        -1.095782763512802E-100
   69.7893750000000        -3.997722830193301E-100
   70.0031250000000        -8.358994493736727E-100
   70.2168750000000        -1.398403021749797E-099
   70.4306250000000        -1.998666731576121E-099
   70.6443750000000        -2.443379437168998E-099
   70.8581250000000        -2.403436873399756E-099
   71.0718750000000        -1.403755161916302E-099
   71.2856250000000         1.141521355338025E-099
   71.4993750000000         5.817215180033161E-099
   71.7131250000000         1.298603833903528E-098
   71.9268750000000         2.243490790330507E-098
   72.1406250000000         3.289227593913577E-098
   72.3543750000000         4.147134681638576E-098
   72.5681250000000         4.317357954574318E-098
   72.7818750000000         3.069198717107194E-098
   72.9956250000000        -5.130061334135144E-099
   73.2093750000000        -7.373348026558384E-098
   73.4231250000000        -1.816996812756064E-097
   73.6368750000000        -3.276861867621407E-097
   73.8506250000000        -4.954708321524531E-097
   74.0643750000000        -6.458344045667283E-097
   74.2781250000000        -7.090913412669500E-097
   74.4918750000000        -5.814977637590856E-097
   74.7056250000000        -1.303320663066059E-097
   74.9193750000000         7.862611437356624E-097
   75.1331250000000         2.278238747483704E-096
   75.3468750000000         4.356606967068636E-096
   75.5606250000000         6.840187845807270E-096
   75.7743750000000         9.244884624360481E-096
   75.9881250000000         1.067776188210806E-095
   76.2018750000000         9.776215853172705E-096
   76.4156250000000         4.752456187367253E-096
   76.6293750000000        -6.379557717438406E-096
   76.8431250000000        -2.531195658143440E-095
   77.0568750000000        -5.262000613160360E-095
   77.2706250000000        -8.659650214586203E-095
   77.4843750000000        -1.218350377649389E-094
   77.6981250000000        -1.478145009486238E-094
   77.9118750000000        -1.479509043121944E-094
   78.1256250000000        -9.982366323960975E-095
   78.3393750000000         2.250406029718217E-095
   78.5531250000000         2.430599517373748E-094
   78.7668750000000         5.745805073580420E-094
   78.9806250000000         1.004886316293013E-093
   79.1943750000000         1.479852140982922E-093
   79.4081250000000         1.885588167951257E-093
   79.6218750000000         2.034850836852912E-093
   79.8356250000000         1.665471097708311E-093
   80.0493750000000         4.611472010504220E-094
   80.2631250000000        -1.893676523123466E-093
   80.4768750000000        -5.614316271704409E-093
   80.6906250000000        -1.066665337444355E-092
   80.9043750000000        -1.657453220149560E-092
   81.1181250000000        -2.220855957047532E-092
   81.3318750000000        -2.560667767044004E-092
   81.5456250000000        -2.390718156084796E-092
   81.7593750000000        -1.350430064771844E-092
   81.9731250000000         9.444627894305156E-093
   82.1868750000000         4.803701215554438E-092
   82.4006250000000         1.030921224221492E-091
   82.6143750000000         1.710994542302208E-091
   82.8281250000000         2.418621443843844E-091
   83.0418750000000         2.963074697673039E-091
   83.2556250000000         3.052521660845900E-091
   83.4693750000000         2.302328416607410E-091
   83.6831250000000         2.774978606985928E-092
   83.8968750000000        -3.417095887900669E-091
   84.1106250000000        -8.988763891762501E-091
   84.3243750000000        -1.625098186979537E-090
   84.5381250000000        -2.437582094384811E-090
   84.7518750000000        -3.164615375639766E-090
   84.9656250000000        -3.528028359305703E-090
   85.1793750000000        -3.143517249514260E-090
   85.3931250000000        -1.552198099487153E-090
   85.6068750000000         1.702335999106060E-090
   85.8206250000000         6.939775940075977E-090
   86.0343750000000         1.414791988883474E-089
   86.2481250000000         2.273768931187760E-089
   86.4618750000000         3.128212916653880E-089
   86.6756250000000         3.730276619526509E-089
   86.8893750000000         3.719971930993625E-089
   87.1031250000000         2.645139187658506E-089
   87.3168750000000         2.243305298989117E-091
   87.5306250000000        -4.548100837387190E-089
   87.7443750000000        -1.120844799206114E-088
   87.9581250000000        -1.961409438648577E-088
   88.1718750000000        -2.867731918813343E-088
   88.3856250000000        -3.633467499156310E-088
   88.5993750000000        -3.942180642838279E-088
   88.8131250000000        -3.376798627368589E-088
   89.0268750000000        -1.464100971440722E-088
   89.2406250000000         2.233257991218688E-088
   89.4543750000000         7.969189291430567E-088
   89.6681250000000         1.561299019359782E-087
   89.8818750000000         2.441283738027249E-087
   90.0956250000000         3.276498763069797E-087
   90.3093750000000         3.805690069947071E-087
   90.5231250000000         3.667958651813298E-087
   90.7368750000000         2.432382943956493E-087
   90.9506250000000        -3.324208465742687E-088
   91.1643750000000        -4.940316527389309E-087
   91.3781250000000        -1.142029224182553E-086
   91.5918750000000        -1.931174884909189E-086
   91.8056250000000        -2.745297551470518E-086
   92.0193750000000        -3.381609494947513E-086
   92.2331250000000        -3.546529067557981E-086
   92.4468750000000        -2.873349241807199E-086
   92.6606250000000        -9.717349484036419E-087
   92.8743750000000         2.482923382090784E-086
   93.0881250000000         7.617735186776165E-086
   93.3018750000000         1.419536477788679E-085
   93.5156250000000         2.143354922670889E-085
   93.7293750000000         2.785076561103606E-085
   93.9431250000000         3.119696573219247E-085
   94.1568750000000         2.854425141870384E-085
   94.3706250000000         1.661855749965340E-085
   94.5843750000000        -7.558225109473281E-086
   94.7981250000000        -4.568419745832525E-085
   95.0118750000000        -9.689108748047417E-085
   95.2256250000000        -1.563017601256245E-084
   95.4393750000000        -2.137140406943177E-084
   95.6531250000000        -2.528416956834156E-084
   95.8668750000000        -2.516719624827904E-084
   96.0806250000000        -1.845605967839121E-084
   96.2943750000000        -2.662091689132888E-085
   96.5081250000000         2.392900061651859E-084
   96.7218750000000         6.131789397597984E-084
   96.9356250000000         1.067063890783189E-083
   97.1493750000000         1.534586876055045E-083
   97.3631250000000         1.904102362152735E-083
   97.5768750000000         2.019220169374027E-083
   97.7906250000000         1.691305767040305E-083
   98.0043750000000         7.281072193514881E-084
   98.2181250000000        -1.018954960487421E-083
   98.4318750000000        -3.589600929939442E-083
   98.6456250000000        -6.837501047914700E-083
   98.8593750000000        -1.035369942511700E-082
   99.0731250000000        -1.341080230538525E-082
   99.2868750000000        -1.495494693350138E-082
   99.5006250000000        -1.367656801190166E-082
   99.7143750000000        -8.189348940004180E-083
   99.9281250000000         2.663474719029582E-083
   100.141875000000         1.937758970582814E-082
   100.355625000000         4.126644953127005E-082
   100.569375000000         6.593027574441126E-082
   100.783125000000         8.884486345989758E-082
   100.996875000000         1.032458366920815E-081
   101.210625000000         1.005119977042717E-081
   101.424375000000         7.124363744347445E-082
   101.638125000000         7.169188110595091E-083
   101.851875000000        -9.611945587441454E-082
   102.065625000000        -2.358131443245770E-081
   102.279375000000        -3.984023546450223E-081
   102.493125000000        -5.568694470997294E-081
   102.706875000000        -6.696535568248943E-081
   102.920625000000        -6.826671022938244E-081
   103.134375000000        -5.356039470137169E-081
   103.348125000000        -1.734036073692490E-081
   103.561875000000         4.370725189519587E-081
   103.775625000000         1.286378287365654E-080
   103.989375000000         2.300755335414813E-080
   104.203125000000         3.324179071525625E-080
   104.416875000000         4.110789685796713E-080
   104.630625000000         4.335421937117185E-080
   104.844375000000         3.629724103603050E-080
   105.058125000000         1.649124304182816E-080
   105.271875000000        -1.828893276364354E-080
   105.485625000000        -6.782312781141436E-080
   105.699375000000        -1.281500279735777E-079
   105.913125000000        -1.904832123665214E-079
   106.126875000000        -2.407249475565351E-079
   106.340625000000        -2.600264143134670E-079
   106.554375000000        -2.268281002490781E-079
   106.768125000000        -1.206825764131274E-079
   106.981875000000         7.211682382149755E-080
   107.195625000000         3.515141008882240E-079
   107.409375000000         6.962582040316335E-079
   107.623125000000         1.057676844742768E-078
   107.836875000000         1.356847142661559E-078
   108.050625000000         1.487692073440380E-078
   108.264375000000         1.328423178643333E-078
   108.478125000000         7.629816698597019E-079
   108.691875000000        -2.874604030906270E-079
   108.905625000000        -1.825333796739083E-078
   109.119375000000        -3.735409465654316E-078
   109.333125000000        -5.750493678371513E-078
   109.546875000000        -7.436230725142117E-078
   109.760625000000        -8.208894876858563E-078
   109.974375000000        -7.399268549248043E-078
   110.188125000000        -4.371265594709562E-078
   110.401875000000         1.304963103292239E-078
   110.615625000000         9.639266361038019E-078
   110.829375000000         1.999818749425050E-077
   111.043125000000         3.092194155769300E-077
   111.256875000000         4.004775158959180E-077
   111.470625000000         4.421412203504781E-077
   111.684375000000         3.981523163728701E-077
   111.898125000000         2.344940847908633E-077
   112.111875000000        -7.143522768591246E-078
   112.325625000000        -5.193473950831784E-077
   112.539375000000        -1.074199280705692E-076
   112.753125000000        -1.656634961592598E-076
   112.966875000000        -2.139268330225683E-076
   113.180625000000        -2.352745471198169E-076
   113.394375000000        -2.105179901210650E-076
   113.608125000000        -1.217152270817645E-076
   113.821875000000         4.281920700592918E-077
   114.035625000000         2.824327580513616E-076
   114.249375000000         5.779055651444865E-076
   114.463125000000         8.865087225001980E-076
   114.676875000000         1.140210631191170E-075
   114.890625000000         1.249084310924606E-075
   115.104375000000         1.111762665952393E-075
   115.318125000000         6.340316712703536E-076
   115.531875000000        -2.447541725638620E-076
   115.745625000000        -1.519794412574486E-075
   115.959375000000        -3.088379073456723E-075
   116.173125000000        -4.724335187998032E-075
   116.386875000000        -6.069029657555509E-075
   116.600625000000        -6.649502627890558E-075
   116.814375000000        -5.933175225549087E-075
   117.028125000000        -3.424623332925875E-075
   117.241875000000         1.197337580075053E-075
   117.455625000000         7.914477614031025E-075
   117.669375000000         1.620091758578875E-074
   117.883125000000         2.489014936914960E-074
   118.096875000000         3.212648418966430E-074
   118.310625000000         3.545476504136083E-074
   118.524375000000         3.209648323995152E-074
   118.738125000000         1.944060312912031E-074
   118.951875000000        -4.258896160890484E-075
   119.165625000000        -3.903910876731478E-074
   119.379375000000        -8.236233616315467E-074
   119.593125000000        -1.284192657667991E-073
   119.806875000000        -1.678470227342860E-073
   120.020625000000        -1.881325365670632E-073
   120.234375000000        -1.749456507995512E-073
   120.448125000000        -1.145511982126532E-073
   120.661875000000         2.726683448965922E-075
   120.875625000000         1.782699168210493E-073
   121.089375000000         4.007574722450050E-073
   121.303125000000         6.425070584965810E-073
   121.516875000000         8.577688187949665E-073
   121.730625000000         9.843072532825746E-073
   121.944375000000         9.495030133448585E-073
   122.158125000000         6.817718465334172E-073
   122.371875000000         1.272756383840618E-073
   122.585625000000        -7.293075870297805E-073
   122.799375000000        -1.842691287488469E-072
   123.013125000000        -3.087901632097218E-072
   123.226875000000        -4.249929399823974E-072
   123.440625000000        -5.028580299799992E-072
   123.654375000000        -5.064649022298716E-072
   123.868125000000        -3.991673297107566E-072