  -1.60312500000000         0.000000000000000E+000
  -1.38937500000000         3.133174504033736E-012
  -1.17562500000000         2.195457760076098E-011
 -0.961875000000000         1.051980453169103E-010
 -0.748125000000000         4.064792343487955E-010
 -0.534375000000000         1.318870169037170E-009
 -0.320625000000000         3.660010710227151E-009
 -0.106875000000000         8.811132960502317E-009
  0.106875000000000         1.867517752609204E-008
  0.320625000000000         3.538437091642629E-008
  0.534375000000000         6.089806096035717E-008
  0.748125000000000         9.665596622554082E-008
  0.961875000000000         1.435034958119653E-007
   1.17562500000000         2.017305267314701E-007
   1.38937500000000         2.710984479076068E-007
   1.60312500000000         3.509874210012431E-007
   1.81687500000000         4.403617095728383E-007
   2.03062500000000         5.377152832915032E-007
   2.24437500000000         6.420973355615468E-007
   2.45812500000000         7.488851061109637E-007
   2.67187500000000         8.572964344375304E-007
   2.88562500000000         9.617109693775289E-007
   3.09937500000000         1.059910529563424E-006
   3.31312500000000         1.149364493472935E-006
   3.52687500000000         1.226960359701263E-006
   3.74062500000000         1.289981932010460E-006
   3.95437500000000         1.336787655407706E-006
   4.16812500000000         1.366079787995776E-006
   4.38187500000000         1.378687352368429E-006
   4.59562500000000         1.375582164957578E-006
   4.80937500000000         1.357750637811356E-006
   5.02312500000000         1.329190151461153E-006
   5.23687500000000         1.293034784489695E-006
   5.45062500000000         1.253736431105522E-006
   5.66437500000000         1.215919894863819E-006
   5.87812500000000         1.184156054469164E-006
   6.09187500000000         1.162630355851906E-006
   6.30562500000000         1.155126210033265E-006
   6.51937500000000         1.165614708253517E-006
   6.73312500000000         1.194464911404074E-006
   6.94687500000000         1.242914975549166E-006
   7.16062500000000         1.307894953163625E-006
   7.37437500000000         1.387477053782165E-006
   7.58812500000000         1.478259843512780E-006
   7.80187500000000         1.575376831286003E-006
   8.01562500000000         1.673352795842898E-006
   8.22937500000000         1.766304828127080E-006
   8.44312500000000         1.848425650683158E-006
   8.65687500000000         1.914348110124086E-006
   8.87062500000000         1.959353630782267E-006
   9.08437500000000         1.979830254606896E-006
   9.29812500000000         1.974509713140045E-006
   9.51187500000000         1.942475408995484E-006
   9.72562500000000         1.885063911399012E-006
   9.93937500000000         1.804323069454855E-006
   10.1531250000000         1.703353734374092E-006
   10.3668750000000         1.586500471874207E-006
   10.5806250000000         1.458563451177353E-006
   10.7943750000000         1.324463602565334E-006
   11.0081250000000         1.189018980425538E-006
   11.2218750000000         1.053660426105471E-006
   11.4356250000000         9.286240220302201E-007
   11.6493750000000         8.093678364246095E-007
   11.8631250000000         7.087998034979269E-007
   12.0768750000000         6.160944535620945E-007
   12.2906250000000         5.461777342595078E-007
   12.5043750000000         4.864664293572373E-007
   12.7181250000000         4.483540394761828E-007
   12.9318750000000         4.225851238365624E-007
   13.1456250000000         4.151380035136777E-007
   13.3593750000000         4.177826061652339E-007
   13.5731250000000         4.297633068551686E-007
   13.7868750000000         4.487955209752121E-007
   14.0006250000000         4.721701385133664E-007
   14.2143750000000         4.968848058163837E-007
   14.4281250000000         5.198515449894754E-007
   14.6418750000000         5.381579210172822E-007
   14.8556250000000         5.495664290508286E-007
   15.0693750000000         5.518721243058358E-007
   15.2831250000000         5.452594053187577E-007
   15.4968750000000         5.278186145227438E-007
   15.7106250000000         5.031868519896044E-007
   15.9243750000000         4.738682278584592E-007
   16.1381250000000         4.425454896777097E-007
   16.3518750000000         4.127952103670642E-007
   16.5656250000000         3.877967752155467E-007
   16.7793750000000         3.705350246287454E-007
   16.9931250000000         3.633742293130297E-007
   17.2068750000000         3.678328757290573E-007
   17.4206250000000         3.874365257524299E-007
   17.6343750000000         4.158433856142638E-007
   17.8481250000000         4.426774748067214E-007
   18.0618750000000         4.766547159303496E-007
   18.2756250000000         5.001049219553883E-007
   18.4893750000000         5.228730201928170E-007
   18.7031250000000         5.307522556980081E-007
   18.9168750000000         5.310506185999262E-007
   19.1306250000000         5.213247943859555E-007
   19.3443750000000         5.028757195729148E-007
   19.5581250000000         4.782994934938828E-007
   19.7718750000000         4.511278892043933E-007
   19.9856250000000         4.253353672458447E-007
   20.1993750000000         4.049403263000175E-007
   20.4131250000000         3.934426392565199E-007
   20.6268750000000         3.935822686965893E-007
   20.8406250000000         4.069027123317781E-007
   21.0543750000000         4.328493609215483E-007
   21.2681250000000         4.702331853980153E-007
   21.4818750000000         5.177295389145280E-007
   21.6956250000000         5.713728893245913E-007
   21.9093750000000         6.284989141885725E-007
   22.1231250000000         6.862215026776184E-007
   22.3368750000000         7.423409205016002E-007
   22.5506250000000         7.954107091352014E-007
   22.7643750000000         8.446525336001848E-007
   22.9781250000000         8.906195396616127E-007
   23.1918750000000         9.341144979504057E-007
   23.4056250000000         9.757158035725791E-007
   23.6193750000000         1.016354031109845E-006
   23.8331250000000         1.056085456086627E-006
   24.0468750000000         1.094689093051453E-006
   24.2606250000000         1.131238448248389E-006
   24.4743750000000         1.164344041611533E-006
   24.6881250000000         1.191946220929304E-006
   24.9018750000000         1.211545986501763E-006
   25.1156250000000         1.220455304615193E-006
   25.3293750000000         1.217011782168143E-006
   25.5431250000000         1.200309678609063E-006
   25.7568750000000         1.168629065149496E-006
   25.9706250000000         1.122037389753189E-006
   26.1843750000000         1.059321728916510E-006
   26.3981250000000         9.922546404326630E-007
   26.6118750000000         9.123716224529187E-007
   26.8256250000000         8.362503269744280E-007
   27.0393750000000         7.547193475573438E-007
   27.2531250000000         6.831217144445669E-007
   27.4668750000000         6.169208101059434E-007
   27.6806250000000         5.590969379976675E-007
   27.8943750000000         5.112457744901106E-007
   28.1081250000000         4.742627308135494E-007
   28.3218750000000         4.462633296304113E-007
   28.5356250000000         4.269413286718614E-007
   28.7493750000000         4.145614503485432E-007
   28.9631250000000         4.070765762622439E-007
   29.1768750000000         4.021441214774730E-007
   29.3906250000000         3.975934214767772E-007
   29.6043750000000         3.914040758023674E-007
   29.8181250000000         3.819892439185457E-007
   30.0318750000000         3.681394140514762E-007
   30.2456250000000         3.507018753976624E-007
   30.4593750000000         3.261945655429649E-007
   30.6731250000000         2.963755455653342E-007
   30.8868750000000         2.617305888229573E-007
   31.1006250000000         2.227757794763313E-007
   31.3143750000000         1.802792397928684E-007
   31.5281250000000         1.349179979012374E-007
   31.7418750000000         8.745417627224594E-008
   31.9556250000000         3.852055874472167E-008
   32.1693750000000        -1.123048367778918E-008
   32.3831250000000        -6.114359070078650E-008
   32.5968750000000        -1.105819591511610E-007
   32.8106250000000        -1.586635813892156E-007
   33.0243750000000        -2.042878386795739E-007
   33.2381250000000        -2.465159145018669E-007
   33.4518750000000        -2.841522243207738E-007
   33.6656250000000        -3.158974335304878E-007
   33.8793750000000        -3.404401561473817E-007
   34.0931250000000        -3.565635418345480E-007
   34.3068750000000        -3.631953424239780E-007
   34.5206250000000        -3.594101661288056E-007
   34.7343750000000        -3.451360340267468E-007
   34.9481250000000        -3.203442834079729E-007
   35.1618750000000        -2.856234683141378E-007
   35.3756250000000        -2.428796092692773E-007
   35.5893750000000        -1.941815329775816E-007
   35.8031250000000        -1.420083345551213E-007
   36.0168750000000        -8.944508017824218E-008
   36.2306250000000        -3.995713510531511E-008
   36.4443750000000         2.767842478988776E-009
   36.6581250000000         3.540178258713685E-008
   36.8718750000000         5.105179357495556E-008
   37.0856250000000         6.043895760578172E-008
   37.2993750000000         4.928150272616003E-008
   37.5131250000000         2.579331898328311E-008
   37.7268750000000        -1.870562039321938E-008
   37.9406250000000        -6.756644362751580E-008
   38.1543750000000        -1.270404793100192E-007
   38.3681250000000        -1.902498801918515E-007
   38.5818750000000        -2.519612268930052E-007
   38.7956250000000        -3.065760360434580E-007
   39.0093750000000        -3.486789383991883E-007
   39.2231250000000        -3.730082234766048E-007
   39.4368750000000        -3.751453274227521E-007
   39.6506250000000        -3.492793045707856E-007
   39.8643750000000        -3.039326209018582E-007
   40.0781250000000        -2.351205197942321E-007
   40.2918750000000        -1.465753934382899E-007
   40.5056250000000        -4.357311542776181E-008
   40.7193750000000         6.916977246590482E-008
   40.9331250000000         1.821773958411979E-007
   41.1468750000000         3.007811065061172E-007
   41.3606250000000         4.066349561114023E-007
   41.5743750000000         5.016306508429838E-007
   41.7881250000000         5.819102101971790E-007
   42.0018750000000         6.441889761837230E-007
   42.2156250000000         6.863176267706167E-007
   42.4293750000000         7.069986432656921E-007
   42.6431250000000         7.048538314570507E-007
   42.8568750000000         6.777249033001948E-007
   43.0706250000000         6.389888528570357E-007
   43.2843750000000         5.756282017419471E-007
   43.4981250000000         4.998313870169289E-007
   43.7118750000000         4.061245515860518E-007
   43.9256250000000         2.964846269785974E-007
   44.1393750000000         1.725952730646504E-007
   44.3531250000000         3.638223670993287E-008
   44.5668750000000        -1.098643244962220E-007
   44.7806250000000        -2.634477164159057E-007
   44.9943750000000        -4.212329188847204E-007
   45.2081250000000        -5.797515530589777E-007
   45.4218750000000        -7.353297512460704E-007
   45.6356250000000        -8.843085604986969E-007
   45.8493750000000        -1.023235572406756E-006
   46.0631250000000        -1.149101731342836E-006
   46.2768750000000        -1.259502922235898E-006
   46.4906250000000        -1.352836648125109E-006
   46.7043750000000        -1.428160945978653E-006
   46.9181250000000        -1.485272956246398E-006
   47.1318750000000        -1.524564067206699E-006
   47.3456250000000        -1.548542382863287E-006
   47.5593750000000        -1.558183368697940E-006
   47.7731250000000        -1.553876797018549E-006
   47.9868750000000        -1.539888191773971E-006
   48.2006250000000        -1.510461171638131E-006
   48.4143750000000        -1.476107723203542E-006
   48.6281250000000        -1.430211170731528E-006
   48.8418750000000        -1.377315892676413E-006
   49.0556250000000        -1.316231325309901E-006
   49.2693750000000        -1.252438511182225E-006
   49.4831250000000        -1.186552963030105E-006
   49.6968750000000        -1.120603076994270E-006
   49.9106250000000        -1.056767690074412E-006
   50.1243750000000        -9.968757352432925E-007
   50.3381250000000        -9.429598283721110E-007
   50.5518750000000        -8.963641312304188E-007
   50.7656250000000        -8.543247036407492E-007
   50.9793750000000        -8.271971951126253E-007
   51.1931250000000        -8.045306846664099E-007
   51.4068750000000        -7.971458495934623E-007
   51.6206250000000        -7.914525301686985E-007
   51.8343750000000        -7.999808607699344E-007
   52.0481250000000        -8.060754705523244E-007
   52.2618750000000        -8.228789931313487E-007
   52.4756250000000        -8.363474435253890E-007
   52.6893750000000        -8.502202238206180E-007
   52.9031250000000        -8.649373809262755E-007
   53.1168750000000        -8.741304756858518E-007
   53.3306250000000        -8.795739208640222E-007
   53.5443750000000        -8.815779063658920E-007
   53.7581250000000        -8.800923557160531E-007
   53.9718750000000        -8.751568666150596E-007
   54.1856250000000        -8.672465871228228E-007
   54.3993750000000        -8.568538203499097E-007
   54.6131250000000        -8.444551759197894E-007
   54.8268750000000        -8.305374679353932E-007
   55.0406250000000        -8.156434042010440E-007
   55.2543750000000        -8.003354647299394E-007
   55.4681250000000        -7.853464628285812E-007
   55.6818750000000        -7.715170512232814E-007
   55.8956250000000        -7.599660120625604E-007
   56.1093750000000        -7.519087836065827E-007
   56.3231250000000        -7.486272542642128E-007
   56.5368750000000        -7.520753863921112E-007
   56.7506250000000        -7.630219186847553E-007
   56.9643750000000        -7.822803278673000E-007
   57.1781250000000        -8.110139631388492E-007
   57.3918750000000        -8.507410090025492E-007
   57.6056250000000        -9.022831133460001E-007
   57.8193750000000        -9.660884299349145E-007
   58.0331250000000        -1.042542510400625E-006
   58.2468750000000        -1.131659954489101E-006
   58.4606250000000        -1.232920511286638E-006
   58.6743750000000        -1.345553041742892E-006
   58.8881250000000        -1.472307088753902E-006
   59.1018750000000        -1.602009924690511E-006
   59.3156250000000        -1.744105265518481E-006
   59.5293750000000        -1.885352313160543E-006
   59.7431250000000        -2.026676670548602E-006
   59.9568750000000        -2.163902113705651E-006
   60.1706250000000        -2.293664932754526E-006
   60.3843750000000        -2.412543541921712E-006
   60.5981250000000        -2.517295712295009E-006
   60.8118750000000        -2.605853162826822E-006
   61.0256250000000        -2.673954845846754E-006
   61.2393750000000        -2.729181393499254E-006
   61.4531250000000        -2.759128262787917E-006
   61.6668750000000        -2.772467330519840E-006
   61.8806250000000        -2.769883749206960E-006
   62.0943750000000        -2.751082916647922E-006
   62.3081250000000        -2.716323880766970E-006
   62.5218750000000        -2.666427646542094E-006
   62.7356250000000        -2.602946482888490E-006
   62.9493750000000        -2.522702852331224E-006
   63.1631250000000        -2.438032873381290E-006
   63.3768750000000        -2.339138291557887E-006
   63.5906250000000        -2.237667575374550E-006
   63.8043750000000        -2.130218096932521E-006
   64.0181250000000        -2.015752829187806E-006
   64.2318750000000        -1.908012187278629E-006
   64.4456250000000        -1.805971298397055E-006
   64.6593750000000        -1.713415185166674E-006
   64.8731250000000        -1.635346308387139E-006
   65.0868750000000        -1.576365576518168E-006
   65.3006250000000        -1.539963614223609E-006
   65.5143750000000        -1.528869569229494E-006
   65.7281250000000        -1.542669065511167E-006
   65.9418750000000        -1.581955595115313E-006
   66.1556250000000        -1.643952713775862E-006
   66.3693750000000        -1.724135614829899E-006
   66.5831250000000        -1.817658481101645E-006
   66.7968750000000        -1.918357896341773E-006
   67.0106250000000        -2.019743411615833E-006
   67.2243750000000        -2.115523882201315E-006
   67.4381250000000        -2.200056951842897E-006
   67.6518750000000        -2.264687054319477E-006
   67.8656250000000        -2.318744731756037E-006
   68.0793750000000        -2.345525132281827E-006
   68.2931250000000        -2.360755895389761E-006
   68.5068750000000        -2.354785594977045E-006
   68.7206250000000        -2.338467803740388E-006
   68.9343750000000        -2.308598776679791E-006
   69.1481250000000        -2.270657874921604E-006
   69.3618750000000        -2.228073438895653E-006
   69.5756250000000        -2.184144154635743E-006
   69.7893750000000        -2.141788217410708E-006
   70.0031250000000        -2.103565838688581E-006
   70.2168750000000        -2.071621199905649E-006
   70.4306250000000        -2.047813151442801E-006
   70.6443750000000        -2.033577190145886E-006
   70.8581250000000        -2.031424593264837E-006
   71.0718750000000        -2.043946623446438E-006
   71.2856250000000        -2.075152868397627E-006
   71.4993750000000        -2.126444590388964E-006
   71.7131250000000        -2.191937492090502E-006
   71.9268750000000        -2.284539503336371E-006
   72.1406250000000        -2.393840802902265E-006
   72.3543750000000        -2.531362523897027E-006
   72.5681250000000        -2.682626782728373E-006
   72.7818750000000        -2.851879478110907E-006
   72.9956250000000        -3.036542576269559E-006
   73.2093750000000        -3.226259848412846E-006
   73.4231250000000        -3.415350797035780E-006
   73.6368750000000        -3.598391685232060E-006
   73.8506250000000        -3.768569816094921E-006
   74.0643750000000        -3.919802811299582E-006
   74.2781250000000        -4.047309775854340E-006
   74.4918750000000        -4.147830826644881E-006
   74.7056250000000        -4.219668407744700E-006
   74.9193750000000        -4.263024617467038E-006
   75.1331250000000        -4.279041599386415E-006
   75.3468750000000        -4.278013304280990E-006
   75.5606250000000        -4.248404756466180E-006
   75.7743750000000        -4.208435085144234E-006
   75.9881250000000        -4.151281354429846E-006
   76.2018750000000        -4.083366933505762E-006
   76.4156250000000        -4.005450711159415E-006
   76.6293750000000        -3.922256761441694E-006
   76.8431250000000        -3.833308761620861E-006
   77.0568750000000        -3.738828433948154E-006
   77.2706250000000        -3.638626046756132E-006
   77.4843750000000        -3.532735914439116E-006
   77.6981250000000        -3.416465413300195E-006
   77.9118750000000        -3.304225091297465E-006
   78.1256250000000        -3.184848502405547E-006
   78.3393750000000        -3.077932308298162E-006
   78.5531250000000        -2.971916352555037E-006
   78.7668750000000        -2.888432341583863E-006
   78.9806250000000        -2.816762096275593E-006
   79.1943750000000        -2.775725075924871E-006
   79.4081250000000        -2.759434225336391E-006
   79.6218750000000        -2.773235861623193E-006
   79.8356250000000        -2.813379907306020E-006
   80.0493750000000        -2.879996727201140E-006
   80.2631250000000        -2.970538905336160E-006
   80.4768750000000        -3.080184464408736E-006
   80.6906250000000        -3.203362371712377E-006
   80.9043750000000        -3.333991964176358E-006
   81.1181250000000        -3.470810678298081E-006
   81.3318750000000        -3.596803306011243E-006
   81.5456250000000        -3.718905776390532E-006
   81.7593750000000        -3.823961597808562E-006
   81.9731250000000        -3.916270930018144E-006
   82.1868750000000        -3.998279380988178E-006
   82.4006250000000        -4.057807177137694E-006
   82.6143750000000        -4.104961437978616E-006
   82.8281250000000        -4.137112315049500E-006
   83.0418750000000        -4.153817806840167E-006
   83.2556250000000        -4.157963156646537E-006
   83.4693750000000        -4.148977124409390E-006
   83.6831250000000        -4.126492992237856E-006
   83.8968750000000        -4.090015824018926E-006
   84.1106250000000        -4.037290610918849E-006
   84.3243750000000        -3.979061658976257E-006
   84.5381250000000        -3.906303820663311E-006
   84.7518750000000        -3.835621205270982E-006
   84.9656250000000        -3.765887129385419E-006
   85.1793750000000        -3.705794209177273E-006
   85.3931250000000        -3.661308688711181E-006
   85.6068750000000        -3.641439438887865E-006
   85.8206250000000        -3.646761273406261E-006
   86.0343750000000        -3.689215355622912E-006
   86.2481250000000        -3.762918880401189E-006
   86.4618750000000        -3.871550777212429E-006
   86.6756250000000        -4.012689622136595E-006
   86.8893750000000        -4.182374119130785E-006
   87.1031250000000        -4.379376617893027E-006
   87.3168750000000        -4.580516572375759E-006
   87.5306250000000        -4.792354956667794E-006
   87.7443750000000        -4.990564181756688E-006
   87.9581250000000        -5.181533746711217E-006
   88.1718750000000        -5.347021650086612E-006
   88.3856250000000        -5.489366237337995E-006
   88.5993750000000        -5.607057694606079E-006
   88.8131250000000        -5.700125368704574E-006
   89.0268750000000        -5.770503354319880E-006
   89.2406250000000        -5.821961539521892E-006
   89.4543750000000        -5.857680655352341E-006
   89.6681250000000        -5.880622981304081E-006
   89.8818750000000        -5.893514199887775E-006
   90.0956250000000        -5.898236530791716E-006
   90.3093750000000        -5.895415916977601E-006
   90.5231250000000        -5.883761781440192E-006
   90.7368750000000        -5.861573738365087E-006
   90.9506250000000        -5.826306504053040E-006
   91.1643750000000        -5.775910839246863E-006
   91.3781250000000        -5.709135208173326E-006
   91.5918750000000        -5.626167234801996E-006
   91.8056250000000        -5.528841644785653E-006
   92.0193750000000        -5.421066759848634E-006
   92.2331250000000        -5.308139050096015E-006
   92.4468750000000        -5.196632482124136E-006
   92.6606250000000        -5.093687747754333E-006
   92.8743750000000        -5.006033533977139E-006
   93.0881250000000        -4.939291845720353E-006
   93.3018750000000        -4.897273443943984E-006
   93.5156250000000        -4.881087019797569E-006
   93.7293750000000        -4.891009747871876E-006
   93.9431250000000        -4.922819490873287E-006
   94.1568750000000        -4.972462968310597E-006
   94.3706250000000        -5.033254799214227E-006
   94.5843750000000        -5.097880972224210E-006
   94.7981250000000        -5.160101446783892E-006
   95.0118750000000        -5.214095985375291E-006
   95.2256250000000        -5.256420030855900E-006
   95.4393750000000        -5.285426881491845E-006
   95.6531250000000        -5.301289741995487E-006
   95.8668750000000        -5.304537499909310E-006
   96.0806250000000        -5.309233826376786E-006
   96.2943750000000        -5.311322449983979E-006
   96.5081250000000        -5.317557106278704E-006
   96.7218750000000        -5.332415594162527E-006
   96.9356250000000        -5.358754943597524E-006
   97.1493750000000        -5.398613539873991E-006
   97.3631250000000        -5.451561569020305E-006
   97.5768750000000        -5.516024454430275E-006
   97.7906250000000        -5.587737549497574E-006
   98.0043750000000        -5.661460529239834E-006
   98.2181250000000        -5.731859109104359E-006
   98.4318750000000        -5.794327433387753E-006
   98.6456250000000        -5.845580689976261E-006
   98.8593750000000        -5.883344915422444E-006
   99.0731250000000        -5.907454579197068E-006
   99.2868750000000        -5.919158370742688E-006
   99.5006250000000        -5.917007022015359E-006
   99.7143750000000        -5.918363718870002E-006
   99.9281250000000        -5.914326377785054E-006
   100.141875000000        -5.925871028312488E-006
   100.355625000000        -5.947514841787872E-006
   100.569375000000        -5.987582554386735E-006
   100.783125000000        -6.047042159385898E-006
   100.996875000000        -6.125270574825469E-006
   101.210625000000        -6.220743407491938E-006
   101.424375000000        -6.330103011218332E-006
   101.638125000000        -6.448901953199243E-006
   101.851875000000        -6.571891422197084E-006
   102.065625000000        -6.697852935335167E-006
   102.279375000000        -6.812038688155735E-006
   102.493125000000        -6.921222712132247E-006
   102.706875000000        -7.011644733924238E-006
   102.920625000000        -7.090236768778590E-006
   103.134375000000        -7.156986819245795E-006
   103.348125000000        -7.213058971517752E-006
   103.561875000000        -7.260109430061142E-006
   103.775625000000        -7.302188316634668E-006
   103.989375000000        -7.341896165104314E-006
   104.203125000000        -7.381853283492618E-006
   104.416875000000        -7.422105076588002E-006
   104.630625000000        -7.462240815315636E-006
   104.844375000000        -7.500898906049809E-006
   105.058125000000        -7.535871760058537E-006
   105.271875000000        -7.564570385240643E-006
   105.485625000000        -7.585657019615251E-006
   105.699375000000        -7.597241253429206E-006
   105.913125000000        -7.598252638797005E-006
   106.126875000000        -7.589735109843923E-006
   106.340625000000        -7.573600079618560E-006
   106.554375000000        -7.552803199372415E-006
   106.768125000000        -7.531410289137743E-006
   106.981875000000        -7.513174644337025E-006
   107.195625000000        -7.501883534693949E-006
   107.409375000000        -7.500692292961210E-006
   107.623125000000        -7.511277079312736E-006
   107.836875000000        -7.534116998159933E-006
   108.050625000000        -7.568378841514427E-006
   108.264375000000        -7.612022945464821E-006
   108.478125000000        -7.660523758351573E-006
   108.691875000000        -7.708911454153750E-006
   108.905625000000        -7.755702698441647E-006
   109.119375000000        -7.796030021518101E-006
   109.333125000000        -7.827211093141336E-006
   109.546875000000        -7.847275290881401E-006
   109.760625000000        -7.855233925315787E-006
   109.974375000000        -7.851018789495553E-006
   110.188125000000        -7.835795417874775E-006
   110.401875000000        -7.810477025134454E-006
   110.615625000000        -7.777215867589612E-006
   110.829375000000        -7.738025236201466E-006
   111.043125000000        -7.695195804954817E-006
   111.256875000000        -7.645937511937102E-006
   111.470625000000        -7.604787720301566E-006
   111.684375000000        -7.564397160493721E-006
   111.898125000000        -7.523112501195468E-006
   112.111875000000        -7.495915242843584E-006
   112.325625000000        -7.475515063799175E-006
   112.539375000000        -7.465632405761388E-006
   112.753125000000        -7.470533167137257E-006
   112.966875000000        -7.489492524658764E-006
   113.180625000000        -7.524674595610766E-006
   113.394375000000        -7.577114142294641E-006
   113.608125000000        -7.646994097981404E-006
   113.821875000000        -7.733323172260385E-006
   114.035625000000        -7.834110740276354E-006
   114.249375000000        -7.946798281528337E-006
   114.463125000000        -8.067607699100486E-006
   114.676875000000        -8.192609375770747E-006
   114.890625000000        -8.317943128751407E-006
   115.104375000000        -8.440177670476031E-006
   115.318125000000        -8.556538014189598E-006
   115.531875000000        -8.665143620617766E-006
   115.745625000000        -8.765066092445298E-006
   115.959375000000        -8.856273640461530E-006
   116.173125000000        -8.939455187918347E-006
   116.386875000000        -9.015622051754808E-006
   116.600625000000        -9.085980390392658E-006
   116.814375000000        -9.151372504458744E-006
   117.028125000000        -9.212205866166114E-006
   117.241875000000        -9.267602390461134E-006
   117.455625000000        -9.317783143167885E-006
   117.669375000000        -9.361903964106063E-006
   117.883125000000        -9.398456417531598E-006
   118.096875000000        -9.425298149117734E-006
   118.310625000000        -9.442217497638632E-006
   118.524375000000        -9.449226181618247E-006
   118.738125000000        -9.447364723295188E-006
   118.951875000000        -9.438724954755466E-006
   119.165625000000        -9.427245453060851E-006
   119.379375000000        -9.413379962029438E-006
   119.593125000000        -9.401543633160095E-006
   119.806875000000        -9.395743552768045E-006
   120.020625000000        -9.398979018261966E-006
   120.234375000000        -9.413080017566789E-006
   120.448125000000        -9.438152953242879E-006
   120.661875000000        -9.473160563416309E-006
   120.875625000000        -9.515219840258065E-006
   121.089375000000        -9.562273194811485E-006
   121.303125000000        -9.612026892704425E-006
   121.516875000000        -9.662127036452802E-006
   121.730625000000        -9.709401545568810E-006
   121.944375000000        -9.748852730271949E-006
   122.158125000000        -9.780520361442625E-006
   122.371875000000        -9.803805097519482E-006
   122.585625000000        -9.819954124314369E-006
   122.799375000000        -9.831227674481728E-006
   123.013125000000        -9.840879460432987E-006
   123.226875000000        -9.852025161060355E-006
   123.440625000000        -9.868471601474235E-006
   123.654375000000        -9.894236717404434E-006
   123.868125000000        -9.932902872399112E-006