  -1.60312500000000         0.000000000000000E+000
  -1.38937500000000         0.000000000000000E+000
  -1.17562500000000         0.000000000000000E+000
 -0.961875000000000         0.000000000000000E+000
 -0.748125000000000         0.000000000000000E+000
 -0.534375000000000         0.000000000000000E+000
 -0.320625000000000         0.000000000000000E+000
 -0.106875000000000         0.000000000000000E+000
  0.106875000000000         0.000000000000000E+000
  0.320625000000000         0.000000000000000E+000
  0.534375000000000         0.000000000000000E+000
  0.748125000000000         0.000000000000000E+000
  0.961875000000000         0.000000000000000E+000
   1.17562500000000         0.000000000000000E+000
   1.38937500000000         0.000000000000000E+000
   1.60312500000000         0.000000000000000E+000
   1.81687500000000         0.000000000000000E+000
   2.03062500000000         0.000000000000000E+000
   2.24437500000000         0.000000000000000E+000
   2.45812500000000         0.000000000000000E+000
   2.67187500000000         0.000000000000000E+000
   2.88562500000000         0.000000000000000E+000
   3.09937500000000         0.000000000000000E+000
   3.31312500000000         0.000000000000000E+000
   3.52687500000000         0.000000000000000E+000
   3.74062500000000         0.000000000000000E+000
   3.95437500000000         0.000000000000000E+000
   4.16812500000000         0.000000000000000E+000
   4.38187500000000         0.000000000000000E+000
   4.59562500000000         0.000000000000000E+000
   4.80937500000000         0.000000000000000E+000
   5.02312500000000         0.000000000000000E+000
   5.23687500000000         0.000000000000000E+000
   5.45062500000000         0.000000000000000E+000
   5.66437500000000         0.000000000000000E+000
   5.87812500000000         0.000000000000000E+000
   6.09187500000000         0.000000000000000E+000
   6.30562500000000         0.000000000000000E+000
   6.51937500000000         0.000000000000000E+000
   6.73312500000000         0.000000000000000E+000
   6.94687500000000         0.000000000000000E+000
   7.16062500000000         0.000000000000000E+000
   7.37437500000000         0.000000000000000E+000
   7.58812500000000         0.000000000000000E+000
   7.80187500000000         0.000000000000000E+000
   8.01562500000000         0.000000000000000E+000
   8.22937500000000         0.000000000000000E+000
   8.44312500000000         0.000000000000000E+000
   8.65687500000000         0.000000000000000E+000
   8.87062500000000         0.000000000000000E+000
   9.08437500000000         0.000000000000000E+000
   9.29812500000000         0.000000000000000E+000
   9.51187500000000         0.000000000000000E+000
   9.72562500000000         0.000000000000000E+000
   9.93937500000000         0.000000000000000E+000
   10.1531250000000         0.000000000000000E+000
   10.3668750000000        -2.625033100696407E-212
   10.5806250000000        -1.113015609721480E-204
   10.7943750000000         1.805138065582408E-200
   11.0081250000000         1.041283419017561E-196
   11.2218750000000        -4.990739207758456E-194
   11.4356250000000        -8.565174064660662E-193
   11.6493750000000         1.802096410204332E-191
   11.8631250000000         8.820629025413503E-190
   12.0768750000000         2.869135090997747E-188
   12.2906250000000         9.251985621247696E-187
   12.5043750000000         2.088432836433457E-185
   12.7181250000000         2.470323906092446E-184
   12.9318750000000        -9.236352720861490E-184
   13.1456250000000        -1.063572999582160E-181
   13.3593750000000        -2.540068366305794E-180
   13.5731250000000        -3.904719143067884E-179
   13.7868750000000        -4.354849457290583E-178
   14.0006250000000        -3.416580958136390E-177
   14.2143750000000        -1.262521126488678E-176
   14.4281250000000         1.391794791216879E-175
   14.6418750000000         3.693746492071127E-174
   14.8556250000000         5.058437451341708E-173
   15.0693750000000         5.345783966247724E-172
   15.2831250000000         4.785281854263314E-171
   15.4968750000000         3.771030909478492E-170
   15.7106250000000         2.669663268126169E-169
   15.9243750000000         1.718097864692521E-168
   16.1381250000000         1.012322000641306E-167
   16.3518750000000         5.481567182775754E-167
   16.5656250000000         2.729975876912529E-166
   16.7793750000000         1.247279431989330E-165
   16.9931250000000         5.188513595255138E-165
   17.2068750000000         1.932571510314834E-164
   17.4206250000000         6.203733726821275E-164
   17.6343750000000         1.539386941851687E-163
   17.8481250000000         1.556832668237935E-163
   18.0618750000000        -1.275296765502207E-162
   18.2756250000000        -1.175794872877747E-161
   18.4893750000000        -6.604359985084299E-161
   18.7031250000000        -3.007195405012868E-160
   18.9168750000000        -1.186650898969975E-159
   19.1306250000000        -4.132389129614194E-159
   19.3443750000000        -1.260455987292669E-158
   19.5581250000000        -3.227704192629794E-158
   19.7718750000000        -5.945386184097357E-158
   19.9856250000000        -8.257209021699544E-159
   20.1993750000000         6.092139750939956E-157
   20.4131250000000         3.853125946230023E-156
   20.6268750000000         1.709479510324771E-155
   20.8406250000000         6.354528924931874E-155
   21.0543750000000         2.079209190199016E-154
   21.2681250000000         6.069452603944104E-154
   21.4818750000000         1.567906797315499E-153
   21.6956250000000         3.447687801224207E-153
   21.9093750000000         5.641543042260411E-153
   22.1231250000000         2.034142888328940E-153
   22.3368750000000        -3.503082126757404E-152
   22.5506250000000        -2.037128511884231E-151
   22.7643750000000        -8.068446876211274E-151
   22.9781250000000        -2.685900214497479E-150
   23.1918750000000        -7.976384183392444E-150
   23.4056250000000        -2.164359425671313E-149
   23.6193750000000        -5.420799437410474E-149
   23.8331250000000        -1.256507581577296E-148
   24.0468750000000        -2.687008359661533E-148
   24.2606250000000        -5.249479682781068E-148
   24.4743750000000        -9.178481101528296E-148
   24.6881250000000        -1.374529083941244E-147
   24.9018750000000        -1.569864033830930E-147
   25.1156250000000        -7.399211753150800E-148
   25.3293750000000         2.188283469896676E-147
   25.5431250000000         6.945301283553582E-147
   25.7568750000000         5.540348520319533E-147
   25.9706250000000        -3.593219595876933E-146
   26.1843750000000        -2.203821013755043E-145
   26.3981250000000        -8.065715326452079E-145
   26.6118750000000        -2.354598279612731E-144
   26.8256250000000        -5.905929590329844E-144
   27.0393750000000        -1.304806859744953E-143
   27.2531250000000        -2.541719622030699E-143
   27.4668750000000        -4.263246346459857E-143
   27.6806250000000        -5.683598536086817E-143
   27.8943750000000        -4.128510809666806E-143
   28.1081250000000         6.903831220860366E-143
   28.3218750000000         4.026076245698253E-142
   28.5356250000000         1.168536726342743E-141
   28.7493750000000         2.630865769962655E-141
   28.9631250000000         4.982695528967671E-141
   29.1768750000000         8.079128810831366E-141
   29.3906250000000         1.115115720243797E-140
   29.6043750000000         1.315444887213129E-140
   29.8181250000000         1.564572899878029E-140
   30.0318750000000         3.230307469066221E-140
   30.2456250000000         1.119766916834226E-139
   30.4593750000000         3.826791998111354E-139
   30.6731250000000         1.113822233399036E-138
   30.8868750000000         2.754365570977044E-138
   31.1006250000000         5.801087512654584E-138
   31.3143750000000         1.013663094874820E-137
   31.5281250000000         1.311825779088647E-137
   31.7418750000000         5.263411940812234E-138
   31.9556250000000        -3.776192180940471E-137
   32.1693750000000        -1.669402949697139E-136
   32.3831250000000        -4.707278466427734E-136
   32.5968750000000        -1.067571465177926E-135
   32.8106250000000        -2.036717585813209E-135
   33.0243750000000        -3.199437759353994E-135
   33.2381250000000        -3.603859239000324E-135
   33.4518750000000        -5.245949102541459E-136
   33.6656250000000         1.214297605801193E-134
   33.8793750000000         4.582557105696480E-134
   34.0931250000000         1.181932140786686E-133
   34.3068750000000         2.493380050528588E-133
   34.5206250000000         4.452548132923879E-133
   34.7343750000000         6.544861368078669E-133
   34.9481250000000         6.774575780043914E-133
   35.1618750000000         7.780119291836343E-135
   35.3756250000000        -2.394613670893634E-132
   35.5893750000000        -8.329004205163380E-132
   35.8031250000000        -2.034542815720929E-131
   36.0168750000000        -4.095863332701923E-131
   36.2306250000000        -7.004878095276945E-131
   36.4443750000000        -9.880570631495407E-131
   36.6581250000000        -9.817080003837640E-131
   36.8718750000000        -3.619062596706778E-133
   37.0856250000000         3.245994893313456E-130
   37.2993750000000         1.086630814602500E-129
   37.5131250000000         2.558888350431469E-129
   37.7268750000000         4.967489416906221E-129
   37.9406250000000         8.186624736704412E-129
   38.1543750000000         1.109765452097870E-128
   38.3681250000000         1.047008618415781E-128
   38.5818750000000        -6.575951837799613E-130
   38.7956250000000        -3.473792290620858E-128
   39.0093750000000        -1.104145826170755E-127
   39.2231250000000        -2.494556113994133E-127
   39.4368750000000        -4.649869861375250E-127
   39.6506250000000        -7.335784540555529E-127
   39.8643750000000        -9.424095621092302E-127
   40.0781250000000        -8.059307759341693E-127
   40.2918750000000         2.399341058382725E-127
   40.5056250000000         3.125239187538756E-126
   40.7193750000000         9.112772538821010E-126
   40.9331250000000         1.944654608586635E-125
   41.1468750000000         3.436774512481978E-125
   41.3606250000000         5.109606391138089E-125
   41.5743750000000         6.043318256099703E-125
   41.7881250000000         4.206478681126197E-125
   42.0018750000000        -4.026424102637243E-125
   42.2156250000000        -2.403866840158227E-124
   42.4293750000000        -6.214469261950291E-124
   42.6431250000000        -1.226690656387960E-123
   42.8568750000000        -2.014588847966760E-123
   43.0706250000000        -2.744280190584685E-123
   43.2843750000000        -2.809212190164390E-123
   43.4981250000000        -1.049978918873941E-123
   43.7118750000000         4.356944288001270E-123
   43.9256250000000         1.573283006081894E-122
   44.1393750000000         3.511672894995702E-122
   44.3531250000000         6.241969298856159E-122
   44.5668750000000         9.207307741582485E-122
   44.7806250000000         1.080681508722757E-121
   44.9943750000000         7.822989893703235E-122
   45.2081250000000        -4.957065258771711E-122
   45.4218750000000        -3.436287211176080E-121
   45.6356250000000        -8.677478190550919E-121
   45.8493750000000        -1.631428221658332E-120
   46.0631250000000        -2.499421546350761E-120
   46.2768750000000        -3.059155099502190E-120
   46.4906250000000        -2.471163725933685E-120
   46.7043750000000         6.214170966015988E-121
   46.9181250000000         7.970264333512760E-120
   47.1318750000000         2.113865096904623E-119
   47.3456250000000         4.014123767053597E-119
   47.5593750000000         6.103220019400902E-119
   47.7731250000000         7.246288283658005E-119
   47.9868750000000         5.197348729442474E-119
   48.2006250000000        -3.583719502520830E-119
   48.4143750000000        -2.350543380281301E-118
   48.6281250000000        -5.814759555892968E-118
   48.8418750000000        -1.064623465192705E-117
   49.0556250000000        -1.561758261519938E-117
   49.2693750000000        -1.745021026438416E-117
   49.4831250000000        -9.827033646743609E-118
   49.6968750000000         1.707669442666596E-117
   49.9106250000000         7.541721320009997E-117
   50.1243750000000         1.750782083630362E-116
   50.3381250000000         3.133618458078736E-116
   50.5518750000000         4.569267623442538E-116
   50.7656250000000         5.158240505556043E-116
   50.9793750000000         3.143589073987160E-116
   51.1931250000000        -4.272537411440842E-116
   51.4068750000000        -2.072140874125556E-115
   51.6206250000000        -4.960558844622563E-115
   51.8343750000000        -9.155652992029831E-115
   52.0481250000000        -1.397701452879130E-114
   52.2618750000000        -1.729320520983104E-114
   52.4756250000000        -1.464933667717167E-114
   52.6893750000000         1.481540521336191E-115
   52.9031250000000         4.168487594081965E-114
   53.1168750000000         1.177136575043000E-113
   53.3306250000000         2.370986119493958E-113
   53.5443750000000         3.923564440519275E-113
   53.7581250000000         5.433185304289355E-113
   53.9718750000000         5.929907236389654E-113
   54.1856250000000         3.616844789254188E-113
   54.3993750000000        -4.281114414381911E-113
   54.6131250000000        -2.132149654509873E-112
   54.8268750000000        -5.092123510722465E-112
   55.0406250000000        -9.420395062291383E-112
   55.2543750000000        -1.461034530375268E-111
   55.4681250000000        -1.894672827035696E-111
   55.6818750000000        -1.876576453673830E-111
   55.8956250000000        -7.765828554201766E-112
   56.1093750000000         2.318314789150296E-111
   56.3231250000000         8.494419598359508E-111
   56.5368750000000         1.865723590674775E-110
   56.7506250000000         3.279194891084562E-110
   56.9643750000000         4.871454518259245E-110
   57.1781250000000         6.029499719127111E-110
   57.3918750000000         5.538880006685297E-110
   57.6056250000000         1.418018191963834E-110
   57.8193750000000        -9.064687170783085E-110
   58.0331250000000        -2.895853835748743E-109
   58.2468750000000        -6.046181500567748E-109
   58.4606250000000        -1.026571771775203E-108
   58.6743750000000        -1.478883100080676E-108
   58.8881250000000        -1.768697376241024E-108
   59.1018750000000        -1.533837136395875E-108
   59.3156250000000        -2.071893760266117E-109
   59.5293750000000         2.961276149086403E-108
   59.7431250000000         8.762542699215743E-108
   59.9568750000000         1.768547563959203E-107
   60.1706250000000         2.928927018845439E-107
   60.3843750000000         4.124415257439874E-107
   60.5981250000000         4.809705762551438E-107
   60.8118750000000         4.002346734171215E-107
   61.0256250000000         2.155046902972795E-108
   61.2393750000000        -8.448268057617841E-107
   61.4531250000000        -2.389006471228118E-106
   61.6668750000000        -4.710728349924149E-106
   61.8806250000000        -7.661072420187966E-106
   62.0943750000000        -1.061001527390457E-105
   62.3081250000000        -1.216027512558008E-105
   62.5218750000000        -9.877400823202383E-106
   62.7356250000000        -1.813749573788893E-107
   62.9493750000000         2.135864212295182E-105
   63.1631250000000         5.898736625462481E-105
   63.3768750000000         1.145901135993810E-104
   63.5906250000000         1.840502546800649E-104
   63.8043750000000         2.520872358447365E-104
   64.0181250000000         2.861541059458301E-104
   64.2318750000000         2.310587995134928E-104
   64.4456250000000         7.544327633642490E-106
   64.6593750000000        -4.800341718372397E-104
   64.8731250000000        -1.320034063929866E-103
   65.0868750000000        -2.546256523457777E-103
   65.3006250000000        -4.061351652441521E-103
   65.5143750000000        -5.531580572972520E-103
   65.7281250000000        -6.266788034019442E-103
   65.9418750000000        -5.121036422193242E-103
   66.1556250000000        -4.792387662619450E-104
   66.3693750000000         9.570514908552543E-103
   66.5831250000000         2.675020284701045E-102
   66.7968750000000         5.165614924159386E-102
   67.0106250000000         8.228429952988760E-102
   67.2243750000000         1.120557493836928E-101
   67.4381250000000         1.276311182409833E-101
   67.6518750000000         1.071940128432585E-101
   67.8656250000000         2.040459355015724E-102
   68.0793750000000        -1.682054440990682E-101
   68.2931250000000        -4.901864440159441E-101
   68.5068750000000        -9.562678983358120E-101
   68.7206250000000        -1.530292245824068E-100
   68.9343750000000        -2.095014187270676E-100
   69.1481250000000        -2.415084404725955E-100
   69.3618750000000        -2.109038408955605E-100
   69.5756250000000        -6.504652533349669E-101
   69.7893750000000         2.572704025021764E-100
   70.0031250000000         8.105688241764634E-100
   70.2168750000000         1.614742315630016E-099
   70.4306250000000         2.612629007915458E-099
   70.6443750000000         3.615120139464146E-099
   70.8581250000000         4.242567183925930E-099
   71.0718750000000         3.881181671706141E-099
   71.2856250000000         1.685532826544725E-099
   71.4993750000000        -3.329174280974104E-099
   71.7131250000000        -1.205316992362579E-098
   71.9268750000000        -2.485806771424277E-098
   72.1406250000000        -4.095881314175919E-098
   72.3543750000000        -5.759426991130180E-098
   72.5681250000000        -6.915641482810465E-098
   72.7818750000000        -6.653843693963019E-098
   72.9956250000000        -3.714387484412172E-098
   73.2093750000000         3.383106567099818E-098
   73.4231250000000         1.601246118886613E-097
   73.6368750000000         3.484845209573752E-097
   73.8506250000000         5.897726152725869E-097
   74.0643750000000         8.475460679581390E-097
   74.2781250000000         1.045859427867165E-096
   74.4918750000000         1.059875509663314E-096
   74.7056250000000         7.151046337040614E-097
   74.9193750000000        -1.967254077610804E-097
   75.1331250000000        -1.875831313224555E-096
   75.3468750000000        -4.437945848125628E-096
   75.5606250000000        -7.798980416216730E-096
   75.7743750000000        -1.152599040316658E-095
   75.9881250000000        -1.467567727033539E-095
   76.2018750000000        -1.566432249147980E-095
   76.4156250000000        -1.224038234782216E-095
   76.6293750000000        -1.657779788440424E-096
   76.8431250000000         1.883519818877960E-095
   77.0568750000000         5.108355546969463E-095
   77.2706250000000         9.463074201804140E-095
   77.4843750000000         1.448916086480028E-094
   77.6981250000000         1.911279488733238E-094
   77.9118750000000         2.147230891493988E-094
   78.1256250000000         1.885694511884697E-094
   78.3393750000000         7.869923670216583E-095
   78.5531250000000        -1.504998078031085E-094
   78.7668750000000        -5.261877275553243E-094
   78.9806250000000        -1.051298368092398E-093
   79.1943750000000        -1.683452625458436E-093
   79.4081250000000        -2.310911795577802E-093
   79.6218750000000        -2.730775994909533E-093
   79.8356250000000        -2.638141808061373E-093
   80.0493750000000        -1.638521758061773E-093
   80.2631250000000         7.015650589699759E-094
   80.4768750000000         4.750890156603125E-093
   80.6906250000000         1.064635124349945E-092
   80.9043750000000         1.806343596968290E-092
   81.1181250000000         2.594554134696569E-092
   81.3318750000000         3.224283087634157E-092
   81.5456250000000         3.374832340152348E-092
   81.7593750000000         2.615804190429094E-092
   81.9731250000000         4.513021322289186E-093
   82.1868750000000        -3.581195269864602E-092
   82.4006250000000        -9.744541589093723E-092
   82.6143750000000        -1.786594772887550E-091
   82.8281250000000        -2.704829971109951E-091
   83.0418750000000        -3.537465359152720E-091
   83.2556250000000        -3.968908914556882E-091
   83.4693750000000        -3.557802103283236E-091
   83.6831250000000        -1.771115120009639E-091
   83.8968750000000         1.928434611887896E-091
   84.1106250000000         7.926896010402225E-091
   84.3243750000000         1.622973266550480E-090
   84.5381250000000         2.617019971069923E-090
   84.7518750000000         3.609407464147721E-090
   84.9656250000000         4.309529106007144E-090
   85.1793750000000         4.291792457214758E-090
   85.3931250000000         3.017758327298844E-090
   85.6068750000000        -9.238611414889818E-092
   85.8206250000000        -5.523053625270122E-090
   86.0343750000000        -1.345233298466024E-089
   86.2481250000000        -2.347298637669374E-089
   86.4618750000000        -3.427556002124639E-089
   86.6756250000000        -4.335686735410581E-089
   86.8893750000000        -4.685609427756113E-089
   87.1031250000000        -3.965876037324500E-089
   87.3168750000000        -1.593409499085337E-089
   87.5306250000000         2.973236969640669E-089
   87.7443750000000         1.005019153022163E-088
   87.9581250000000         1.947542146266952E-088
   88.1718750000000         3.030857872912150E-088
   88.3856250000000         4.053445635053809E-088
   88.5993750000000         4.685636720597597E-088
   88.8131250000000         4.470188067467154E-088
   89.0268750000000         2.859048463403676E-088
   89.2406250000000        -6.983159322324629E-089
   89.4543750000000        -6.603302223848161E-088
   89.6681250000000        -1.489101271671049E-087
   89.8818750000000        -2.496208956666254E-087
   90.0956250000000        -3.530250577833383E-087
   90.3093750000000        -4.326083267603875E-087
   90.5231250000000        -4.498486710084767E-087
   90.7368750000000        -3.564586056965104E-087
   90.9506250000000        -1.008743678067772E-087
   91.1643750000000         3.598690183663469E-087
   91.3781250000000         1.042444946919753E-086
   91.5918750000000         1.914603511088708E-086
   91.8056250000000         2.870440962060632E-086
   92.0193750000000         3.708920525423360E-086
   92.2331250000000         4.123730348547499E-086
   92.4468750000000         3.714921728642124E-086
   92.6606250000000         2.033845283695490E-086
   92.8743750000000        -1.328461410648350E-086
   93.0881250000000        -6.604338079425455E-086
   93.3018750000000        -1.366874161629627E-085
   93.5156250000000        -2.183443915896378E-085
   93.7293750000000        -2.966256250050837E-085
   93.9431250000000        -3.484979455358476E-085
   94.1568750000000        -3.427305856306505E-085
   94.3706250000000        -2.428310158919015E-085
   94.5843750000000        -1.331022305349700E-086
   94.7981250000000         3.702303439725523E-085
   95.0118750000000         9.074048698460289E-085
   95.2256250000000         1.557063103129871E-084
   95.4393750000000         2.221808470421357E-084
   95.6531250000000         2.737454621816990E-084
   95.8668750000000         2.873386317419662E-084
   96.0806250000000         2.350693204604397E-084
   96.2943750000000         8.845870414438681E-085
   96.5081250000000        -1.744707471694356E-084
   96.7218750000000        -5.593298008438892E-084
   96.9356250000000        -1.043570856371865E-083
   97.1493750000000        -1.564662531631642E-083
   97.3631250000000        -2.011314462218527E-083
   97.5768750000000        -2.221954185957804E-083
   97.7906250000000        -1.995359786400338E-083
   98.0043750000000        -1.118194882860310E-083
   98.2181250000000         5.873107017674097E-084
   98.4318750000000         3.195569939671352E-083
   98.6456250000000         6.595048388683516E-083
   98.8593750000000         1.040328773436028E-082
   99.0731250000000         1.390012718774425E-082
   99.2868750000000         1.600745091112321E-082
   99.5006250000000         1.534882012295802E-082
   99.7143750000000         1.042171727437921E-082
   99.9281250000000        -9.439271725023791E-085
   100.141875000000        -1.689222186937425E-082
   100.355625000000        -3.948548739449119E-082
   100.569375000000        -6.563130242367008E-082
   100.783125000000        -9.085856047164274E-082
   100.996875000000        -1.082856703212354E-081
   101.210625000000        -1.089445814938017E-081
   101.424375000000        -8.282542618581634E-082
   101.638125000000        -2.079681180531879E-082
   101.851875000000         8.257689205738330E-082
   102.065625000000         2.255167746947199E-081
   102.279375000000         3.952969529752311E-081
   102.493125000000         5.651225791333544E-081
   102.706875000000         6.927614768762045E-081
   102.920625000000         7.222828469065410E-081
   103.134375000000         5.902417331641191E-081
   103.348125000000         2.372835699706585E-081
   103.561875000000        -3.746766639604557E-081
   103.775625000000        -1.240870473666991E-080
   103.989375000000        -2.290633397244133E-080
   104.203125000000        -3.367881777129089E-080
   104.416875000000        -4.221999049454179E-080
   104.630625000000        -4.517262791994065E-080
   104.844375000000        -3.868821972530685E-080
   105.058125000000        -1.911019436185038E-080
   105.271875000000         1.601056297781496E-080
   105.485625000000         6.663767623311567E-080
   105.699375000000         1.288830922092800E-079
   105.913125000000         1.938455852062656E-079
   106.126875000000         2.470569144988248E-079
   106.340625000000         2.690079849730293E-079
   106.554375000000         2.372161895323956E-079
   106.768125000000         1.301620990094429E-079
   106.981875000000        -6.686427053311822E-080
   107.195625000000        -3.544223014195453E-079
   107.409375000000        -7.110978937329004E-079
   107.623125000000        -1.086881833317747E-078
   107.836875000000        -1.400044301316141E-078
   108.050625000000        -1.540170010498260E-078
   108.264375000000        -1.379922697813981E-078
   108.478125000000        -7.973202741452940E-079
   108.691875000000         2.913518033258057E-079
   108.905625000000         1.890432965562811E-078
   109.119375000000         3.881369147981335E-078
   109.333125000000         5.986252434558176E-078
   109.546875000000         7.751187032337516E-078
   109.760625000000         8.564138617254500E-078
   109.974375000000         7.721185305891072E-078
   110.188125000000         4.550514626893169E-078
   110.401875000000        -1.405791438338965E-078
   110.615625000000        -1.016636403872330E-077
   110.829375000000        -2.107394657741428E-077
   111.043125000000        -3.259979983713216E-077
   111.256875000000        -4.225869208741470E-077
   111.470625000000        -4.671340708375256E-077
   111.684375000000        -4.214256002238585E-077
   111.898125000000        -2.491957561298988E-077
   112.111875000000         7.400505113564085E-078
   112.325625000000         5.486673575791663E-077
   112.539375000000         1.138682197800844E-076
   112.753125000000         1.761025191870330E-076
   112.966875000000         2.281484702731219E-076
   113.180625000000         2.520608806220066E-076
   113.394375000000         2.273720243687936E-076
   113.608125000000         1.347420087828553E-076
   113.821875000000        -3.877493350041964E-077
   114.035625000000        -2.932893575780517E-076
   114.249375000000        -6.094124371053619E-076
   114.463125000000        -9.428622035102234E-076
   114.676875000000        -1.222291771420470E-075
   114.890625000000        -1.352512600105197E-075
   115.104375000000        -1.225097406983960E-075
   115.318125000000        -7.375867939252026E-076
   115.531875000000         1.789156481080445E-076
   115.745625000000         1.526090619052170E-075
   115.959375000000         3.203650222244396E-075
   116.173125000000         4.981209741639770E-075
   116.386875000000         6.486828485841551E-075
   116.600625000000         7.223360391036781E-075
   116.814375000000         6.622757435974364E-075
   117.028125000000         4.144570983394982E-075
   117.241875000000        -5.824215006503550E-076
   117.455625000000        -7.587242693307904E-075
   117.669375000000        -1.637742102007593E-074
   117.883125000000        -2.579233217004894E-074
   118.096875000000        -3.393981205761930E-074
   118.310625000000        -3.827226258949591E-074
   118.524375000000        -3.585367066315822E-074
   118.738125000000        -2.384981181828818E-074
   118.951875000000        -2.378685428729382E-076
   119.165625000000         3.532109104011306E-074
   119.379375000000         8.056874802713305E-074
   119.593125000000         1.298862932576332E-073
   119.806875000000         1.739307868348628E-073
   120.020625000000         1.999498986345316E-073
   120.234375000000         1.930332010701063E-073
   120.448125000000         1.384684281673948E-073
   120.661875000000         2.519966650902602E-074
   120.875625000000        -1.498685208461898E-073
   121.089375000000        -3.772926511831841E-073
   121.303125000000        -6.311453758206957E-073
   121.516875000000        -8.669020434153739E-073
   121.730625000000        -1.022513471760903E-072
   121.944375000000        -1.023944434453480E-072
   122.158125000000        -7.960582391637317E-073
   122.371875000000        -2.789426613517989E-073
   122.585625000000         5.514027451011828E-073
   122.799375000000         1.660581843776455E-072
   123.013125000000         2.935687757431280E-072
   123.226875000000         4.173149913877270E-072
   123.440625000000         5.080972575289193E-072
   123.654375000000         5.301596750286274E-072
   123.868125000000         4.459947280455516E-072