  -1.60312500000000         0.000000000000000E+000
  -1.38937500000000         0.000000000000000E+000
  -1.17562500000000         0.000000000000000E+000
 -0.961875000000000         0.000000000000000E+000
 -0.748125000000000         0.000000000000000E+000
 -0.534375000000000         0.000000000000000E+000
 -0.320625000000000         0.000000000000000E+000
 -0.106875000000000         0.000000000000000E+000
  0.106875000000000         0.000000000000000E+000
  0.320625000000000         0.000000000000000E+000
  0.534375000000000         0.000000000000000E+000
  0.748125000000000         0.000000000000000E+000
  0.961875000000000         0.000000000000000E+000
   1.17562500000000         0.000000000000000E+000
   1.38937500000000         0.000000000000000E+000
   1.60312500000000         0.000000000000000E+000
   1.81687500000000         0.000000000000000E+000
   2.03062500000000         0.000000000000000E+000
   2.24437500000000         0.000000000000000E+000
   2.45812500000000         0.000000000000000E+000
   2.67187500000000         0.000000000000000E+000
   2.88562500000000         0.000000000000000E+000
   3.09937500000000         0.000000000000000E+000
   3.31312500000000         0.000000000000000E+000
   3.52687500000000         0.000000000000000E+000
   3.74062500000000         0.000000000000000E+000
   3.95437500000000         0.000000000000000E+000
   4.16812500000000         0.000000000000000E+000
   4.38187500000000         0.000000000000000E+000
   4.59562500000000         0.000000000000000E+000
   4.80937500000000         0.000000000000000E+000
   5.02312500000000         0.000000000000000E+000
   5.23687500000000         0.000000000000000E+000
   5.45062500000000         0.000000000000000E+000
   5.66437500000000         0.000000000000000E+000
   5.87812500000000         0.000000000000000E+000
   6.09187500000000         0.000000000000000E+000
   6.30562500000000         0.000000000000000E+000
   6.51937500000000         0.000000000000000E+000
   6.73312500000000         0.000000000000000E+000
   6.94687500000000         0.000000000000000E+000
   7.16062500000000         0.000000000000000E+000
   7.37437500000000         0.000000000000000E+000
   7.58812500000000         0.000000000000000E+000
   7.80187500000000         0.000000000000000E+000
   8.01562500000000         0.000000000000000E+000
   8.22937500000000         0.000000000000000E+000
   8.44312500000000         0.000000000000000E+000
   8.65687500000000         0.000000000000000E+000
   8.87062500000000         0.000000000000000E+000
   9.08437500000000         0.000000000000000E+000
   9.29812500000000         0.000000000000000E+000
   9.51187500000000         0.000000000000000E+000
   9.72562500000000         0.000000000000000E+000
   9.93937500000000         0.000000000000000E+000
   10.1531250000000         0.000000000000000E+000
   10.3668750000000        -1.408625109930534E-211
   10.5806250000000         1.036844349725664E-205
   10.7943750000000         7.570777951516231E-203
   11.0081250000000        -1.828408440421962E-198
   11.2218750000000        -1.835251914480424E-194
   11.4356250000000        -1.107708934218640E-192
   11.6493750000000        -5.346745189469026E-191
   11.8631250000000        -2.269629981506790E-189
   12.0768750000000        -7.804259454557410E-188
   12.2906250000000        -2.242410287660974E-186
   12.5043750000000        -5.641615151781642E-185
   12.7181250000000        -1.260193501617003E-183
   12.9318750000000        -2.480432134955680E-182
   13.1456250000000        -4.267252188749116E-181
   13.3593750000000        -6.409747924537664E-180
   13.5731250000000        -8.445352966060244E-179
   13.7868750000000        -9.832605895929113E-178
   14.0006250000000        -1.019700506500332E-176
   14.2143750000000        -9.491900632542984E-176
   14.4281250000000        -7.985572121315785E-175
   14.6418750000000        -6.109060299590851E-174
   14.8556250000000        -4.272756257691077E-173
   15.0693750000000        -2.745934470559521E-172
   15.2831250000000        -1.629851405276558E-171
   15.4968750000000        -8.988661720062696E-171
   15.7106250000000        -4.643704301775062E-170
   15.9243750000000        -2.274349803835238E-169
   16.1381250000000        -1.074728689329612E-168
   16.3518750000000        -5.014720545492047E-168
   16.5656250000000        -2.366652171568031E-167
   16.7793750000000        -1.146529849537111E-166
   16.9931250000000        -5.685231053286087E-166
   17.2068750000000        -2.832762578343867E-165
   17.4206250000000        -1.384801171759846E-164
   17.6343750000000        -6.502443961087775E-164
   17.8481250000000        -2.885254283092428E-163
   18.0618750000000        -1.193694135425806E-162
   18.2756250000000        -4.539337518145340E-162
   18.4893750000000        -1.552830754135903E-161
   18.7031250000000        -4.573272385126998E-161
   18.9168750000000        -1.022551626380159E-160
   19.1306250000000        -7.055457718492757E-161
   19.3443750000000         9.496076973658679E-160
   19.5581250000000         7.633477897767455E-159
   19.7718750000000         4.007926183896194E-158
   19.9856250000000         1.742174433894415E-157
   20.1993750000000         6.673415999530902E-157
   20.4131250000000         2.303179621157097E-156
   20.6268750000000         7.197226110067573E-156
   20.8406250000000         2.018680772673978E-155
   21.0543750000000         4.932366131003489E-155
   21.2681250000000         9.611972453058047E-155
   21.4818750000000         9.695729266652829E-155
   21.6956250000000        -3.151383859660894E-154
   21.9093750000000        -2.613223319704435E-153
   22.1231250000000        -1.173664617270094E-152
   22.3368750000000        -4.220703339826836E-152
   22.5506250000000        -1.318275592999651E-151
   22.7643750000000        -3.662542718648304E-151
   22.9781250000000        -9.034246896925507E-151
   23.1918750000000        -1.919620831389838E-150
   23.4056250000000        -3.165975291108337E-150
   23.6193750000000        -2.136426918063379E-150
   23.8331250000000         1.196017399143886E-149
   24.0468750000000         7.553286709712730E-149
   24.2606250000000         2.956317131687029E-148
   24.4743750000000         9.569897661497374E-148
   24.6881250000000         2.755615349080627E-147
   24.9018750000000         7.264173149931014E-147
   25.1156250000000         1.776484396452582E-146
   25.3293750000000         4.053835090879417E-146
   25.5431250000000         8.641838568220183E-146
   25.7568750000000         1.716336832607323E-145
   25.9706250000000         3.153318519732929E-145
   26.1843750000000         5.286806648069916E-145
   26.3981250000000         7.883969836234794E-145
   26.6118750000000         9.908441278934086E-145
   26.8256250000000         9.033020263691556E-145
   27.0393750000000         1.879534946658584E-145
   27.2531250000000        -1.303868240533447E-144
   27.4668750000000        -2.591401632254149E-144
   27.6806250000000         4.914706234436397E-145
   27.8943750000000         1.844461992968330E-143
   28.1081250000000         6.997682843758180E-143
   28.3218750000000         1.735319724184507E-142
   28.5356250000000         3.044117915347759E-142
   28.7493750000000         2.664632947691378E-142
   28.9631250000000        -6.092068888402093E-142
   29.1768750000000        -4.048385354978058E-141
   29.3906250000000        -1.374545940703244E-140
   29.6043750000000        -3.633165912957035E-140
   29.8181250000000        -8.128571433549713E-140
   30.0318750000000        -1.569878619722927E-139
   30.2456250000000        -2.576127673560476E-139
   30.4593750000000        -3.336123676091956E-139
   30.6731250000000        -2.420423950201321E-139
   30.8868750000000         3.061363941617687E-139
   31.1006250000000         1.723402285474390E-138
   31.3143750000000         4.233261797968158E-138
   31.5281250000000         6.811687069585045E-138
   31.7418750000000         4.602791800990515E-138
   31.9556250000000        -1.616513173543039E-137
   32.1693750000000        -8.615426445159923E-137
   32.3831250000000        -2.613338386349486E-136
   32.5968750000000        -6.215552723688727E-136
   32.8106250000000        -1.232156918913205E-135
   33.0243750000000        -2.011808074616903E-135
   33.2381250000000        -2.408921181275873E-135
   33.4518750000000        -7.562584960999453E-136
   33.6656250000000         6.790214544238632E-135
   33.8793750000000         2.757731943174016E-134
   34.0931250000000         7.318249087029896E-134
   34.3068750000000         1.571122075559914E-133
   34.5206250000000         2.842032969653322E-133
   34.7343750000000         4.223134949986301E-133
   34.9481250000000         4.427151453004181E-133
   35.1618750000000         1.585130895358472E-134
   35.3756250000000        -1.535720459605840E-132
   35.5893750000000        -5.375275189786841E-132
   35.8031250000000        -1.311251889466542E-131
   36.0168750000000        -2.619899107751242E-131
   36.2306250000000        -4.402849243616860E-131
   36.4443750000000        -5.960731308117872E-131
   36.6581250000000        -5.144451770999756E-131
   36.8718750000000         2.907056169329995E-131
   37.0856250000000         2.728207220455805E-130
   37.2993750000000         8.217762585710470E-130
   37.5131250000000         1.848875634348964E-129
   37.7268750000000         3.463668547625091E-129
   37.9406250000000         5.468258488923262E-129
   38.1543750000000         6.861901472622793E-129
   38.3681250000000         5.002147592972591E-129
   38.5818750000000        -5.558574390257848E-129
   38.7956250000000        -3.421776164237303E-128
   39.0093750000000        -9.441421383675671E-128
   39.2231250000000        -2.004224621017955E-127
   39.4368750000000        -3.568704991812288E-127
   39.6506250000000        -5.351461589517447E-127
   39.8643750000000        -6.301845322365873E-127
   40.0781250000000        -3.944728428899356E-127
   40.2918750000000         6.415483251884697E-127
   40.5056250000000         3.225007270466808E-126
   40.7193750000000         8.322007358524695E-126
   40.9331250000000         1.677549464036075E-125
   41.1468750000000         2.841587108483732E-125
   41.3606250000000         4.029707345261594E-125
   41.5743750000000         4.380219119486992E-125
   41.7881250000000         2.075629243271207E-125
   42.0018750000000        -6.032489641522768E-125
   42.2156250000000        -2.448238820262943E-124
   42.4293750000000        -5.834438917357866E-124
   42.6431250000000        -1.104732441262593E-123
   42.8568750000000        -1.755935858576447E-123
   43.0706250000000        -2.300453722138957E-123
   43.2843750000000        -2.171408337877700E-123
   43.4981250000000        -3.113099509329745E-124
   43.7118750000000         4.912349665910722E-123
   43.9256250000000         1.553059636509039E-122
   44.1393750000000         3.322973128574638E-122
   44.3531250000000         5.763248852124970E-122
   44.5668750000000         8.321121068072723E-122
   44.7806250000000         9.475825067566699E-122
   44.9943750000000         6.221912889528806E-122
   45.2081250000000        -6.257806161985115E-122
   45.4218750000000        -3.420437985864621E-121
   45.6356250000000        -8.331575207344706E-121
   45.8493750000000        -1.540617320731576E-120
   46.0631250000000        -2.332247036993245E-120
   46.2768750000000        -2.815591583607105E-120
   46.4906250000000        -2.199864079497338E-120
   46.7043750000000         7.843712044207643E-121
   46.9181250000000         7.761566515552198E-120
   47.1318750000000         2.014909339984561E-119
   47.3456250000000         3.785820918408658E-119
   47.5593750000000         5.700309706671950E-119
   47.7731250000000         6.665327586971763E-119
   47.9868750000000         4.538946234332767E-119
   48.2006250000000        -4.023517506625651E-119
   48.4143750000000        -2.312232108816877E-118
   48.6281250000000        -5.592208095845103E-118
   48.8418750000000        -1.009180883893628E-117
   49.0556250000000        -1.455105423125254E-117
   49.2693750000000        -1.570657645507075E-117
   49.4831250000000        -7.365401041694043E-118
   49.6968750000000         1.996643868041874E-117
   49.9106250000000         7.776435492913047E-117
   50.1243750000000         1.746938360388033E-116
   50.3381250000000         3.061034653543178E-116
   50.5518750000000         4.358610505951297E-116
   50.7656250000000         4.706357117199964E-116
   50.9793750000000         2.318513813849095E-116
   51.1931250000000        -5.598705756240475E-116
   51.4068750000000        -2.258247797566615E-115
   51.6206250000000        -5.175074128988913E-115
   51.8343750000000        -9.310756754653397E-115
   52.0481250000000        -1.386890165235438E-114
   52.2618750000000        -1.653288066445792E-114
   52.4756250000000        -1.259723365538346E-114
   52.6893750000000         5.724918240671966E-115
   52.9031250000000         4.912766557669932E-114
   53.1168750000000         1.289857965897771E-113
   53.3306250000000         2.513842118229819E-113
   53.5443750000000         4.054768125723044E-113
   53.7581250000000         5.448130226605719E-113
   53.9718750000000         5.624460652137614E-113
   54.1856250000000         2.654530584401266E-113
   54.3993750000000        -6.370866308638376E-113
   54.6131250000000        -2.506338905183497E-112
   54.8268750000000        -5.665327089837967E-112
   55.0406250000000        -1.015726985514526E-111
   55.2543750000000        -1.531945077848449E-111
   55.4681250000000        -1.915355609931879E-111
   55.6818750000000        -1.756061805947155E-111
   55.8956250000000        -3.678293165146789E-112
   56.1093750000000         3.217047149068474E-111
   56.3231250000000         1.010450918340618E-110
   56.5368750000000         2.112165104779175E-110
   56.7506250000000         3.597813679301409E-110
   56.9643750000000         5.188577582283567E-110
   57.1781250000000         6.164406848033031E-110
   57.3918750000000         5.149439721235450E-110
   57.6056250000000        -4.281139457643404E-112
   57.8193750000000        -1.234297395922113E-109
   58.0331250000000        -3.487883041621068E-109
   58.2468750000000        -6.959776503104756E-109
   58.4606250000000        -1.146801603957515E-108
   58.6743750000000        -1.604944993021377E-108
   58.8881250000000        -1.842684533972526E-108
   59.1018750000000        -1.445295289490030E-108
   59.3156250000000         2.215974499157996E-109
   59.5293750000000         3.975721467939157E-108
   59.7431250000000         1.064288611603735E-107
   59.9568750000000         2.065322099907284E-107
   60.1706250000000         3.331979097357813E-107
   60.3843750000000         4.575523364761942E-107
   60.5981250000000         5.150431111908029E-107
   60.8118750000000         3.920592971745079E-107
   61.0256250000000        -8.027787417870862E-108
   61.2393750000000        -1.113267573240747E-106
   61.4531250000000        -2.911418644714586E-106
   61.6668750000000        -5.565829512432206E-106
   61.8806250000000        -8.870853580573402E-106
   62.0943750000000        -1.205771023393043E-105
   62.3081250000000        -1.347018055922036E-105
   62.5218750000000        -1.026476729708460E-105
   62.7356250000000         1.695511609225987E-106
   62.9493750000000         2.747363924084554E-105
   63.1631250000000         7.182527614138725E-105
   63.3768750000000         1.366441108070744E-104
   63.5906250000000         2.167011540798146E-104
   63.8043750000000         2.936205198982702E-104
   64.0181250000000         3.287644653765220E-104
   64.2318750000000         2.569655557346207E-104
   64.4456250000000        -1.511409730984399E-105
   64.6593750000000        -5.999643446442545E-104
   64.8731250000000        -1.601389506773858E-103
   65.0868750000000        -3.058764570819785E-103
   65.3006250000000        -4.856311638531181E-103
   65.5143750000000        -6.597658631188510E-103
   65.7281250000000        -7.461284537364350E-103
   65.9418750000000        -6.077969283520832E-103
   66.1556250000000        -5.072052374343489E-104
   66.3693750000000         1.156839345377866E-102
   66.5831250000000         3.227445128342182E-102
   66.7968750000000         6.243437096860426E-102
   67.0106250000000         9.979633476457265E-102
   67.2243750000000         1.366244958032368E-101
   67.4381250000000         1.569742128106206E-101
   67.6518750000000         1.344420776580135E-101
   67.8656250000000         3.182251266846566E-102
   68.0793750000000        -1.951713839857448E-101
   68.2931250000000        -5.873621401951644E-101
   68.5068750000000        -1.161868236716401E-100
   68.7206250000000        -1.880238703489381E-100
   68.9343750000000        -2.605705740616645E-100
   69.1481250000000        -3.055410983324437E-100
   69.3618750000000        -2.761441837129581E-100
   69.5756250000000        -1.065095218309474E-100
   69.7893750000000         2.819592967238509E-100
   70.0031250000000         9.627867434548149E-100
   70.2168750000000         1.970598208953439E-099
   70.4306250000000         3.248326789773491E-099
   70.6443750000000         4.576922735683743E-099
   70.8581250000000         5.497202630175626E-099
   71.0718750000000         5.245944137997277E-099
   71.2856250000000         2.744521872203724E-099
   71.4993750000000        -3.304251734356603E-099
   71.7131250000000        -1.414227957081134E-098
   71.9268750000000        -3.043657725663555E-098
   72.1406250000000        -5.147090134749547E-098
   72.3543750000000        -7.407172437940286E-098
   72.5681250000000        -9.141174122893602E-098
   72.7818750000000        -9.201442729547702E-098
   72.9956250000000        -5.951391900757423E-098
   73.2093750000000         2.603163937947930E-098
   73.4231250000000         1.842944041622437E-097
   73.6368750000000         4.273254646597001E-097
   73.8506250000000         7.480845220907426E-097
   74.0643750000000         1.105145687782688E-096
   74.2781250000000         1.405504484576719E-096
   74.4918750000000         1.489836166417771E-096
   74.7056250000000         1.127634247278018E-096
   74.9193750000000         3.289457723117865E-098
   75.1331250000000        -2.086585473028900E-096
   75.3468750000000        -5.433223468106742E-096
   75.5606250000000        -9.968438357092752E-096
   75.7743750000000        -1.520911820633069E-095
   75.9881250000000        -1.999519764904327E-095
   76.2018750000000        -2.228222483110056E-095
   76.4156250000000        -1.905143344339969E-095
   76.6293750000000        -6.470634954107875E-096
   76.8431250000000         1.952968398654074E-095
   77.0568750000000         6.209808060637829E-095
   77.2706250000000         1.216057113078016E-094
   77.4843750000000         1.931088080917566E-094
   77.6981250000000         2.633875065369485E-094
   77.9118750000000         3.081769995534846E-094
   78.1256250000000         2.906649107554011E-094
   78.3393750000000         1.628190995620468E-094
   78.5531250000000        -1.285001132930859E-094
   78.7668750000000        -6.286099143726835E-094
   78.9806250000000        -1.353736462355509E-093
   79.1943750000000        -2.261313249422637E-093
   79.4081250000000        -3.214381242385894E-093
   79.6218750000000        -3.946599148183000E-093
   79.8356250000000        -4.039515757936097E-093
   80.0493750000000        -2.929384727453815E-093
   80.2631250000000         3.447379746777528E-095
   80.4768750000000         5.456156635700297E-093
   80.6906250000000         1.366541849909493E-092
   80.9043750000000         2.439070240771281E-092
   81.1181250000000         3.635494465900499E-092
   81.3318750000000         4.685772474341732E-092
   81.5456250000000         5.146222893378492E-092
   81.7593750000000         4.396724104887586E-092
   81.9731250000000         1.689933234850110E-092
   82.1868750000000        -3.721358510346643E-092
   82.4006250000000        -1.235597074781807E-091
   82.6143750000000        -2.416532843660608E-091
   82.8281250000000        -3.809981425862108E-091
   83.0418750000000        -5.163780609756086E-091
   83.2556250000000        -6.039050367545282E-091
   83.4693750000000        -5.796035044057888E-091
   83.6831250000000        -3.629186407814588E-091
   83.8968750000000         1.321011964829235E-091
   84.1106250000000         9.753813994902299E-091
   84.3243750000000         2.187679461073719E-090
   84.5381250000000         3.696601776345309E-090
   84.7518750000000         5.286534558017438E-090
   84.9656250000000         6.552645448928502E-090
   85.1793750000000         6.875582908911021E-090
   85.3931250000000         5.439933996627097E-090
   85.6068750000000         1.323977932463492E-090
   85.8206250000000        -6.311978060612658E-090
   86.0343750000000        -1.791980986662354E-089
   86.2481250000000        -3.314163153221892E-089
   86.4618750000000        -5.030770919312839E-089
   86.6756250000000        -6.594013023181791E-089
   86.8893750000000        -7.440982080706116E-089
   87.1031250000000        -6.795879148971666E-089
   87.3168750000000        -3.734966703137023E-089
   87.5306250000000         2.658413544472400E-089
   87.7443750000000         1.302732582220024E-088
   87.9581250000000         2.735813251048505E-088
   88.1718750000000         4.450531038191459E-088
   88.3856250000000         6.169267530821057E-088
   88.5993750000000         7.411555776988357E-088
   88.8131250000000         7.482927804018325E-088
   89.0268750000000         5.516089345894000E-088
   89.2406250000000         5.902414776789970E-089
   89.4543750000000        -8.049308640500353E-088
   89.6681250000000        -2.066164574723696E-087
   89.8818750000000        -3.658536031275094E-087
   90.0956250000000        -5.376979606025195E-087
   90.3093750000000        -6.836247922599381E-087
   90.5231250000000        -7.450722885989366E-087
   90.7368750000000        -6.455665416506634E-087
   90.9506250000000        -2.992926420346054E-087
   91.1643750000000         3.717789869269153E-087
   91.3781250000000         1.411016074960689E-086
   91.5918750000000         2.791179693639534E-086
   91.8056250000000         4.373070875901080E-086
   92.0193750000000         5.866433079921322E-086
   92.2331250000000         6.805395712873599E-086
   92.4468750000000         6.555119702797210E-086
   92.6606250000000         4.369060362022466E-086
   92.8743750000000        -4.844611238542060E-087
   93.0881250000000        -8.514032466096171E-086
   93.3018750000000        -1.971692463710556E-085
   93.5156250000000        -3.323544733310881E-085
   93.7293750000000        -4.701399571043924E-085
   93.9431250000000        -5.755011577819236E-085
   94.1568750000000        -5.986941950856246E-085
   94.3706250000000        -4.787953676322605E-085
   94.5843750000000        -1.525824670129222E-085
   94.7981250000000         4.301118116237590E-085
   95.0118750000000         1.284446850212540E-084
   95.2256250000000         2.363586017164195E-084
   95.4393750000000         3.530609551603579E-084
   95.6531250000000         4.536114946682200E-084
   95.8668750000000         5.011161169354867E-084
   96.0806250000000         4.487341632256968E-084
   96.2943750000000         2.456110026996490E-084
   96.5081250000000        -1.523202771117332E-084
   96.7218750000000        -7.664162251354267E-084
   96.9356250000000        -1.575226791063925E-083
   97.1493750000000        -2.492880147962614E-083
   97.3631250000000        -3.350683836222578E-083
   97.5768750000000        -3.888812112358930E-083
   97.7906250000000        -3.766604130286583E-083
   98.0043750000000        -2.600433000162525E-083
   98.2181250000000        -3.644659547972563E-085
   98.4318750000000         4.139134486396907E-083
   98.6456250000000         9.857658254970085E-083
   98.8593750000000         1.661090770387930E-082
   99.0731250000000         2.331098635901615E-082
   99.2868750000000         2.821409323035335E-082
   99.5006250000000         2.896708610832576E-082
   99.7143750000000         2.283970022754838E-082
   99.9281250000000         7.195261856633547E-083
   100.141875000000        -1.977713488409850E-082
   100.355625000000        -5.809990342252805E-082
   100.569375000000        -1.049228873087311E-081
   100.783125000000        -1.535240297601912E-081
   100.996875000000        -1.927023348999511E-081
   101.210625000000        -2.069529901714185E-081
   101.424375000000        -1.778449958368553E-081
   101.638125000000        -8.696166484782513E-082
   101.851875000000         7.942397394796301E-082
   102.065625000000         3.241103824305417E-081
   102.279375000000         6.318379963120844E-081
   102.493125000000         9.625633931592262E-081
   102.706875000000         1.247084087004454E-080
   102.920625000000         1.387494241985608E-080
   103.134375000000         1.265159569294332E-080
   103.348125000000         7.585406791587120E-081
   103.561875000000        -2.279667616877154E-081
   103.775625000000        -1.725133481277961E-080
   103.989375000000        -3.654000588788074E-080
   104.203125000000        -5.782890604568809E-080
   104.416875000000        -7.698256369393313E-080
   104.630625000000        -8.804585181257858E-080
   104.844375000000        -8.369865579661194E-080
   105.058125000000        -5.630960227266857E-080
   105.271875000000         3.378853732982229E-082
   105.485625000000         8.870213187576956E-080
   105.699375000000         2.047635558574356E-079
   105.913125000000         3.353996937419178E-079
   106.126875000000         4.565649664315976E-079
   106.340625000000         5.331787728184965E-079
   106.554375000000         5.216990910849850E-079
   106.768125000000         3.762274040087204E-079
   106.981875000000         5.857422859357208E-080
   107.195625000000        -4.480395698823010E-079
   107.409375000000        -1.123058185068270E-078
   107.623125000000        -1.893186510543798E-078
   107.836875000000        -2.621622889147272E-078
   108.050625000000        -3.107140166492235E-078
   108.264375000000        -3.098615111574466E-078
   108.478125000000        -2.329808537845591E-078
   108.691875000000        -5.767695921991921E-079
   108.905625000000         2.264098785810290E-078
   109.119375000000         6.085468593018479E-078
   109.333125000000         1.048166966330944E-077
   109.546875000000         1.468773984445745E-077
   109.760625000000         1.757423185071210E-077
   109.974375000000         1.772898087261800E-077
   110.188125000000         1.365224228975525E-077
   110.401875000000         4.077713731737231E-078
   110.615625000000        -1.159244202145101E-077
   110.829375000000        -3.278489773067170E-077
   111.043125000000        -5.727240193212317E-077
   111.256875000000        -8.084013958608315E-077
   111.470625000000        -9.726211625084649E-077
   111.684375000000        -9.875733564866630E-077
   111.898125000000        -7.706733819414518E-077
   112.111875000000        -2.521886221591963E-077
   112.325625000000         6.009890715723063E-077
   112.539375000000         1.758004227961236E-076
   112.753125000000         3.097933816971705E-076
   112.966875000000         4.391929477205676E-076
   113.180625000000         5.302265085303030E-076
   113.394375000000         5.407342450555460E-076
   113.608125000000         4.260100695359652E-076
   113.821875000000         1.483023387254745E-076
   114.035625000000        -3.104289187696035E-076
   114.249375000000        -9.338994515493253E-076
   114.463125000000        -1.657606763821375E-075
   114.676875000000        -2.359381486929104E-075
   114.890625000000        -2.858955401066649E-075
   115.104375000000        -2.931291421249683E-075
   115.318125000000        -2.337540599754623E-075
   115.531875000000        -8.752317516112257E-076
   115.745625000000         1.554496910288401E-075
   115.959375000000         4.870015765315630E-075
   116.173125000000         8.736133259836799E-075
   116.386875000000         1.251422461491577E-074
   116.600625000000         1.525924065699031E-074
   116.814375000000         1.578809296044352E-074
   117.028125000000         1.283930933200498E-074
   117.241875000000         5.332214739402954E-075
   117.455625000000        -7.285537880308705E-075
   117.669375000000        -2.463976802010567E-074
   117.883125000000        -4.504941396319072E-074
   118.096875000000        -6.526257319403242E-074
   118.310625000000        -8.042924585280792E-074
   118.524375000000        -8.443537244258975E-074
   118.738125000000        -7.069993543785949E-074
   118.951875000000        -3.347897960289684E-074
   119.165625000000         3.037628700655400E-074
   119.379375000000         1.193920446648127E-073
   119.593125000000         2.255133729747896E-073
   119.806875000000         3.327031411580372E-073
   120.020625000000         4.166968339783676E-073
   120.234375000000         4.465371273821322E-073
   120.448125000000         3.884054888020450E-073
   120.661875000000         2.119906841967192E-073
   120.875625000000        -1.008326007954721E-073
   121.089375000000        -5.458814945128777E-073
   121.303125000000        -1.086714417276743E-072
   121.516875000000        -1.647206717681674E-072
   121.730625000000        -2.109562539598080E-072
   121.944375000000        -2.320831456815836E-072
   122.158125000000        -2.110535227207831E-072
   122.371875000000        -1.320736157477677E-072
   122.585625000000         1.523000732186421E-073
   122.799375000000         2.308711250914123E-072
   123.013125000000         4.995347758112704E-072
   123.226875000000         7.866791921101622E-072
   123.440625000000         1.037087791852102E-071
   123.654375000000         1.177349948491945E-071
   123.868125000000         1.123565187153621E-071