  -1.60312500000000         0.000000000000000E+000
  -1.38937500000000         0.000000000000000E+000
  -1.17562500000000         0.000000000000000E+000
 -0.961875000000000         0.000000000000000E+000
 -0.748125000000000         0.000000000000000E+000
 -0.534375000000000         0.000000000000000E+000
 -0.320625000000000         0.000000000000000E+000
 -0.106875000000000         0.000000000000000E+000
  0.106875000000000         0.000000000000000E+000
  0.320625000000000         0.000000000000000E+000
  0.534375000000000         0.000000000000000E+000
  0.748125000000000         0.000000000000000E+000
  0.961875000000000         0.000000000000000E+000
   1.17562500000000         0.000000000000000E+000
   1.38937500000000         0.000000000000000E+000
   1.60312500000000         0.000000000000000E+000
   1.81687500000000         0.000000000000000E+000
   2.03062500000000         0.000000000000000E+000
   2.24437500000000         0.000000000000000E+000
   2.45812500000000         0.000000000000000E+000
   2.67187500000000         0.000000000000000E+000
   2.88562500000000         0.000000000000000E+000
   3.09937500000000         0.000000000000000E+000
   3.31312500000000         0.000000000000000E+000
   3.52687500000000         0.000000000000000E+000
   3.74062500000000         0.000000000000000E+000
   3.95437500000000         0.000000000000000E+000
   4.16812500000000         0.000000000000000E+000
   4.38187500000000         0.000000000000000E+000
   4.59562500000000         0.000000000000000E+000
   4.80937500000000         0.000000000000000E+000
   5.02312500000000         0.000000000000000E+000
   5.23687500000000         0.000000000000000E+000
   5.45062500000000         0.000000000000000E+000
   5.66437500000000         0.000000000000000E+000
   5.87812500000000         0.000000000000000E+000
   6.09187500000000         0.000000000000000E+000
   6.30562500000000         0.000000000000000E+000
   6.51937500000000         0.000000000000000E+000
   6.73312500000000         0.000000000000000E+000
   6.94687500000000         0.000000000000000E+000
   7.16062500000000         0.000000000000000E+000
   7.37437500000000         0.000000000000000E+000
   7.58812500000000         0.000000000000000E+000
   7.80187500000000         0.000000000000000E+000
   8.01562500000000         0.000000000000000E+000
   8.22937500000000         0.000000000000000E+000
   8.44312500000000         0.000000000000000E+000
   8.65687500000000         0.000000000000000E+000
   8.87062500000000         0.000000000000000E+000
   9.08437500000000         0.000000000000000E+000
   9.29812500000000         0.000000000000000E+000
   9.51187500000000        -1.687885911689327E-214
   9.72562500000000        -2.858313111021300E-207
   9.93937500000000         5.167148508915017E-206
   10.1531250000000        -5.507194181025147E-202
   10.3668750000000        -3.033537960944864E-200
   10.5806250000000        -1.068016212518789E-198
   10.7943750000000        -3.407601482144815E-197
   11.0081250000000        -9.574896340185620E-196
   11.2218750000000        -2.199744074405339E-194
   11.4356250000000        -4.084237774861561E-193
   11.6493750000000        -6.247115770537888E-192
   11.8631250000000        -8.077219517703173E-191
   12.0768750000000        -9.059086179443182E-190
   12.2906250000000        -9.051563935429048E-189
   12.5043750000000        -8.305124076217436E-188
   12.7181250000000        -7.249998188699257E-187
   12.9318750000000        -6.240422557352940E-186
   13.1456250000000        -5.420057460151313E-185
   13.3593750000000        -4.747546519039071E-184
   13.5731250000000        -4.110928859404285E-183
   13.7868750000000        -3.432894380420638E-182
   14.0006250000000        -2.712005578962981E-181
   14.2143750000000        -2.003640796015048E-180
   14.4281250000000        -1.376300005763932E-179
   14.6418750000000        -8.766530563730560E-179
   14.8556250000000        -5.171246472673022E-178
   15.0693750000000        -2.821339625928954E-177
   15.2831250000000        -1.420379261104015E-176
   15.4968750000000        -6.568775924760090E-176
   15.7106250000000        -2.766617003568455E-175
   15.9243750000000        -1.043441769573388E-174
   16.1381250000000        -3.398202892310824E-174
   16.3518750000000        -8.661626515036941E-174
   16.5656250000000        -1.045355522215390E-173
   16.7793750000000         5.647287926204945E-173
   16.9931250000000         5.553569014462144E-172
   17.2068750000000         3.058290172892892E-171
   17.4206250000000         1.318523335735452E-170
   17.6343750000000         4.720849040151948E-170
   17.8481250000000         1.379934935573053E-169
   18.0618750000000         2.879946409253790E-169
   18.2756250000000         8.886540596291571E-170
   18.4893750000000        -3.138027195005582E-168
   18.7031250000000        -2.156197634681927E-167
   18.9168750000000        -1.003914926860832E-166
   19.1306250000000        -3.820212923643627E-166
   19.3443750000000        -1.241157812434409E-165
   19.5581250000000        -3.429351397692226E-165
   19.7718750000000        -7.611550669072916E-165
   19.9856250000000        -1.054135409191669E-164
   20.1993750000000         1.114064306062164E-164
   20.4131250000000         1.519283055544984E-163
   20.6268750000000         6.978327734644209E-163
   20.8406250000000         2.282797575073649E-162
   21.0543750000000         5.537005350974420E-162
   21.2681250000000         7.432750536063350E-162
   21.4818750000000        -1.634096946514162E-161
   21.6956250000000        -1.770066536233814E-160
   21.9093750000000        -8.794933963041092E-160
   22.1231250000000        -3.385771108214527E-159
   22.3368750000000        -1.111962321411907E-158
   22.5506250000000        -3.203256536911615E-158
   22.7643750000000        -8.076588589966474E-158
   22.9781250000000        -1.719365088040688E-157
   23.1918750000000        -2.706658899845716E-157
   23.4056250000000        -9.507533274353003E-158
   23.6193750000000         1.507820160411329E-156
   23.8331250000000         8.245663791347297E-156
   24.0468750000000         3.031148805191890E-155
   24.2606250000000         9.212199021234231E-155
   24.4743750000000         2.438048387370176E-154
   24.6881250000000         5.670337266121698E-154
   24.9018750000000         1.134057457916242E-153
   25.1156250000000         1.793191913057360E-153
   25.3293750000000         1.460643502843075E-153
   25.5431250000000        -3.762993931495708E-153
   25.7568750000000        -2.483276578807971E-152
   25.9706250000000        -8.774324139265382E-152
   26.1843750000000        -2.449521042381641E-151
   26.3981250000000        -5.820144470466920E-151
   26.6118750000000        -1.187525212018279E-150
   26.8256250000000        -1.998159295352402E-150
   27.0393750000000        -2.320390892865578E-150
   27.2531250000000         3.374426017329241E-151
   27.4668750000000         1.263052755823270E-149
   27.6806250000000         4.922006213497370E-149
   27.8943750000000         1.368381445706286E-148
   28.1081250000000         3.124435518364942E-148
   28.3218750000000         5.975467635752343E-148
   28.5356250000000         9.075476413080721E-148
   28.7493750000000         8.187685591629270E-148
   28.9631250000000        -9.192301563267034E-148
   29.1768750000000        -7.214142397870031E-147
   29.3906250000000        -2.365161374791435E-146
   29.6043750000000        -5.876202131507961E-146
   29.8181250000000        -1.206689952423333E-145
   30.0318750000000        -2.034636321809964E-145
   30.2456250000000        -2.506175602064242E-145
   30.4593750000000        -7.609618912336763E-146
   30.6731250000000         7.762360590643077E-145
   30.8868750000000         3.228532566713188E-144
   31.1006250000000         8.821699872387942E-144
   31.3143750000000         1.949893880690758E-143
   31.5281250000000         3.624123455778160E-143
   31.7418750000000         5.504015060074316E-143
   31.9556250000000         5.780213158873568E-143
   32.1693750000000        -4.627494176606243E-144
   32.3831250000000        -2.383342766177499E-142
   32.5968750000000        -8.345535635027466E-142
   32.8106250000000        -2.074397727505085E-141
   33.0243750000000        -4.245416372791937E-141
   33.2381250000000        -7.341202429186007E-141
   33.4518750000000        -1.033276269486288E-140
   33.6656250000000        -9.740457841069960E-141
   33.8793750000000         2.692202093343133E-141
   34.0931250000000         4.299497672435105E-140
   34.3068750000000         1.372664879217300E-139
   34.5206250000000         3.195758938733974E-139
   34.7343750000000         6.179200139098692E-139
   34.9481250000000         1.015544578773022E-138
   35.1618750000000         1.370286805230481E-138
   35.3756250000000         1.275004566182702E-138
   35.5893750000000        -1.437821266902453E-139
   35.8031250000000        -4.451470375297283E-138
   36.0168750000000        -1.403669095608298E-137
   36.2306250000000        -3.190059419501823E-137
   36.4443750000000        -6.068952411482447E-137
   36.6581250000000        -1.003938548695258E-136
   36.8718750000000        -1.440455114129443E-136
   37.0856250000000        -1.707731449834093E-136
   37.2993750000000        -1.356062936289652E-136
   37.5131250000000         4.502133558942649E-137
   37.7268750000000         5.150553891337646E-136
   37.9406250000000         1.515593540056291E-135
   38.1543750000000         3.451757908472008E-135
   38.3681250000000         7.008882269317679E-135
   38.5818750000000         1.331684962350206E-134
   38.7956250000000         2.406541958720943E-134
   39.0093750000000         4.120431169157965E-134
   39.2231250000000         6.527306472672080E-134
   39.4368750000000         9.034862740889076E-134
   39.6506250000000         9.208706390413301E-134
   39.8643750000000         3.927412782892185E-135
   40.0781250000000        -3.229766453515917E-133
   40.2918750000000        -1.174046662646151E-132
   40.5056250000000        -3.017819736465861E-132
   40.7193750000000        -6.478371138458727E-132
   40.9331250000000        -1.208640218463436E-131
   41.1468750000000        -1.954066401115322E-131
   41.3606250000000        -2.607491280500326E-131
   41.5743750000000        -2.346437046007346E-131
   41.7881250000000         6.569727783789064E-132
   42.0018750000000         9.789854313221492E-131
   42.2156250000000         3.036371564582640E-130
   42.4293750000000         6.909314964225963E-130
   42.6431250000000         1.313317639048419E-129
   42.8568750000000         2.138679920288202E-129
   43.0706250000000         2.903789850660824E-129
   43.2843750000000         2.868754685683418E-129
   43.4981250000000         4.719401508439332E-130
   43.7118750000000        -7.037223350942615E-129
   43.9256250000000        -2.375166254716687E-128
   44.1393750000000        -5.454139308081446E-128
   44.3531250000000        -1.028850254762435E-127
   44.5668750000000        -1.658007518881743E-127
   44.7806250000000        -2.243640936851926E-127
   44.9943750000000        -2.287602715244244E-127
   45.2081250000000        -7.876597899874042E-128
   45.4218750000000         3.948696802892642E-127
   45.6356250000000         1.434211171915308E-126
   45.8493750000000         3.316033089501642E-126
   46.0631250000000         6.227944782002206E-126
   46.2768750000000         9.999030409679910E-126
   46.4906250000000         1.362166611318892E-125
   46.7043750000000         1.453043795578491E-125
   46.9181250000000         7.698173091371601E-126
   47.1318750000000        -1.519080208596594E-125
   47.3456250000000        -6.588334205690913E-125
   47.5593750000000        -1.578987229523281E-124
   47.7731250000000        -3.013239647115572E-124
   47.9868750000000        -4.917490017073059E-124
   48.2006250000000        -6.908954783898546E-124
   48.4143750000000        -7.974679339765981E-124
   48.6281250000000        -6.098472901969998E-124
   48.8418750000000         2.112349902110787E-124
   49.0556250000000         2.160558964887917E-123
   49.2693750000000         5.850180393761523E-123
   49.4831250000000         1.185588708030827E-122
   49.6968750000000         2.036441646519368E-122
   49.9106250000000         3.051910389377676E-122
   50.1243750000000         3.936635202189464E-122
   50.3381250000000         4.036223326777649E-122
   50.5518750000000         2.155326715402065E-122
   50.7656250000000        -3.613689604508397E-122
   50.9793750000000        -1.595197116944869E-121
   51.1931250000000        -3.807625362480181E-121
   51.4068750000000        -7.288524145230728E-121
   51.6206250000000        -1.210161247759541E-120
   51.8343750000000        -1.771869392908129E-120
   52.0481250000000        -2.241529100453057E-120
   52.2618750000000        -2.238525145664484E-120
   52.4756250000000        -1.061982612344185E-120
   52.6893750000000         2.420083776204348E-120
   52.9031250000000         9.817234632832800E-120
   53.1168750000000         2.307256808709819E-119
   53.3306250000000         4.391239360024569E-119
   53.5443750000000         7.256837699881305E-119
   53.7581250000000         1.053676997564596E-118
   53.9718750000000         1.308106556706538E-118
   54.1856250000000         1.240395358995908E-118
   54.3993750000000         4.038320653406264E-119
   54.6131250000000        -1.897593467791325E-118
   54.8268750000000        -6.597662526244970E-118
   55.0406250000000        -1.470597992030422E-117
   55.2543750000000        -2.686236796541081E-117
   55.4681250000000        -4.243742324297272E-117
   55.6818750000000        -5.801430512173322E-117
   55.8956250000000        -6.519252995341377E-117
   56.1093750000000        -4.794581046656168E-117
   56.3231250000000         1.965512378797133E-117
   56.5368750000000         1.735913451972824E-116
   56.7506250000000         4.548270105378287E-116
   56.9643750000000         8.944395853029377E-116
   57.1781250000000         1.483279892813247E-115
   57.3918750000000         2.120958342741321E-115
   57.6056250000000         2.542823890951717E-115
   57.8193750000000         2.233403329078566E-115
   58.0331250000000         3.532531226990518E-116
   58.2468750000000        -4.264823394673949E-115
   58.4606250000000        -1.295596488738109E-114
   58.6743750000000        -2.676571110914856E-114
   58.8881250000000        -4.553739183242208E-114
   59.1018750000000        -6.641388910470932E-114
   59.3156250000000        -8.175026366605429E-114
   59.5293750000000        -7.672433244190918E-114
   59.7431250000000        -2.744728953010243E-114
   59.9568750000000         9.885894868165454E-114
   60.1706250000000         3.391037034064803E-113
   60.3843750000000         7.215835075031729E-113
   60.5981250000000         1.241514183929663E-112
   60.8118750000000         1.822168951925514E-112
   61.0256250000000         2.262602428708512E-112
   61.2393750000000         2.180532901389426E-112
   61.4531250000000         9.715930947938171E-113
   61.6668750000000        -2.176138119782391E-112
   61.8806250000000        -8.152986822032352E-112
   62.0943750000000        -1.760779261156541E-111
   62.3081250000000        -3.036004810049203E-111
   62.5218750000000        -4.450014906633475E-111
   62.7356250000000        -5.522593398266982E-111
   62.9493750000000        -5.363989970440463E-111
   63.1631250000000        -2.600755169471575E-111
   63.3768750000000         4.565843330526732E-111
   63.5906250000000         1.804358282302200E-110
   63.8043750000000         3.912360750801832E-110
   64.0181250000000         6.720531437858177E-110
   64.2318750000000         9.791847501019298E-110
   64.4456250000000         1.207956027971640E-109
   64.6593750000000         1.170144002883436E-109
   64.8731250000000         5.827242908164268E-110
   65.0868750000000        -9.147129683374086E-110
   65.3006250000000        -3.690007741412376E-109
   65.5143750000000        -7.968776094251758E-109
   65.7281250000000        -1.358272162656082E-108
   65.9418750000000        -1.961310131433569E-108
   66.1556250000000        -2.396805519987205E-108
   66.3693750000000        -2.300166778688566E-108
   66.5831250000000        -1.137931011279548E-108
   66.7968750000000         1.749378599109505E-108
   67.0106250000000         7.006626682429053E-108
   67.2243750000000         1.498156815468272E-107
   67.4381250000000         2.526923205276470E-107
   67.6518750000000         3.609093471241495E-107
   67.8656250000000         4.359150448837867E-107
   68.0793750000000         4.125743284258539E-107
   68.2931250000000         1.981641621465979E-107
   68.5068750000000        -3.184995533875831E-107
   68.7206250000000        -1.241194226787955E-106
   68.9343750000000        -2.617143169856696E-106
   69.1481250000000        -4.360811536739408E-106
   69.3618750000000        -6.153887400996632E-106
   69.5756250000000        -7.337377280066735E-106
   69.7893750000000        -6.830648646535407E-106
   70.0031250000000        -3.135996530695446E-106
   70.2168750000000         5.488717409406525E-106
   70.4306250000000         2.059177625072065E-105
   70.6443750000000         4.273452206611489E-105
   70.8581250000000         7.030554098644102E-105
   71.0718750000000         9.801942054754978E-105
   71.2856250000000         1.153733801303194E-104
   71.4993750000000         1.056134263831348E-104
   71.7131250000000         4.609393788748448E-105
   71.9268750000000        -8.877504719562227E-105
   72.1406250000000        -3.206485828163663E-104
   72.3543750000000        -6.553088507159854E-104
   72.5681250000000        -1.065387834099405E-103
   72.7818750000000        -1.469211560707315E-103
   72.9956250000000        -1.710041867008753E-103
   73.2093750000000        -1.543821425122403E-103
   73.4231250000000        -6.478829589806769E-104
   73.6368750000000         1.333166138328006E-103
   73.8506250000000         4.686961772242497E-103
   74.0643750000000         9.464963852401054E-103
   74.2781250000000         1.524543541390243E-102
   74.4918750000000         2.085155825900775E-102
   74.7056250000000         2.408623251553672E-102
   74.9193750000000         2.159465133745569E-102
   75.1331250000000         9.019632618043668E-103
   75.3468750000000        -1.834256088978560E-102
   75.5606250000000        -6.417173380387584E-102
   75.7743750000000        -1.288886056869325E-101
   75.9881250000000        -2.065791084368430E-101
   76.2018750000000        -2.814209759671985E-101
   76.4156250000000        -3.244326792605898E-101
   76.6293750000000        -2.919706911994049E-101
   76.8431250000000        -1.280352838199957E-101
   77.0568750000000         2.270889935986604E-101
   77.2706250000000         8.193407091021208E-101
   77.4843750000000         1.652906210915785E-100
   77.6981250000000         2.652339722207984E-100
   77.9118750000000         3.619253514020231E-100
   78.1256250000000         4.193734347530201E-100
   78.3393750000000         3.837680349158329E-100
   78.5531250000000         1.864399588954430E-100
   78.7668750000000        -2.456255906999604E-100
   78.9806250000000        -9.688737134702019E-100
   79.1943750000000        -1.990114644976540E-099
   79.4081250000000        -3.222160638899741E-099
   79.6218750000000        -4.433487894029647E-099
   79.8356250000000        -5.203644405695182E-099
   80.0493750000000        -4.903914083533613E-099
   80.2631250000000        -2.730501291828810E-099
   80.4768750000000         2.177351287564588E-099
   80.6906250000000         1.050314356511178E-098
   80.9043750000000         2.238401843692143E-098
   81.1181250000000         3.691647222196555E-098
   81.3318750000000         5.159479834519089E-098
   81.5456250000000         6.180843442974033E-098
   81.7593750000000         6.060668914226280E-098
   81.9731250000000         3.902056775125358E-098
   82.1868750000000        -1.271504344612619E-098
   82.4006250000000        -1.027084057724741E-097
   82.6143750000000        -2.335237793111823E-097
   82.8281250000000        -3.969469880895115E-097
   83.0418750000000        -5.679799594141605E-097
   83.2556250000000        -6.993303449097020E-097
   83.4693750000000        -7.184929353138907E-097
   83.6831250000000        -5.303422078742865E-097
   83.8968750000000        -2.871078299734986E-098
   84.1106250000000         8.796565243694509E-097
   84.3243750000000         2.236567977688752E-096
   84.5381250000000         3.979817495671865E-096
   84.7518750000000         5.881798270121663E-096
   84.9656250000000         7.491112993174761E-096
   85.1793750000000         8.096993157857897E-096
   85.3931250000000         6.744374142974430E-096
   85.6068750000000         2.333177798627828E-096
   85.8206250000000        -6.164677067869254E-096
   86.0343750000000        -1.934697764419960E-095
   86.2481250000000        -3.688228077719243E-095
   86.4618750000000        -5.691268873856077E-095
   86.6756250000000        -7.546037587712745E-095
   86.8893750000000        -8.601317775393003E-095
   87.1031250000000        -7.953994189574764E-095
   87.3168750000000        -4.524361219149922E-095
   87.5306250000000         2.763015719798423E-095
   87.7443750000000         1.466851074762686E-094
   87.9581250000000         3.119194286036489E-094
   88.1718750000000         5.102239536094908E-094
   88.3856250000000         7.096416481588168E-094
   88.5993750000000         8.548330654288171E-094
   88.8131250000000         8.658684142333814E-094
   89.0268750000000         6.430211515713745E-094
   89.2406250000000         8.043316481543395E-095
   89.4543750000000        -9.089417818728766E-094
   89.6681250000000        -2.356152350015187E-093
   89.8818750000000        -4.188548127309693E-093
   90.0956250000000        -6.177335103402120E-093
   90.3093750000000        -7.891375453993273E-093
   90.5231250000000        -8.673974071783720E-093
   90.7368750000000        -7.664502533838937E-093
   90.9506250000000        -3.889378064611976E-093
   91.1643750000000         3.555177308779000E-093
   91.3781250000000         1.521558877586481E-092
   91.5918750000000         3.089461874654253E-092
   91.8056250000000         4.920222590193980E-092
   92.0193750000000         6.711951260180637E-092
   92.2331250000000         7.969785022210461E-092
   92.4468750000000         8.005965273673611E-092
   92.6606250000000         5.989732092668538E-092
   92.8743750000000         1.066585693540779E-092
   93.0881250000000        -7.438675294823264E-092
   93.3018750000000        -1.973276367704894E-091
   93.5156250000000        -3.519638828086036E-091
   93.7293750000000        -5.200462494100066E-091
   93.9431250000000        -6.680595243547154E-091
   94.1568750000000        -7.457674297568557E-091
   94.3706250000000        -6.879750394919775E-091
   94.5843750000000        -4.210903787840318E-091
   94.7981250000000         1.241259140236992E-091
   95.0118750000000         9.928788189818974E-091
   95.2256250000000         2.180193720033528E-090
   95.4393750000000         3.600606575598406E-090
   95.6531250000000         5.058369789835834E-090
   95.8668750000000         6.225554401850898E-090
   96.0806250000000         6.638008683379214E-090
   96.2943750000000         5.720928502806723E-090
   96.5081250000000         2.855943005208067E-090
   96.7218750000000        -2.500860734910694E-090
   96.9356250000000        -1.064660673129462E-089
   97.1493750000000        -2.141194949502652E-089
   97.3631250000000        -3.391573837334819E-089
   97.5768750000000        -4.633414756992420E-089
   97.7906250000000        -5.574459431593432E-089
   98.0043750000000        -5.812340548186432E-089
   98.2181250000000        -4.858842405919554E-089
   98.4318750000000        -2.197740483502997E-089
   98.6456250000000         2.616682905730579E-089
   98.8593750000000         9.817971807497112E-089
   99.0731250000000         1.924798453786683E-088
   99.2868750000000         3.015596557651776E-088
   99.5006250000000         4.100672112893498E-088
   99.7143750000000         4.934430902938496E-088
   99.9281250000000         5.177317369906579E-088
   100.141875000000         4.413047846194884E-088
   100.355625000000         2.192699889730888E-088
   100.569375000000        -1.887618492571401E-088
   100.783125000000        -8.071791105112442E-088
   100.996875000000        -1.629323811520525E-087
   101.210625000000        -2.599936186995763E-087
   101.424375000000        -3.597289415847438E-087
   101.638125000000        -4.418634854898428E-087
   101.851875000000        -4.774122700791661E-087
   102.065625000000        -4.295784670485552E-087
   102.279375000000        -2.569080856888170E-087
   102.493125000000         8.056056299796890E-088
   102.706875000000         6.115949589871049E-087
   102.920625000000         1.340377801239028E-086
   103.134375000000         2.230019956216047E-086
   103.348125000000         3.184645404561463E-086
   103.561875000000         4.033128854083307E-086
   103.775625000000         4.519215387095115E-086
   103.989375000000         4.304412381775348E-086
   104.203125000000         2.991334571435008E-086
   104.416875000000         1.755460673838067E-087
   104.630625000000        -4.467338548004366E-086
   104.844375000000        -1.105626815384707E-085
   105.058125000000        -1.934501402066743E-085
   105.271875000000        -2.854267782553769E-085
   105.485625000000        -3.714336895848848E-085
   105.699375000000        -4.281090410260145E-085
   105.913125000000        -4.238156788900035E-085
   106.126875000000        -3.206139661479511E-085
   106.340625000000        -7.898333327932741E-086
   106.554375000000         3.340331305677212E-085
   106.768125000000         9.329632181649849E-085
   106.981875000000         1.698715899433286E-084
   107.195625000000         2.561514962955900E-084
   107.409375000000         3.384787042996293E-084
   107.623125000000         3.954429592541088E-084
   107.836875000000         3.979438282291906E-084
   108.050625000000         3.110983104298560E-084
   108.264375000000         9.871351918392648E-085
   108.478125000000        -2.691099290398025E-084
   108.691875000000        -8.050661733638116E-084
   108.905625000000        -1.490921173176349E-083
   109.119375000000        -2.262454596644130E-083
   109.333125000000        -2.995779824766611E-083
   109.546875000000        -3.499114619725957E-083
   109.760625000000        -3.515306097291322E-083
   109.974375000000        -2.741143400602459E-083
   110.188125000000        -8.692386058146057E-084
   110.401875000000         2.343518403724029E-083
   110.615625000000         6.980725006515917E-083
   110.829375000000         1.285039345342414E-082
   111.043125000000         1.936244214322365E-082
   111.256875000000         2.542430986883740E-082
   111.470625000000         2.938973466568301E-082
   111.684375000000         2.910427769266136E-082
   111.898125000000         2.209461850203928E-082
   112.111875000000         5.943195437840991E-083
   112.325625000000        -2.112853671950924E-082
   112.539375000000        -5.947936346697663E-082
   112.753125000000        -1.071331102926760E-081
   112.966875000000        -1.588595359167133E-081
   113.180625000000        -2.054584516925273E-081
   113.394375000000        -2.335274200298222E-081
   113.608125000000        -2.260445037871759E-081
   113.821875000000        -1.641022442287171E-081
   114.035625000000        -3.005990288518180E-082
   114.249375000000         1.877879994708337E-081
   114.463125000000         4.892155094520321E-081
   114.676875000000         8.553355034484443E-081
   114.890625000000         1.242229198130811E-080
   115.104375000000         1.576559183379842E-080
   115.318125000000         1.755252892672320E-080
   115.531875000000         1.651595263495095E-080
   115.745625000000         1.129937856398005E-080
   115.959375000000         7.053602334988604E-082
   116.173125000000        -1.595387309257384E-080
   116.386875000000        -3.842459182617522E-080
   116.600625000000        -6.504903975971006E-080
   116.814375000000        -9.235689195718425E-080
   117.028125000000        -1.148294041776064E-079
   117.241875000000        -1.249812074880682E-079
   117.455625000000        -1.139132445963579E-079
   117.669375000000        -7.246988008628184E-080
   117.883125000000         6.927169976960772E-081
   118.096875000000         1.278036767150441E-079
   118.310625000000         2.867098022157406E-079
   118.524375000000         4.702412453101222E-079
   118.738125000000         6.526152637278497E-079
   118.951875000000         7.946131764218555E-079
   119.165625000000         8.448319557995074E-079
   119.379375000000         7.441841198376177E-079
   119.593125000000         4.343787167155846E-079
   119.806875000000        -1.293533515959796E-079
   120.020625000000        -9.617934400597691E-079
   120.234375000000        -2.029085100187513E-078
   120.448125000000        -3.230715550553723E-078
   120.661875000000        -4.386247499760044E-078
   120.875625000000        -5.232012820945193E-078
   121.089375000000        -5.433524560685808E-078
   121.303125000000        -4.618971036350898E-078
   121.516875000000        -2.437438979634949E-078
   121.730625000000         1.357827340083681E-078
   121.944375000000         6.805893090594143E-078
   122.158125000000         1.362568090655273E-077
   122.371875000000         2.111344625027596E-077
   122.585625000000         2.807629603293229E-077
   122.799375000000         3.283329292787149E-077
   123.013125000000         3.331724337549645E-077
   123.226875000000         2.730574373589140E-077
   123.440625000000         1.279744008391012E-077
   123.654375000000        -1.147257077584695E-077
   123.868125000000        -4.541570993394712E-077