  -1.60312500000000         0.000000000000000E+000
  -1.38937500000000         0.000000000000000E+000
  -1.17562500000000         0.000000000000000E+000
 -0.961875000000000         0.000000000000000E+000
 -0.748125000000000         0.000000000000000E+000
 -0.534375000000000         0.000000000000000E+000
 -0.320625000000000         0.000000000000000E+000
 -0.106875000000000         0.000000000000000E+000
  0.106875000000000         0.000000000000000E+000
  0.320625000000000         0.000000000000000E+000
  0.534375000000000         0.000000000000000E+000
  0.748125000000000         0.000000000000000E+000
  0.961875000000000         0.000000000000000E+000
   1.17562500000000         0.000000000000000E+000
   1.38937500000000         0.000000000000000E+000
   1.60312500000000         0.000000000000000E+000
   1.81687500000000         0.000000000000000E+000
   2.03062500000000         0.000000000000000E+000
   2.24437500000000         0.000000000000000E+000
   2.45812500000000         0.000000000000000E+000
   2.67187500000000         0.000000000000000E+000
   2.88562500000000         0.000000000000000E+000
   3.09937500000000         0.000000000000000E+000
   3.31312500000000         0.000000000000000E+000
   3.52687500000000         0.000000000000000E+000
   3.74062500000000         0.000000000000000E+000
   3.95437500000000         0.000000000000000E+000
   4.16812500000000         0.000000000000000E+000
   4.38187500000000         0.000000000000000E+000
   4.59562500000000         0.000000000000000E+000
   4.80937500000000         0.000000000000000E+000
   5.02312500000000         0.000000000000000E+000
   5.23687500000000         0.000000000000000E+000
   5.45062500000000         0.000000000000000E+000
   5.66437500000000         0.000000000000000E+000
   5.87812500000000         0.000000000000000E+000
   6.09187500000000         0.000000000000000E+000
   6.30562500000000         0.000000000000000E+000
   6.51937500000000         0.000000000000000E+000
   6.73312500000000         0.000000000000000E+000
   6.94687500000000         0.000000000000000E+000
   7.16062500000000         0.000000000000000E+000
   7.37437500000000         0.000000000000000E+000
   7.58812500000000         0.000000000000000E+000
   7.80187500000000         0.000000000000000E+000
   8.01562500000000         0.000000000000000E+000
   8.22937500000000         0.000000000000000E+000
   8.44312500000000         0.000000000000000E+000
   8.65687500000000         0.000000000000000E+000
   8.87062500000000         0.000000000000000E+000
   9.08437500000000         0.000000000000000E+000
   9.29812500000000         0.000000000000000E+000
   9.51187500000000        -1.803928068117968E-215
   9.72562500000000        -3.054822498189628E-208
   9.93937500000000         4.911425505343560E-207
   10.1531250000000        -5.884770399423201E-203
   10.3668750000000        -3.359799537563763E-201
   10.5806250000000        -1.207461259462692E-199
   10.7943750000000        -3.876764442701484E-198
   11.0081250000000        -1.098503431624776E-196
   11.2218750000000        -2.563158527318917E-195
   11.4356250000000        -4.856442622567252E-194
   11.6493750000000        -7.598752154207424E-193
   11.8631250000000        -1.006006407294224E-191
   12.0768750000000        -1.155115759752865E-190
   12.2906250000000        -1.179716455117065E-189
   12.5043750000000        -1.102320370717343E-188
   12.7181250000000        -9.738366070535415E-188
   12.9318750000000        -8.418131771641725E-187
   13.1456250000000        -7.301444748517983E-186
   13.3593750000000        -6.383353458128473E-185
   13.5731250000000        -5.539284598523478E-184
   13.7868750000000        -4.662189850775736E-183
   14.0006250000000        -3.731565534501716E-182
   14.2143750000000        -2.804393250442922E-181
   14.4281250000000        -1.965499066278603E-180
   14.6418750000000        -1.280564923742584E-179
   14.8556250000000        -7.744257545410576E-179
   15.0693750000000        -4.342409446519556E-178
   15.2831250000000        -2.253801952478029E-177
   15.4968750000000        -1.079221155737030E-176
   15.7106250000000        -4.738081005259552E-176
   15.9243750000000        -1.884668684013893E-175
   16.1381250000000        -6.631676416402647E-175
   16.3518750000000        -1.952061909550556E-174
   16.5656250000000        -3.994996957712824E-174
   16.7793750000000         9.233182990510152E-175
   16.9931250000000         6.631262611224671E-173
   17.2068750000000         4.525211571822386E-172
   17.4206250000000         2.188547734477431E-171
   17.6343750000000         8.643126961207090E-171
   17.8481250000000         2.843658899680648E-170
   18.0618750000000         7.396407086964330E-170
   18.2756250000000         1.142409883808299E-169
   18.4893750000000        -2.116381778231053E-169
   18.7031250000000        -2.851451056355636E-168
   18.9168750000000        -1.588522805924708E-167
   19.1306250000000        -6.744309446151348E-167
   19.3443750000000        -2.409203612868823E-166
   19.5581250000000        -7.400810331191662E-166
   19.7718750000000        -1.920077441504690E-165
   19.9856250000000        -3.860169137835455E-165
   20.1993750000000        -3.796120129305111E-165
   20.4131250000000         1.363187375393582E-164
   20.6268750000000         1.044500890740828E-163
   20.8406250000000         4.230049575740890E-163
   21.0543750000000         1.258746395295476E-162
   21.2681250000000         2.644889055722637E-162
   21.4818750000000         1.692823157677399E-162
   21.6956250000000        -1.897120405990849E-161
   21.9093750000000        -1.318846468959090E-160
   22.1231250000000        -5.877347908163383E-160
   22.3368750000000        -2.137998809015740E-159
   22.5506250000000        -6.749888963849006E-159
   22.7643750000000        -1.880522344319996E-158
   22.9781250000000        -4.581279187716147E-158
   23.1918750000000        -9.311592324769738E-158
   23.4056250000000        -1.322045164267632E-157
   23.6193750000000         1.878258703023239E-158
   23.8331250000000         1.061186184374435E-156
   24.0468750000000         5.181981787623509E-156
   24.2606250000000         1.826705977711643E-155
   24.4743750000000         5.416923962107927E-155
   24.6881250000000         1.408276112927737E-154
   24.9018750000000         3.226317316392477E-154
   25.1156250000000         6.354815081620512E-154
   25.3293750000000         9.832351682364101E-154
   25.5431250000000         7.371714661741611E-154
   25.7568750000000        -2.319000353855463E-153
   25.9706250000000        -1.435056112129635E-152
   26.1843750000000        -4.990737618559002E-152
   26.3981250000000        -1.382894263541590E-151
   26.6118750000000        -3.274089774167278E-151
   26.8256250000000        -6.678790091419692E-151
   27.0393750000000        -1.129424060507765E-150
   27.2531250000000        -1.341351659122568E-150
   27.4668750000000         4.460015172375974E-152
   27.6806250000000         6.654881925185193E-150
   27.8943750000000         2.653985276684643E-149
   28.1081250000000         7.455683407035767E-149
   28.3218750000000         1.718120490299862E-148
   28.5356250000000         3.326690135518895E-148
   28.7493750000000         5.171690574772276E-148
   28.9631250000000         5.064322242803491E-148
   29.1768750000000        -3.628219674494266E-148
   29.3906250000000        -3.661599655530132E-147
   29.6043750000000        -1.246955690288761E-146
   29.8181250000000        -3.164624679746111E-146
   30.0318750000000        -6.628792135332947E-146
   30.2456250000000        -1.148178487897350E-145
   30.4593750000000        -1.497353807493566E-145
   30.6731250000000        -7.490793214941855E-146
   30.8868750000000         3.531017147305512E-145
   31.1006250000000         1.640970306659484E-144
   31.3143750000000         4.667738565509193E-144
   31.5281250000000         1.062496959386035E-143
   31.7418750000000         2.038066763267768E-143
   31.9556250000000         3.244068654167823E-143
   32.1693750000000         3.812372591509955E-143
   32.3831250000000         1.215718666145275E-143
   32.5968750000000        -1.025077012514253E-142
   32.8106250000000        -4.134018704778872E-142
   33.0243750000000        -1.088832002447131E-141
   33.2381250000000        -2.327151886908524E-141
   33.4518750000000        -4.216056909541248E-141
   33.6656250000000        -6.361382354319072E-141
   33.8793750000000        -7.114664687357377E-141
   34.0931250000000        -2.231847451216315E-141
   34.3068750000000         1.703359658283360E-140
   34.5206250000000         6.585862613718785E-140
   34.7343750000000         1.660535012815245E-139
   34.9481250000000         3.406300296245084E-139
   35.1618750000000         5.956157587898830E-139
   35.3756250000000         8.783312741096668E-139
   35.5893750000000         9.992306723304233E-139
   35.8031250000000         5.081130611805063E-139
   36.0168750000000        -1.467809181110760E-138
   36.2306250000000        -6.377356531634702E-138
   36.4443750000000        -1.627292542599914E-137
   36.6581250000000        -3.348871155495157E-137
   36.8718750000000        -5.961316882639056E-137
   37.0856250000000        -9.325941272875085E-137
   37.2993750000000        -1.260037152304484E-136
   37.5131250000000        -1.356849826209240E-136
   37.7268750000000        -7.582678266613304E-137
   37.9406250000000         1.411988216410542E-136
   38.1543750000000         6.720845077025161E-136
   38.3681250000000         1.790065426703789E-135
   38.5818750000000         3.962378022748898E-135
   38.7956250000000         7.957608044643687E-135
   39.0093750000000         1.493331057506427E-134
   39.2231250000000         2.631308017977013E-134
   39.4368750000000         4.294514852676360E-134
   39.6506250000000         6.244296303584304E-134
   39.8643750000000         7.270451023176886E-134
   40.0781250000000         3.860612350098909E-134
   40.2918750000000        -1.213882425412696E-133
   40.5056250000000        -5.693939639463658E-133
   40.7193750000000        -1.584299363703931E-132
   40.9331250000000        -3.568409512609505E-132
   41.1468750000000        -6.948552212284301E-132
   41.3606250000000        -1.182371698451102E-131
   41.5743750000000        -1.711822788346610E-131
   41.7881250000000        -1.892384281949400E-131
   42.0018750000000        -7.758796365346069E-132
   42.2156250000000         3.515533152838637E-131
   42.4293750000000         1.414498563050283E-130
   42.6431250000000         3.556539826584931E-130
   42.8568750000000         7.245862218125942E-130
   43.0706250000000         1.263500178582771E-129
   43.2843750000000         1.880440875904562E-129
   43.4981250000000         2.237477636558423E-129
   43.7118750000000         1.535812994547876E-129
   43.9256250000000        -1.754749185812575E-129
   44.1393750000000        -1.012231950605308E-128
   44.3531250000000        -2.694726798933865E-128
   44.5668750000000        -5.566306044516079E-128
   44.7806250000000        -9.736192831581438E-128
   44.9943750000000        -1.457895948475922E-127
   45.2081250000000        -1.786564628722554E-127
   45.4218750000000        -1.448728797968307E-127
   45.6356250000000         5.061013628253285E-128
   45.8493750000000         5.582924917214694E-127
   46.0631250000000         1.578305126738443E-126
   46.2768750000000         3.312563100349469E-126
   46.4906250000000         5.837025041231075E-126
   46.7043750000000         8.845781163602654E-126
   46.9181250000000         1.122146396926750E-125
   47.1318750000000         1.042068924547023E-125
   47.3456250000000         1.755890090200463E-126
   47.5593750000000        -2.216081810766176E-125
   47.7731250000000        -7.124024285173948E-125
   47.9868750000000        -1.559999161377555E-124
   48.2006250000000        -2.823950449481395E-124
   48.4143750000000        -4.414638846448041E-124
   48.6281250000000        -5.918706992283574E-124
   48.8418750000000        -6.344723887893529E-124
   49.0556250000000        -3.809869098381478E-124
   49.2693750000000         4.751608591175109E-124
   49.4831250000000         2.367496820408719E-123
   49.6968750000000         5.811041761834239E-123
   49.9106250000000         1.124921800019920E-122
   50.1243750000000         1.871822610118659E-122
   50.3381250000000         2.723921865402019E-122
   50.5518750000000         3.385643776159976E-122
   50.7656250000000         3.229781242386736E-122
   50.9793750000000         1.138701247170073E-122
   51.1931250000000        -4.635565277715449E-122
   51.4068750000000        -1.649457506408148E-121
   51.6206250000000        -3.721778357972691E-121
   51.8343750000000        -6.908823605186263E-121
   52.0481250000000        -1.119814324496603E-120
   52.2618750000000        -1.598620122050415E-120
   52.4756250000000        -1.951361888687592E-120
   52.6893750000000        -1.806214826800037E-120
   52.9031250000000        -4.983514218341923E-121
   53.1168750000000         3.016746243858433E-120
   53.3306250000000         1.017576402419331E-119
   53.5443750000000         2.262464638196772E-119
   53.7581250000000         4.164156458518748E-119
   53.9718750000000         6.688312632146022E-119
   54.1856250000000         9.412024054553013E-119
   54.3993750000000         1.116929211431268E-118
   54.6131250000000         9.572834615443502E-119
   54.8268750000000         4.935297718172111E-120
   55.0406250000000        -2.227473809293224E-118
   55.2543750000000        -6.670090989579017E-118
   55.4681250000000        -1.407650617497500E-117
   55.6818750000000        -2.481228464395295E-117
   55.8956250000000        -3.798001514260928E-117
   56.1093750000000        -5.007167527499417E-117
   56.3231250000000        -5.309524241376853E-117
   56.5368750000000        -3.244202604096953E-117
   56.7506250000000         3.472018572822046E-117
   56.9643750000000         1.789230531587023E-116
   57.1781250000000         4.330418223823696E-116
   57.3918750000000         8.182447838072639E-116
   57.6056250000000         1.316686510033208E-115
   57.8193750000000         1.827145794173944E-115
   58.0331250000000         2.103594702457677E-115
   58.2468750000000         1.685545629640360E-115
   58.4606250000000        -1.549261180042733E-116
   58.6743750000000        -4.400180240133379E-115
   58.8881250000000        -1.212757436701374E-114
   59.1018750000000        -2.409236751716966E-114
   59.3156250000000        -3.992741134454503E-114
   59.5293750000000        -5.686438380358362E-114
   59.7431250000000        -6.799772590184237E-114
   59.9568750000000        -6.036560483002022E-114
   60.1706250000000        -1.355834638810081E-114
   60.3843750000000         9.980259927786837E-114
   60.5981250000000         3.096086650497526E-113
   60.8118750000000         6.370398001942746E-113
   61.0256250000000         1.073599741499536E-112
   61.2393750000000         1.548459829903753E-112
   61.4531250000000         1.885343295745837E-112
   61.6668750000000         1.756607546200184E-112
   61.8806250000000         6.526823180437335E-113
   62.0943750000000        -2.100500983922027E-112
   62.3081250000000        -7.227063960023166E-112
   62.5218750000000        -1.522774753222778E-111
   62.7356250000000        -2.588597265809014E-111
   62.9493750000000        -3.752100863339622E-111
   63.1631250000000        -4.603333000167723E-111
   63.3768750000000        -4.393314202954954E-111
   63.5906250000000        -1.976931782794433E-111
   63.8043750000000         4.132811683835500E-111
   64.0181250000000         1.549671521046588E-110
   64.2318750000000         3.314432020139118E-110
   64.4456250000000         5.651938726705245E-110
   64.6593750000000         8.193533134681607E-110
   64.8731250000000         1.006691112357334E-109
   65.0868750000000         9.712098224472790E-110
   65.3006250000000         4.790802965927706E-110
   65.5143750000000        -7.669522258438336E-110
   65.7281250000000        -3.070268544755677E-109
   65.9418750000000        -6.618072121563991E-109
   66.1556250000000        -1.127580822401994E-108
   66.3693750000000        -1.629569736822967E-108
   66.5831250000000        -1.997016438125809E-108
   66.7968750000000        -1.931667977176483E-108
   67.0106250000000        -9.958699127120494E-109
   67.2243750000000         1.354118410504271E-108
   67.4381250000000         5.655922682675213E-108
   67.6518750000000         1.221379050570379E-107
   67.8656250000000         2.072985119528860E-107
   68.0793750000000         2.979808137253539E-107
   68.2931250000000         3.632534899052846E-107
   68.5068750000000         3.503926449664042E-107
   68.7206250000000         1.837003722101437E-107
   68.9343750000000        -2.286594370562535E-107
   69.1481250000000        -9.744283463237121E-107
   69.3618750000000        -2.098186795294251E-106
   69.5756250000000        -3.540065708082898E-106
   69.7893750000000        -5.054273478988503E-106
   70.0031250000000        -6.119458682305049E-106
   70.2168750000000        -5.868011638392803E-106
   70.4306250000000        -3.080658878466711E-106
   70.6443750000000         3.687339254145085E-106
   70.8581250000000         1.576849599288700E-105
   71.0718750000000         3.375822625683226E-105
   71.2856250000000         5.656458182927953E-105
   71.4993750000000         8.018254677540497E-105
   71.7131250000000         9.639627133182739E-105
   71.9268750000000         9.183472777452019E-105
   72.1406250000000         4.807757731698890E-105
   72.3543750000000        -5.622787339178119E-105
   72.5681250000000        -2.401273315814260E-104
   72.7818750000000        -5.110126419013942E-104
   72.9956250000000        -8.507953519885489E-104
   73.2093750000000        -1.198551991335066E-103
   73.4231250000000        -1.432790397386083E-103
   73.6368750000000        -1.359550757593337E-103
   73.8506250000000        -7.161495871511143E-104
   74.0643750000000         7.963374639826653E-104
   74.2781250000000         3.437261385568849E-103
   74.4918750000000         7.295127584361123E-103
   74.7056250000000         1.209785397339057E-102
   74.9193750000000         1.697999843517912E-102
   75.1331250000000         2.025190003292312E-102
   75.3468750000000         1.925551207388070E-102
   75.5606250000000         1.043679682849563E-102
   75.7743750000000        -1.019652695458450E-102
   75.9881250000000        -4.604963890156300E-102
   76.2018750000000        -9.820464792224492E-102
   76.4156250000000        -1.629552573247148E-101
   76.6293750000000        -2.288333675426267E-101
   76.8431250000000        -2.737215061228251E-101
   77.0568750000000        -2.631351408902303E-101
   77.2706250000000        -1.512979664140843E-101
   77.4843750000000         1.129234231628294E-101
   77.6981250000000         5.730465822654321E-101
   77.9118750000000         1.243323109387322E-100
   78.1256250000000         2.078336187090525E-100
   78.3393750000000         2.936693632799110E-100
   78.5531250000000         3.546103426184912E-100
   78.7668750000000         3.482848782193834E-100
   78.9806250000000         2.184852650861973E-100
   79.1943750000000        -9.775661572279818E-101
   79.4081250000000        -6.548185366870756E-100
   79.6218750000000        -1.473015973643904E-099
   79.8356250000000        -2.502984488176995E-099
   80.0493750000000        -3.583229801713322E-099
   80.2631250000000        -4.399157944955181E-099
   80.4768750000000        -4.458275851660920E-099
   80.6906250000000        -3.103047964281135E-099
   80.9043750000000         4.117674746861631E-100
   81.1181250000000         6.749507413854710E-099
   81.3318750000000         1.620914945571955E-098
   81.5456250000000         2.832911995854032E-098
   81.7593750000000         4.141223629029816E-098
   81.9731250000000         5.205989937079272E-098
   82.1868750000000         5.487130228090321E-098
   82.4006250000000         4.253542114566531E-098
   82.6143750000000         6.600606364849541E-099
   82.8281250000000        -6.078095690109961E-098
   83.0418750000000        -1.639075244155545E-097
   83.2556250000000        -2.993513131901673E-097
   83.4693750000000        -4.508811762640637E-097
   83.6831250000000        -5.843504321923003E-097
   83.8968750000000        -6.440992205917063E-097
   84.1106250000000        -5.531543944825631E-097
   84.3243750000000        -2.201079008250928E-097
   84.5381250000000         4.442682966403230E-097
   84.7518750000000         1.498228481609506E-096
   84.9656250000000         2.927458372874311E-096
   85.1793750000000         4.593437217765926E-096
   85.3931250000000         6.179608348042382E-096
   85.6068750000000         7.149771711801123E-096
   85.8206250000000         6.740280227400946E-096
   86.0343750000000         4.013722130048587E-096
   86.2481250000000        -1.995779863737686E-096
   86.4618750000000        -1.202011723073381E-095
   86.6756250000000        -2.616748851153548E-095
   86.8893750000000        -4.342497455585475E-095
   87.1031250000000        -6.111846421841404E-095
   87.3168750000000        -7.445470656148855E-095
   87.5306250000000        -7.633714456392049E-095
   87.7443750000000        -5.770720065185969E-095
   87.9581250000000        -8.693840858318531E-096
   88.1718750000000         7.917273311571080E-095
   88.3856250000000         2.095458693046987E-094
   88.5993750000000         3.767491043193770E-094
   88.8131250000000         5.606490749582743E-094
   89.0268750000000         7.219116473036576E-094
   89.2406250000000         7.992308273674976E-094
   89.4543750000000         7.106839689194833E-094
   89.6681250000000         3.617270335739465E-094
   89.8818750000000        -3.377378299401500E-094
   90.0956250000000        -1.445591600222475E-093
   90.3093750000000        -2.949185041044107E-093
   90.5231250000000        -4.719606771611523E-093
   90.7368750000000        -6.465781458837446E-093
   90.9506250000000        -7.700602447796886E-093
   91.1643750000000        -7.736320153576533E-093
   91.3781250000000        -5.730194528280228E-093
   91.5918750000000        -8.021660993229444E-094
   91.8056250000000         7.758184172483607E-093
   92.0193750000000         2.019006997507148E-092
   92.2331250000000         3.588117562687696E-092
   92.4468750000000         5.295525875560305E-092
   92.6606250000000         6.791316031588124E-092
   92.8743750000000         7.545459994989245E-092
   93.0881250000000         6.864442918852180E-092
   93.3018750000000         3.960495378733338E-092
   93.5156250000000        -1.910057736768216E-092
   93.7293750000000        -1.122966602485462E-091
   93.9431250000000        -2.392754648196509E-091
   94.1568750000000        -3.903782205403250E-091
   94.3706250000000        -5.436094469412940E-091
   94.5843750000000        -6.621408135195426E-091
   94.7981250000000        -6.938788906908032E-091
   95.0118750000000        -5.744990098508302E-091
   95.2256250000000        -2.353768822435565E-091
   95.4393750000000         3.824461493521063E-091
   95.6531250000000         1.307874248407891E-090
   95.8668750000000         2.513843646394410E-090
   96.0806250000000         3.888636951128378E-090
   96.2943750000000         5.209498362901999E-090
   96.5081250000000         6.126151505321081E-090
   96.7218750000000         6.164100922959112E-090
   96.9356250000000         4.758965337508420E-090
   97.1493750000000         1.332707140820347E-090
   97.3631250000000        -4.580439500112199E-090
   97.5768750000000        -1.315714606029944E-089
   97.7906250000000        -2.406681159935057E-089
   98.0043750000000        -3.623645407774029E-089
   98.2181250000000        -4.764128085994107E-089
   98.4318750000000        -5.518300382301141E-089
   98.6456250000000        -5.473525910925569E-089
   98.8593750000000        -4.144572188449359E-089
   99.0731250000000        -1.038148104038587E-089
   99.2868750000000         4.241899064436269E-089
   99.5006250000000         1.184741120608153E-088
   99.7143750000000         2.150367755425197E-088
   99.9281250000000         3.231060852085514E-088
   100.141875000000         4.256031134556359E-088
   100.355625000000         4.962020423833424E-088
   100.569375000000         4.994625998154843E-088
   100.783125000000         3.930214097402383E-088
   100.996875000000         1.326201599480930E-088
   101.210625000000        -3.193820023933351E-088
   101.424375000000        -9.817104886972022E-088
   101.638125000000        -1.838412395133166E-087
   101.851875000000        -2.820888358897544E-087
   102.065625000000        -3.790234709202796E-087
   102.279375000000        -4.523917212440863E-087
   102.493125000000        -4.712388627316707E-087
   102.706875000000        -3.972647413195158E-087
   102.920625000000        -1.886476525703480E-087
   103.134375000000         1.929386077576630E-087
   103.348125000000         7.716309681907593E-087
   103.561875000000         1.543030592083419E-086
   103.775625000000         2.457062382859363E-086
   103.989375000000         3.400087600657393E-086
   104.203125000000         4.179820556281749E-086
   104.416875000000         4.518280924555511E-086
   104.630625000000         4.059595603189189E-086
   104.844375000000         2.400510136928817E-086
   105.058125000000        -8.486268954724187E-087
   105.271875000000        -5.966623961535591E-086
   105.485625000000        -1.298682021157839E-085
   105.699375000000        -2.153193314498238E-085
   105.913125000000        -3.063687858908481E-085
   106.126875000000        -3.859297042042795E-085
   106.340625000000        -4.286366655805700E-085
   106.554375000000        -4.013782184953728E-085
   106.768125000000        -2.659679837245648E-085
   106.981875000000         1.529272196875034E-086
   107.195625000000         4.706048953865947E-085
   107.409375000000         1.106115922272736E-084
   107.623125000000         1.890494700195793E-084
   107.836875000000         2.738426829318569E-084
   108.050625000000         3.496215615010424E-084
   108.264375000000         3.934202007910155E-084
   108.478125000000         3.752090844876687E-084
   108.691875000000         2.604065135432824E-084
   108.905625000000         1.502286588180281E-085
   109.119375000000        -3.861191695177608E-084
   109.333125000000        -9.480929733060336E-084
   109.546875000000        -1.642234817061177E-083
   109.760625000000        -2.391901031192399E-083
   109.974375000000        -3.060559071279797E-083
   110.188125000000        -3.446418648215620E-083
   110.401875000000        -3.288854994814051E-083
   110.615625000000        -2.292326480344657E-083
   110.829375000000        -1.728756949385645E-084
   111.043125000000         3.269871109453168E-083
   111.256875000000         8.056455230742193E-083
   111.470625000000         1.391470624036906E-082
   111.684375000000         2.016625381116711E-082
   111.898125000000         2.563813584197574E-082
   112.111875000000         2.863467720680045E-082
   112.325625000000         2.701174385732215E-082
   112.539375000000         1.839677452489147E-082
   112.753125000000         5.900663918285982E-084
   112.966875000000        -2.783789767179988E-082
   113.180625000000        -6.677438259753748E-082
   113.394375000000        -1.136909976378635E-081
   113.608125000000        -1.628077469958052E-081
   113.821875000000        -2.045046806900038E-081
   114.035625000000        -2.252557601628017E-081
   114.249375000000        -2.083985698402102E-081
   114.463125000000        -1.360438198240789E-081
   114.676875000000         7.655069679659539E-083
   114.890625000000         2.318322971609424E-081
   115.104375000000         5.330903054348934E-081
   115.318125000000         8.891777210629680E-081
   115.531875000000         1.253284617753360E-080
   115.745625000000         1.550560969941936E-080
   115.959375000000         1.678861615839992E-080
   116.173125000000         1.515893134658628E-080
   116.386875000000         9.347232908394970E-081
   116.600625000000        -1.711511467346519E-081
   116.814375000000        -1.853427041958960E-080
   117.028125000000        -4.067730581899534E-080
   117.241875000000        -6.630706494076429E-080
   117.455625000000        -9.183890950728733E-080
   117.669375000000        -1.117586059577444E-079
   117.883125000000        -1.187634831006781E-079
   118.096875000000        -1.043641238604701E-079
   118.310625000000        -6.006299579974253E-080
   118.524375000000         2.083614740458405E-080
   118.738125000000         1.408414368080172E-079
   118.951875000000         2.955139763490170E-079
   119.165625000000         4.707296748551750E-079
   119.379375000000         6.405557679388930E-079
   119.593125000000         7.665146710955164E-079
   119.806875000000         7.991142569926741E-079
   120.020625000000         6.824979436344661E-079
   120.234375000000         3.628477996455377E-079
   120.448125000000        -1.992933949024318E-079
   120.661875000000        -1.013356320904715E-078
   120.875625000000        -2.041307892680088E-078
   121.089375000000        -3.181187200341901E-078
   121.303125000000        -4.255547667275199E-078
   121.516875000000        -5.009701487733686E-078
   121.730625000000        -5.125084981710727E-078
   121.944375000000        -4.252587360682035E-078
   122.158125000000        -2.068962889736963E-078
   122.371875000000         1.643781325149104E-078
   122.585625000000         6.900935031666986E-078
   122.799375000000         1.341064735185289E-077
   123.013125000000         2.048048591927533E-077
   123.226875000000         2.695956766680491E-077
   123.440625000000         3.124559543754619E-077
   123.654375000000         3.138719084484544E-077
   123.868125000000         2.530725584398621E-077