  -1.60312500000000         0.000000000000000E+000
  -1.38937500000000         0.000000000000000E+000
  -1.17562500000000         0.000000000000000E+000
 -0.961875000000000         0.000000000000000E+000
 -0.748125000000000         0.000000000000000E+000
 -0.534375000000000         0.000000000000000E+000
 -0.320625000000000         0.000000000000000E+000
 -0.106875000000000         0.000000000000000E+000
  0.106875000000000         0.000000000000000E+000
  0.320625000000000         0.000000000000000E+000
  0.534375000000000         0.000000000000000E+000
  0.748125000000000         0.000000000000000E+000
  0.961875000000000         0.000000000000000E+000
   1.17562500000000         0.000000000000000E+000
   1.38937500000000         0.000000000000000E+000
   1.60312500000000         0.000000000000000E+000
   1.81687500000000         0.000000000000000E+000
   2.03062500000000         0.000000000000000E+000
   2.24437500000000         0.000000000000000E+000
   2.45812500000000         0.000000000000000E+000
   2.67187500000000         0.000000000000000E+000
   2.88562500000000         0.000000000000000E+000
   3.09937500000000         0.000000000000000E+000
   3.31312500000000         0.000000000000000E+000
   3.52687500000000         0.000000000000000E+000
   3.74062500000000         0.000000000000000E+000
   3.95437500000000         0.000000000000000E+000
   4.16812500000000         0.000000000000000E+000
   4.38187500000000         0.000000000000000E+000
   4.59562500000000         0.000000000000000E+000
   4.80937500000000         0.000000000000000E+000
   5.02312500000000         0.000000000000000E+000
   5.23687500000000         0.000000000000000E+000
   5.45062500000000         0.000000000000000E+000
   5.66437500000000         0.000000000000000E+000
   5.87812500000000         0.000000000000000E+000
   6.09187500000000         0.000000000000000E+000
   6.30562500000000         0.000000000000000E+000
   6.51937500000000         0.000000000000000E+000
   6.73312500000000         0.000000000000000E+000
   6.94687500000000         0.000000000000000E+000
   7.16062500000000         0.000000000000000E+000
   7.37437500000000         0.000000000000000E+000
   7.58812500000000         0.000000000000000E+000
   7.80187500000000         0.000000000000000E+000
   8.01562500000000         0.000000000000000E+000
   8.22937500000000         0.000000000000000E+000
   8.44312500000000         0.000000000000000E+000
   8.65687500000000         0.000000000000000E+000
   8.87062500000000         0.000000000000000E+000
   9.08437500000000         0.000000000000000E+000
   9.29812500000000         0.000000000000000E+000
   9.51187500000000        -4.923967542511093E-214
   9.72562500000000         2.261118644088302E-208
   9.93937500000000         2.107152350451121E-207
   10.1531250000000         3.697505689187045E-203
   10.3668750000000         2.265465563569321E-201
   10.5806250000000         8.611519255822193E-200
   10.7943750000000         2.701265963629960E-198
   11.0081250000000         7.155688256794816E-197
   11.2218750000000         1.580316021994074E-195
   11.4356250000000         2.936348042897068E-194
   11.6493750000000         4.680547421036709E-193
   11.8631250000000         6.504442446525048E-192
   12.0768750000000         7.939344454067416E-191
   12.2906250000000         8.496452716321529E-190
   12.5043750000000         7.881279117234268E-189
   12.7181250000000         6.170684591139193E-188
   12.9318750000000         3.817018329224983E-187
   13.1456250000000         1.452945716951352E-186
   13.3593750000000        -3.830009287716949E-186
   13.5731250000000        -1.435045793052517E-184
   13.7868750000000        -1.749837785101850E-183
   14.0006250000000        -1.563031376591292E-182
   14.2143750000000        -1.149972573285221E-181
   14.4281250000000        -7.206672143720926E-181
   14.6418750000000        -3.848591948776535E-180
   14.8556250000000        -1.690575454486208E-179
   15.0693750000000        -5.317523510871236E-179
   15.2831250000000        -2.725350621070791E-179
   15.4968750000000         1.267027913706655E-177
   15.7106250000000         1.308810213784497E-176
   15.9243750000000         9.157588064922523E-176
   16.1381250000000         5.286751319559353E-175
   16.3518750000000         2.662937211135908E-174
   16.5656250000000         1.193539386486113E-173
   16.7793750000000         4.770815119735780E-173
   16.9931250000000         1.676659189166049E-172
   17.2068750000000         4.950444854494334E-172
   17.4206250000000         1.051497446882974E-171
   17.6343750000000         1.878608727127637E-172
   17.8481250000000        -1.397903255521473E-170
   18.0618750000000        -1.009552010689337E-169
   18.2756250000000        -5.080566482586746E-169
   18.4893750000000        -2.129871050295432E-168
   18.7031250000000        -7.810520734708612E-168
   18.9168750000000        -2.537353798614996E-167
   19.1306250000000        -7.235538031454091E-167
   19.3443750000000        -1.739810454691455E-166
   19.5581250000000        -3.081199307165444E-166
   19.7718750000000        -1.231560851114394E-166
   19.9856250000000         2.090908475087884E-165
   20.1993750000000         1.240319170010739E-164
   20.4131250000000         4.815614567179489E-164
   20.6268750000000         1.485679145828909E-163
   20.8406250000000         3.725094414837677E-163
   21.0543750000000         7.066710975835863E-163
   21.2681250000000         6.586514576357844E-163
   21.4818750000000        -1.851819618735889E-162
   21.6956250000000        -1.192192765022795E-161
   21.9093750000000        -3.254721760746624E-161
   22.1231250000000        -1.534743197370149E-161
   22.3368750000000         3.862871607399530E-160
   22.5506250000000         2.790721318210745E-159
   22.7643750000000         1.339431885544901E-158
   22.9781250000000         5.295243156431493E-158
   23.1918750000000         1.838171928673239E-157
   23.4056250000000         5.752577631786349E-157
   23.6193750000000         1.640285730024199E-156
   23.8331250000000         4.263629345789443E-156
   24.0468750000000         1.000028223827826E-155
   24.2606250000000         2.055785705969364E-155
   24.4743750000000         3.413349999546486E-155
   24.6881250000000         3.165154532951197E-155
   24.9018750000000        -6.417007984349782E-155
   25.1156250000000        -4.930298176947679E-154
   25.3293750000000        -1.887622339963530E-153
   25.5431250000000        -5.707031967651517E-153
   25.7568750000000        -1.486390846005775E-152
   25.9706250000000        -3.411012763991063E-152
   26.1843750000000        -6.841567196237008E-152
   26.3981250000000        -1.142549901359902E-151
   26.6118750000000        -1.317787764746795E-151
   26.8256250000000         2.595282985335350E-152
   27.0393750000000         7.643711798918049E-151
   27.2531250000000         3.016139497467583E-150
   27.4668750000000         8.594746719622082E-150
   27.6806250000000         2.033335571382349E-149
   27.8943750000000         4.098525464049222E-149
   28.1081250000000         6.826958521243020E-149
   28.3218750000000         8.056600631205880E-149
   28.5356250000000         3.822992277588660E-150
   28.7493750000000        -3.520441782237523E-148
   28.9631250000000        -1.390366380806903E-147
   29.1768750000000        -3.818874794828778E-147
   29.3906250000000        -8.570487441191973E-147
   29.6043750000000        -1.610249994468386E-146
   29.8181250000000        -2.407315379403104E-146
   30.0318750000000        -2.153888076083377E-146
   30.2456250000000         2.310119136413129E-146
   30.4593750000000         1.831118795835304E-145
   30.6731250000000         6.021870812280905E-145
   30.8868750000000         1.516044890504223E-144
   31.1006250000000         3.217680160583759E-144
   31.3143750000000         5.847330656114186E-144
   31.5281250000000         8.769650647056203E-144
   31.7418750000000         9.141608371714589E-144
   31.9556250000000        -8.487254152957766E-145
   32.1693750000000        -3.845003466252223E-143
   32.3831250000000        -1.359760754671263E-142
   32.5968750000000        -3.443938278549839E-142
   32.8106250000000        -7.258518015709162E-142
   33.0243750000000        -1.315539894063212E-141
   33.2381250000000        -2.017313731794738E-141
   33.4518750000000        -2.379385244892988E-141
   33.6656250000000        -1.188308763108097E-141
   33.8793750000000         4.149219354741928E-141
   34.0931250000000         1.834070742754348E-140
   34.3068750000000         4.865215110285775E-140
   34.5206250000000         1.040498454225317E-139
   34.7343750000000         1.910304732602647E-139
   34.9481250000000         3.027648278911823E-139
   35.1618750000000         3.967619873336839E-139
   35.3756250000000         3.556487819971297E-139
   35.5893750000000        -7.246933442302098E-140
   35.8031250000000        -1.350574315867662E-138
   36.0168750000000        -4.226946125959890E-138
   36.2306250000000        -9.758897439052033E-138
   36.4443750000000        -1.919099894352629E-137
   36.6581250000000        -3.351995270596035E-137
   36.8718750000000        -5.246188388740096E-137
   37.0856250000000        -7.233477603170899E-137
   37.2993750000000        -8.198734709591878E-137
   37.5131250000000        -5.519134977471708E-137
   37.7268750000000         6.329926712807258E-137
   37.9406250000000         3.824639218843808E-136
   38.1543750000000         1.106041416518070E-135
   38.3681250000000         2.592586021943544E-135
   38.5818750000000         5.422235524257126E-135
   38.7956250000000         1.041374941542289E-134
   39.0093750000000         1.843351524649223E-134
   39.2231250000000         2.963961191050492E-134
   39.4368750000000         4.147482390597508E-134
   39.6506250000000         4.428064507491546E-134
   39.8643750000000         1.302184994647461E-134
   40.0781250000000        -1.062008845824260E-133
   40.2918750000000        -4.142884924169449E-133
   40.5056250000000        -1.075731893795667E-132
   40.7193750000000        -2.314909756948512E-132
   40.9331250000000        -4.350091262841124E-132
   41.1468750000000        -7.186528130051845E-132
   41.3606250000000        -1.014318242789625E-131
   41.5743750000000        -1.094833143855624E-131
   41.7881250000000        -4.254461110555411E-132
   42.0018750000000         2.041159382837634E-131
   42.2156250000000         8.076657167528706E-131
   42.4293750000000         2.024245165375535E-130
   42.6431250000000         4.146868064540394E-130
   42.8568750000000         7.351879260257883E-130
   43.0706250000000         1.133435906242316E-129
   43.2843750000000         1.459978425706241E-129
   43.4981250000000         1.328014873444918E-129
   43.7118750000000        -5.615272479476847E-131
   43.9256250000000        -4.087964004375611E-129
   44.1393750000000        -1.289414061739190E-128
   44.3531250000000        -2.918758565966956E-128
   44.5668750000000        -5.544985511823868E-128
   44.7806250000000        -9.178805189206655E-128
   44.9943750000000        -1.315421456924580E-127
   45.2081250000000        -1.535831198424568E-127
   45.4218750000000        -1.105662434547582E-127
   45.6356250000000         8.622419598680077E-128
   45.8493750000000         5.814513842352056E-127
   46.0631250000000         1.579142104564281E-126
   46.2768750000000         3.313166194246860E-126
   46.4906250000000         5.946480494976997E-126
   46.7043750000000         9.340465005741248E-126
   46.9181250000000         1.261801667940249E-125
   47.1318750000000         1.344532637067694E-125
   47.3456250000000         7.009454637969890E-126
   47.5593750000000        -1.517387554204070E-125
   47.7731250000000        -6.614636817428589E-125
   47.9868750000000        -1.629907860078352E-124
   48.2006250000000        -3.228414521307483E-124
   48.4143750000000        -5.520511788217929E-124
   48.6281250000000        -8.238088209925048E-124
   48.8418750000000        -1.038935820819558E-123
   49.0556250000000        -9.664575940695144E-124
   49.2693750000000        -1.677252288420644E-124
   49.4831250000000         2.075394395116083E-123
   49.6968750000000         6.776287147293405E-123
   49.9106250000000         1.510096146234562E-122
   50.1243750000000         2.789627103728569E-122
   50.3381250000000         4.464563319433341E-122
   50.5518750000000         6.157066044619792E-122
   50.7656250000000         6.867201387750832E-122
   50.9793750000000         4.582405424182543E-122
   51.1931250000000        -4.120360374655404E-122
   51.4068750000000        -2.425077519080152E-121
   51.6206250000000        -6.190686263580591E-121
   51.8343750000000        -1.223517673093108E-120
   52.0481250000000        -2.056085755217142E-120
   52.2618750000000        -2.983691488516339E-120
   52.4756250000000        -3.613521286033426E-120
   52.6893750000000        -3.125979187230615E-120
   52.9031250000000        -1.026991538405623E-121
   53.1168750000000         7.558947556536391E-120
   53.3306250000000         2.246831783340714E-119
   53.5443750000000         4.701583786101780E-119
   53.7581250000000         8.170968968599795E-119
   53.9718750000000         1.221494839952502E-118
   54.1856250000000         1.543614492811316E-118
   54.3993750000000         1.487334662185366E-118
   54.6131250000000         5.389167321331792E-119
   54.8268750000000        -2.062315314082177E-118
   55.0406250000000        -7.261020386618654E-118
   55.2543750000000        -1.593660195874469E-117
   55.4681250000000        -2.834437186543890E-117
   55.6818750000000        -4.312024420752971E-117
   55.8956250000000        -5.578058763148279E-117
   56.1093750000000        -5.682122368303134E-117
   56.3231250000000        -2.986633623784507E-117
   56.5368750000000         4.911138339941821E-117
   56.7506250000000         2.096853036693432E-116
   56.9643750000000         4.792722123001836E-116
   57.1781250000000         8.664374074485270E-116
   57.3918750000000         1.331961860005005E-115
   57.6056250000000         1.746388186950530E-115
   57.8193750000000         1.837845230743694E-115
   58.0331250000000         1.143548696521651E-115
   58.2468750000000        -1.006610586634508E-115
   58.4606250000000        -5.426180998722353E-115
   58.6743750000000        -1.285889970002966E-114
   58.8881250000000        -2.353385005144189E-114
   59.1018750000000        -3.641697092804208E-114
   59.3156250000000        -4.814363432304501E-114
   59.5293750000000        -5.174932291181762E-114
   59.7431250000000        -3.555097537666398E-114
   59.9568750000000         1.711769496999410E-114
   60.1706250000000         1.261752371897818E-113
   60.3843750000000         3.094983648829185E-113
   60.5981250000000         5.722942340745283E-113
   60.8118750000000         8.897386465753952E-113
   61.0256250000000         1.182912944525613E-112
   61.2393750000000         1.291135471853910E-112
   61.4531250000000         9.489510738697492E-113
   61.6668750000000        -2.166186429886009E-113
   61.8806250000000        -2.644273964534351E-112
   62.0943750000000        -6.720092876271992E-112
   62.3081250000000        -1.254841792148721E-111
   62.5218750000000        -1.958799505185613E-111
   62.7356250000000        -2.616136427453790E-111
   62.9493750000000        -2.890911289706219E-111
   63.1631250000000        -2.236282974025411E-111
   63.3768750000000         1.050604150373190E-112
   63.5906250000000         5.010521032987731E-111
   63.8043750000000         1.323801533408249E-110
   64.0181250000000         2.497722833488976E-110
   64.2318750000000         3.915537192001527E-110
   64.4456250000000         5.252493727962078E-110
   64.6593750000000         5.868047125355510E-110
   64.8731250000000         4.733531150431647E-110
   65.0868750000000         4.428553071034129E-111
   65.3006250000000        -8.611352608301377E-110
   65.5143750000000        -2.379572654405731E-109
   65.7281250000000        -4.543206101116336E-109
   65.9418750000000        -7.158228663568505E-109
   66.1556250000000        -9.648878271718048E-109
   66.3693750000000        -1.089412983783498E-108
   66.5831250000000        -9.114515298720425E-109
   66.7968750000000        -1.904507070761320E-109
   67.0106250000000         1.345590707797192E-108
   67.2243750000000         3.925318841672787E-108
   67.4381250000000         7.601294297607713E-108
   67.6518750000000         1.205347775908964E-107
   67.8656250000000         1.634201192133473E-107
   68.0793750000000         1.865472640088768E-107
   68.2931250000000         1.614107639936362E-107
   68.5068750000000         4.980153101914792E-108
   68.7206250000000        -1.911608464896730E-107
   68.9343750000000        -5.973469656794544E-107
   69.1481250000000        -1.177300782972262E-106
   69.3618750000000        -1.882650528586449E-106
   69.5756250000000        -2.571475472179980E-106
   69.7893750000000        -2.971587289421869E-106
   70.0031250000000        -2.657267306470955E-106
   70.2168750000000        -1.060724243933322E-106
   70.4306250000000         2.453384243886297E-106
   70.6443750000000         8.418775901368595E-106
   70.8581250000000         1.697740907096635E-105
   71.0718750000000         2.746178025685768E-105
   71.2856250000000         3.788314784693858E-105
   71.4993750000000         4.442374146313983E-105
   71.7131250000000         4.111898029386273E-105
   71.9268750000000         2.001671550838241E-105
   72.1406250000000        -2.780971501525068E-105
   72.3543750000000        -1.099810850769401E-104
   72.5681250000000        -2.289273815847405E-104
   72.7818750000000        -3.763241411775495E-104
   72.9956250000000        -5.262977364020540E-104
   73.2093750000000        -6.286743519363210E-104
   73.4231250000000        -6.046597598030529E-104
   73.6368750000000        -3.485995103491814E-104
   73.8506250000000         2.594218099034741E-104
   74.0643750000000         1.324940597845651E-103
   74.2781250000000         2.890180392517397E-103
   74.4918750000000         4.863784931911342E-103
   74.7056250000000         6.934511581735742E-103
   74.9193750000000         8.484159765282020E-103
   75.1331250000000         8.528395655964490E-103
   75.3468750000000         5.729345231164652E-103
   75.5606250000000        -1.462649332836211E-103
   75.7743750000000        -1.447477026176797E-102
   75.9881250000000        -3.403156117452186E-102
   76.2018750000000        -5.931128524143144E-102
   76.4156250000000        -8.689278689420480E-102
   76.6293750000000        -1.096605089356391E-101
   76.8431250000000        -1.159891344313855E-101
   77.0568750000000        -8.970683337323249E-102
   77.2706250000000        -1.149986615853100E-102
   77.4843750000000         1.374921271632227E-101
   77.6981250000000         3.692218144054481E-101
   77.9118750000000         6.791115270374063E-101
   78.1256250000000         1.033702130659561E-100
   78.3393750000000         1.357232690171728E-100
   78.5531250000000         1.520498045872782E-100
   78.7668750000000         1.337339560800166E-100
   78.9806250000000         5.760887296535237E-101
   79.1943750000000        -1.005434323268954E-100
   79.4081250000000        -3.593098846750219E-100
   79.6218750000000        -7.212675895990992E-100
   79.8356250000000        -1.159111974272868E-099
   80.0493750000000        -1.599720217579783E-099
   80.2631250000000        -1.909340914607626E-099
   80.4768750000000        -1.885295131092638E-099
   80.6906250000000        -1.261884089414530E-099
   80.9043750000000         2.599691665440089E-100
   81.1181250000000         2.949373986278529E-099
   81.3318750000000         6.940605020913196E-099
   81.5456250000000         1.208502293950022E-098
   81.7593750000000         1.776947428660064E-098
   81.9731250000000         2.272824822192498E-098
   82.1868750000000         2.489865471413979E-098
   82.4006250000000         2.139656417308286E-098
   82.6143750000000         8.712806125462325E-099
   82.8281250000000        -1.675415776307125E-098
   83.0418750000000        -5.772119283945508E-098
   83.2556250000000        -1.145347444250269E-097
   83.4693750000000        -1.832076548597466E-097
   83.6831250000000        -2.531698567350390E-097
   83.8968750000000        -3.051528413545418E-097
   84.1106250000000        -3.099130661053619E-097
   84.3243750000000        -2.288048054330572E-097
   84.5381250000000        -1.746848746348449E-098
   84.7518750000000         3.660027221234391E-097
   84.9656250000000         9.472651330617212E-097
   85.1793750000000         1.715833968461589E-096
   85.3931250000000         2.599986432551008E-096
   85.6068750000000         3.439476278475396E-096
   85.8206250000000         3.962000137749632E-096
   86.0343750000000         3.772864374597640E-096
   86.2481250000000         2.370873571548436E-096
   86.4618750000000        -7.938400378237603E-097
   86.6756250000000        -6.203915489371653E-096
   86.8893750000000        -1.408839595880923E-095
   87.1031250000000        -2.416352365882211E-095
   87.3168750000000        -3.531667158871713E-095
   87.5306250000000        -4.527735494440370E-095
   87.7443750000000        -5.035648222419782E-095
   87.9581250000000        -4.537825354298187E-095
   88.1718750000000        -2.397103292289934E-095
   88.3856250000000         2.058851883923882E-095
   88.5993750000000         9.378820032567790E-095
   88.8131250000000         1.974204560995519E-094
   89.0268750000000         3.262629204116451E-094
   89.2406250000000         4.641597620355465E-094
   89.4543750000000         5.801284643654691E-094
   89.6681250000000         6.255853597201611E-094
   89.8818750000000         5.343057770317152E-094
   90.0956250000000         2.272067572770457E-094
   90.3093750000000        -3.757077160496483E-094
   90.5231250000000        -1.334104334447717E-093
   90.7368750000000        -2.655598443401485E-093
   90.9506250000000        -4.254369214039714E-093
   91.1643750000000        -5.904210325299410E-093
   91.3781250000000        -7.194732507256478E-093
   91.5918750000000        -7.505111220321810E-093
   91.8056250000000        -6.015727052216573E-093
   92.0193750000000        -1.782833832593577E-093
   92.2331250000000         6.097188405731334E-093
   92.4468750000000         1.821228172050714E-092
   92.6606250000000         3.444056773231675E-092
   92.8743750000000         5.345743069134000E-092
   93.0881250000000         7.220532282973809E-092
   93.3018750000000         8.544327746354249E-092
   93.5156250000000         8.555726878442828E-092
   93.7293750000000         6.287407348283306E-092
   93.9431250000000         6.761348966758665E-093
   94.1568750000000        -9.221134783753982E-092
   94.3706250000000        -2.388645731149146E-091
   94.5843750000000        -4.287715014522135E-091
   94.7981250000000        -6.427538389265457E-091
   95.0118750000000        -8.413693120853977E-091
   95.2256250000000        -9.608664918496128E-091
   95.4393750000000        -9.127422786336582E-091
   95.6531250000000        -5.895900860134373E-091
   95.8668750000000         1.198525137288825E-091
   96.0806250000000         1.303953102841526E-090
   96.2943750000000         2.988589435121165E-090
   96.5081250000000         5.086193299980066E-090
   96.7218750000000         7.338980798189834E-090
   96.9356250000000         9.267335930049215E-090
   97.1493750000000         1.014058151012152E-089
   97.3631250000000         8.993402521514409E-090
   97.5768750000000         4.715216032805549E-090
   97.7906250000000        -3.760634497552450E-090
   98.0043750000000        -1.714877501271258E-089
   98.2181250000000        -3.538383957916458E-089
   98.4318750000000        -5.710243757275241E-089
   98.6456250000000        -7.910860726390659E-089
   98.8593750000000        -9.595044004403243E-089
   99.0731250000000        -9.979283508848814E-089
   99.2868750000000        -8.081892553594442E-089
   99.5006250000000        -2.841174182501058E-089
   99.7143750000000         6.666578873745760E-089
   99.9281250000000         2.089864748149837E-088
   100.141875000000         3.941776872441162E-088
   100.355625000000         6.040777587101659E-088
   100.569375000000         8.021945140205279E-088
   100.783125000000         9.308211078523596E-088
   100.996875000000         9.116290952226612E-088
   101.210625000000         6.518619878821086E-088
   101.424375000000         5.821274724756622E-089
   101.638125000000        -9.401252679359309E-088
   101.851875000000        -2.359097624938726E-087
   102.065625000000        -4.120238153924047E-087
   102.279375000000        -6.009213020282525E-087
   102.493125000000        -7.641598792148643E-087
   102.706875000000        -8.449046187694330E-087
   102.920625000000        -7.702245506780459E-087
   103.134375000000        -4.588339196110739E-087
   103.348125000000         1.641960775843332E-087
   103.561875000000         1.144996390672053E-086
   103.775625000000         2.471405318597431E-086
   103.989375000000         4.039254666056976E-086
   104.203125000000         5.620072259795292E-086
   104.416875000000         6.838982761964239E-086
   104.630625000000         7.174520322399301E-086
   104.844375000000         5.993932861601116E-086
   105.058125000000         2.637252138593532E-086
   105.271875000000        -3.440319926769490E-086
   105.485625000000        -1.246646508759994E-085
   105.699375000000        -2.410264052679305E-085
   105.913125000000        -3.717908912712179E-085
   106.126875000000        -4.946795499885288E-085
   106.340625000000        -5.757183316648330E-085
   106.554375000000        -5.702382605109780E-085
   106.768125000000        -4.270209613023892E-085
   106.981875000000        -9.648335630956923E-086
   107.195625000000         4.566332977809041E-085
   107.409375000000         1.236397625015600E-084
   107.623125000000         2.196154557489112E-084
   107.836875000000         3.219349976509774E-084
   108.050625000000         4.105429078731341E-084
   108.264375000000         4.567087544242522E-084
   108.478125000000         4.246151394214900E-084
   108.691875000000         2.755230611109467E-084
   108.905625000000        -2.495844175569494E-085
   109.119375000000        -4.963897425821700E-084
   109.333125000000        -1.130379778516446E-083
   109.546875000000        -1.876341614818597E-083
   109.760625000000        -2.628763823668479E-083
   109.974375000000        -3.219790466177790E-083
   110.188125000000        -3.421834462688554E-083
   110.401875000000        -2.965320700901216E-083
   110.615625000000        -1.576067120525913E-083
   110.829375000000         9.651366959404566E-084
   111.043125000000         4.741814662632984E-083
   111.256875000000         9.606408471644315E-083
   111.470625000000         1.508357672640332E-082
   111.684375000000         2.029328070890982E-082
   111.898125000000         2.392194961786773E-082
   112.111875000000         2.427479480074121E-082
   112.325625000000         1.944229481840827E-082
   112.539375000000         7.606387575760772E-083
   112.753125000000        -1.250537082994149E-082
   112.966875000000        -4.103791208019332E-082
   113.180625000000        -7.635864131764799E-082
   113.394375000000        -1.144462654072541E-081
   113.608125000000        -1.484744754799733E-081
   113.821875000000        -1.687872729126258E-081
   114.035625000000        -1.634818111552880E-081
   114.249375000000        -1.197963017217818E-081
   114.463125000000        -2.642907257184876E-082
   114.676875000000         1.232220088715269E-081
   114.890625000000         3.271171559358549E-081
   115.104375000000         5.704143909828982E-081
   115.318125000000         8.218785539702340E-081
   115.531875000000         1.031935439673036E-080
   115.745625000000         1.133652471171698E-080
   115.959375000000         1.047962260178255E-080
   116.173125000000         6.942143234267910E-081
   116.386875000000         6.556457785154835E-083
   116.600625000000        -1.044343894780957E-080
   116.814375000000        -2.426121325553930E-080
   117.028125000000        -4.019661491791910E-080
   117.241875000000        -5.599563101222439E-080
   117.455625000000        -6.827065798889714E-080
   117.669375000000        -7.263278791460099E-080
   117.883125000000        -6.410210138724155E-080
   118.096875000000        -3.785007413326013E-080
   118.310625000000         9.714556540794679E-081
   118.524375000000         7.957158795155818E-080
   118.738125000000         1.685698505422190E-079
   118.951875000000         2.680069229106000E-079
   119.165625000000         3.626529973009098E-079
   119.379375000000         4.306416594291753E-079
   119.593125000000         4.446782874937842E-079
   119.806875000000         3.749646921803881E-079
   120.020625000000         1.940784732635243E-079
   120.234375000000        -1.162417253530575E-079
   120.448125000000        -5.568701828172937E-079
   120.661875000000        -1.102613740269366E-078
   120.875625000000        -1.694632748963401E-078
   121.089375000000        -2.236041728613810E-078
   121.303125000000        -2.593114978656448E-078
   121.516875000000        -2.604538668816258E-078
   121.730625000000        -2.100676876703698E-078
   121.944375000000        -9.337201040396983E-079
   122.158125000000         9.822089181651326E-079
   122.371875000000         3.624366693881473E-078
   122.585625000000         6.814406422659982E-078
   122.799375000000         1.018039523552866E-077
   123.013125000000         1.313965549091883E-077
   123.226875000000         1.491558011017968E-077
   123.440625000000         1.460087010793350E-077
   123.654375000000         1.127612214079993E-077
   123.868125000000         4.185769980101636E-078