  -1.60312500000000         0.000000000000000E+000
  -1.38937500000000         0.000000000000000E+000
  -1.17562500000000         0.000000000000000E+000
 -0.961875000000000         0.000000000000000E+000
 -0.748125000000000         0.000000000000000E+000
 -0.534375000000000         0.000000000000000E+000
 -0.320625000000000         0.000000000000000E+000
 -0.106875000000000         0.000000000000000E+000
  0.106875000000000         0.000000000000000E+000
  0.320625000000000         0.000000000000000E+000
  0.534375000000000         0.000000000000000E+000
  0.748125000000000         0.000000000000000E+000
  0.961875000000000         0.000000000000000E+000
   1.17562500000000         0.000000000000000E+000
   1.38937500000000         0.000000000000000E+000
   1.60312500000000         0.000000000000000E+000
   1.81687500000000         0.000000000000000E+000
   2.03062500000000         0.000000000000000E+000
   2.24437500000000         0.000000000000000E+000
   2.45812500000000         0.000000000000000E+000
   2.67187500000000         0.000000000000000E+000
   2.88562500000000         0.000000000000000E+000
   3.09937500000000         0.000000000000000E+000
   3.31312500000000         0.000000000000000E+000
   3.52687500000000         0.000000000000000E+000
   3.74062500000000         0.000000000000000E+000
   3.95437500000000         0.000000000000000E+000
   4.16812500000000         0.000000000000000E+000
   4.38187500000000         0.000000000000000E+000
   4.59562500000000         0.000000000000000E+000
   4.80937500000000         0.000000000000000E+000
   5.02312500000000         0.000000000000000E+000
   5.23687500000000         0.000000000000000E+000
   5.45062500000000         0.000000000000000E+000
   5.66437500000000         0.000000000000000E+000
   5.87812500000000         0.000000000000000E+000
   6.09187500000000         0.000000000000000E+000
   6.30562500000000         0.000000000000000E+000
   6.51937500000000         0.000000000000000E+000
   6.73312500000000         0.000000000000000E+000
   6.94687500000000         0.000000000000000E+000
   7.16062500000000         0.000000000000000E+000
   7.37437500000000         0.000000000000000E+000
   7.58812500000000         0.000000000000000E+000
   7.80187500000000         0.000000000000000E+000
   8.01562500000000         0.000000000000000E+000
   8.22937500000000         0.000000000000000E+000
   8.44312500000000         0.000000000000000E+000
   8.65687500000000         0.000000000000000E+000
   8.87062500000000         0.000000000000000E+000
   9.08437500000000         0.000000000000000E+000
   9.29812500000000         0.000000000000000E+000
   9.51187500000000        -4.607221092408040E-213
   9.72562500000000         2.115675782010187E-207
   9.93937500000000         1.548470303475979E-206
   10.1531250000000         3.459302438538775E-202
   10.3668750000000         2.050544291804039E-200
   10.5806250000000         7.640534061547329E-199
   10.7943750000000         2.370519357463346E-197
   11.0081250000000         6.205578857640168E-196
   11.2218750000000         1.349648669366174E-194
   11.4356250000000         2.464629463540728E-193
   11.6493750000000         3.858250613175284E-192
   11.8631250000000         5.262257001298968E-191
   12.0768750000000         6.293797887626745E-190
   12.2906250000000         6.577654850689759E-189
   12.5043750000000         5.921541037131829E-188
   12.7181250000000         4.444156239599814E-187
   12.9318750000000         2.549689517664408E-186
   13.1456250000000         7.473645069740060E-186
   13.3593750000000        -5.690480300815677E-185
   13.5731250000000        -1.249991758559421E-183
   13.7868750000000        -1.378002654129179E-182
   14.0006250000000        -1.160957721095721E-181
   14.2143750000000        -8.136534074236143E-181
   14.4281250000000        -4.853433909943129E-180
   14.6418750000000        -2.441369810787621E-179
   14.8556250000000        -9.775858349292424E-179
   15.0693750000000        -2.416049773384236E-178
   15.2831250000000         4.841474699513275E-178
   15.4968750000000         1.162608803804738E-176
   15.7106250000000         9.898045441003039E-176
   15.9243750000000         6.354081164566854E-175
   16.1381250000000         3.454409439629491E-174
   16.3518750000000         1.651529422521236E-173
   16.5656250000000         7.024453411373710E-173
   16.7793750000000         2.644713239681031E-172
   16.9931250000000         8.579405377324545E-172
   17.2068750000000         2.205250728071790E-171
   17.4206250000000         3.001326688850218E-171
   17.6343750000000        -1.108213673956565E-170
   17.8481250000000        -1.214735912410425E-169
   18.0618750000000        -6.923385118112989E-169
   18.2756250000000        -3.116797836162887E-168
   18.4893750000000        -1.205807376184186E-167
   18.7031250000000        -4.109420398705340E-167
   18.9168750000000        -1.232381211726318E-166
   19.1306250000000        -3.163580643561726E-166
   19.3443750000000        -6.345253522950987E-166
   19.5581250000000        -6.205753283823190E-166
   19.7718750000000         2.351231193693245E-165
   19.9856250000000         1.836516235203142E-164
   20.1993750000000         7.812403741423294E-164
   20.4131250000000         2.564065260635450E-163
   20.6268750000000         6.831187970812124E-163
   20.8406250000000         1.412240518950384E-162
   21.0543750000000         1.714418251574238E-162
   21.2681250000000        -2.163724824185244E-162
   21.4818750000000        -2.132606302490648E-161
   21.6956250000000        -7.289717001829423E-161
   21.9093750000000        -1.200879991722396E-160
   22.1231250000000         2.810216659209164E-160
   22.3368750000000         3.476962827306255E-159
   22.5506250000000         1.902066671628011E-158
   22.7643750000000         8.019428100056911E-158
   22.9781250000000         2.899401069186444E-157
   23.1918750000000         9.345254959165273E-157
   23.4056250000000         2.728076331557729E-156
   23.6193750000000         7.237097627231170E-156
   23.8331250000000         1.730880754951965E-155
   24.0468750000000         3.636747682464471E-155
   24.2606250000000         6.241684898976830E-155
   24.4743750000000         6.460671064317888E-155
   24.6881250000000        -8.782967827782583E-155
   24.9018750000000        -8.087469315281142E-154
   25.1156250000000        -3.203975761817104E-153
   25.3293750000000        -9.844843159995878E-153
   25.5431250000000        -2.589232294702621E-152
   25.7568750000000        -5.978605359010814E-152
   25.9706250000000        -1.202955293792756E-151
   26.1843750000000        -2.006920198367191E-151
   26.3981250000000        -2.282138812030011E-151
   26.6118750000000         6.424862891117085E-152
   26.8256250000000         1.411602658368670E-150
   27.0393750000000         5.497574885850758E-150
   27.2531250000000         1.557160235462436E-149
   27.4668750000000         3.662589212167505E-149
   27.6806250000000         7.320904583576499E-149
   27.8943750000000         1.200250961681531E-148
   28.1081250000000         1.352668857915007E-148
   28.3218750000000        -2.021265328035613E-149
   28.5356250000000        -6.978506359310603E-148
   28.7493750000000        -2.631900667005464E-147
   28.9631250000000        -7.083394795760859E-147
   29.1768750000000        -1.563949094947306E-146
   29.3906250000000        -2.882004258374983E-146
   29.6043750000000        -4.165492820915667E-146
   29.8181250000000        -3.292428909467668E-146
   30.0318750000000         5.663678531172723E-146
   30.2456250000000         3.610481000680626E-145
   30.4593750000000         1.136127930054970E-144
   30.6731250000000         2.785043547321032E-144
   30.8868750000000         5.765672796783131E-144
   31.1006250000000         1.015606072442890E-143
   31.3143750000000         1.444885619281487E-143
   31.5281250000000         1.289448875167182E-143
   31.7418750000000        -9.414182556037786E-144
   31.9556250000000        -8.406262480780189E-143
   32.1693750000000        -2.677624909557206E-142
   32.3831250000000        -6.447618674499316E-142
   32.5968750000000        -1.305345757231777E-141
   32.8106250000000        -2.263851657654142E-141
   33.0243750000000        -3.253697745782543E-141
   33.2381250000000        -3.312607168664483E-141
   33.4518750000000        -7.519646266417185E-143
   33.6656250000000         1.121977173082690E-140
   33.8793750000000         3.872201182800376E-140
   34.0931250000000         9.406384148475925E-140
   34.3068750000000         1.895520057696434E-139
   34.5206250000000         3.287889937126861E-139
   34.7343750000000         4.850648340087919E-139
   34.9481250000000         5.604028116606134E-139
   35.1618750000000         3.191027737663007E-139
   35.3756250000000        -7.037877359796746E-139
   35.5893750000000        -3.301995809472027E-138
   35.8031250000000        -8.656881209893037E-138
   36.0168750000000        -1.825653923541435E-137
   36.2306250000000        -3.350440872334255E-137
   36.4443750000000        -5.474917260507154E-137
   36.6581250000000        -7.932290938261556E-137
   36.8718750000000        -9.791153442033755E-137
   37.0856250000000        -8.803365523400639E-137
   37.2993750000000        -2.282799167956766E-138
   37.5131250000000         2.530055811207212E-136
   37.7268750000000         8.556785536422231E-136
   37.9406250000000         2.130657397293995E-135
   38.1543750000000         4.639658341968597E-135
   38.3681250000000         9.269530948562149E-135
   38.5818750000000         1.720672170466436E-134
   38.7956250000000         2.949750183840715E-134
   39.0093750000000         4.554124277978558E-134
   39.2231250000000         5.931112366711677E-134
   39.4368750000000         5.142770202149301E-134
   39.6506250000000        -2.517440453433174E-134
   39.8643750000000        -2.673055498838282E-133
   40.0781250000000        -8.482288082813241E-133
   40.2918750000000        -2.034462259176163E-132
   40.5056250000000        -4.154481847291412E-132
   40.7193750000000        -7.440164825483746E-132
   40.9331250000000        -1.160246914778048E-131
   41.1468750000000        -1.493729101325550E-131
   41.3606250000000        -1.272731060400209E-131
   41.5743750000000         5.193752609522620E-132
   41.7881250000000         5.743895221387694E-131
   42.0018750000000         1.733545442907477E-130
   42.2156250000000         3.913703946277152E-130
   42.4293750000000         7.469495572999248E-130
   42.6431250000000         1.239130348351404E-129
   42.8568750000000         1.759710536530458E-129
   43.0706250000000         1.966586354384425E-129
   43.2843750000000         1.088782248786799E-129
   43.4981250000000        -2.323528936612039E-129
   43.7118750000000        -1.062774683639087E-128
   43.9256250000000        -2.709680314799129E-128
   44.1393750000000        -5.530017100888627E-128
   44.3531250000000        -9.715311593640187E-128
   44.5668750000000        -1.485757211028414E-127
   44.7806250000000        -1.914307984183550E-127
   44.9943750000000        -1.805373307081148E-127
   45.2081250000000        -2.569400636789776E-128
   45.4218750000000         4.281910953756048E-127
   45.6356250000000         1.413122957878748E-126
   45.8493750000000         3.220581727486442E-126
   46.0631250000000         6.114536123545847E-126
   46.2768750000000         1.011025068050167E-125
   46.4906250000000         1.452894745498500E-125
   46.7043750000000         1.722763276269218E-125
   46.9181250000000         1.343951740022003E-125
   47.1318750000000        -5.698608008178355E-126
   47.3456250000000        -5.452007487095195E-125
   47.5593750000000        -1.530432484507846E-124
   47.7731250000000        -3.238923551257785E-124
   47.9868750000000        -5.822542444863789E-124
   48.2006250000000        -9.134245028625155E-124
   48.4143750000000        -1.231227910620943E-123
   48.6281250000000        -1.311533653549460E-123
   48.8418750000000        -7.013505553586377E-124
   49.0556250000000         1.379509402142667E-123
   49.2693750000000         6.094009804663885E-123
   49.4831250000000         1.489424398675738E-122
   49.6968750000000         2.909071743712400E-122
   49.9106250000000         4.880097206044063E-122
   50.1243750000000         7.092122279279972E-122
   50.3381250000000         8.579795528483989E-122
   50.5518750000000         7.256487280278113E-122
   50.7656250000000        -6.119460579993777E-123
   50.9793750000000        -2.076626178825361E-121
   51.1931250000000        -6.066312580321256E-121
   51.4068750000000        -1.276916327104353E-120
   51.6206250000000        -2.246460275936995E-120
   51.8343750000000        -3.409203319244748E-120
   52.0481250000000        -4.380907390687746E-120
   52.2618750000000        -4.298444499831050E-120
   52.4756250000000        -1.594699804422400E-120
   52.6893750000000         6.156497220121234E-120
   52.9031250000000         2.213150309230031E-119
   53.1168750000000         4.955641934397527E-119
   53.3306250000000         8.994646043961073E-119
   53.5443750000000         1.397379374795534E-118
   53.7581250000000         1.848828983097346E-118
   53.9718750000000         1.935011420107544E-118
   54.1856250000000         1.078973635881356E-118
   54.3993750000000        -1.605568542322990E-118
   54.6131250000000        -7.268517352902155E-118
   54.8268750000000        -1.707049594501932E-117
   55.0406250000000        -3.157235853485415E-117
   55.2543750000000        -4.960267371895672E-117
   55.4681250000000        -6.649341897525817E-117
   55.6818750000000        -7.176035732500664E-117
   55.8956250000000        -4.669899634940817E-117
   56.1093750000000         3.696205083784274E-117
   56.3231250000000         2.152474223334908E-116
   56.5368750000000         5.237253929859315E-116
   56.7506250000000         9.787206446274024E-116
   56.9643750000000         1.543729962444789E-115
   57.1781250000000         2.078868354732693E-115
   57.3918750000000         2.276915996672958E-115
   57.6056250000000         1.600757237905049E-115
   57.8193750000000        -7.450188164485460E-116
   58.0331250000000        -5.751323024225540E-115
   58.2468750000000        -1.436712640881455E-114
   58.4606250000000        -2.698557920136413E-114
   58.6743750000000        -4.256032677578028E-114
   58.8881250000000        -5.732224961170251E-114
   59.1018750000000        -6.322157145590165E-114
   59.3156250000000        -4.650159481313174E-114
   59.5293750000000         1.276415772520098E-114
   59.7431250000000         1.387993279838389E-113
   59.9568750000000         3.540069442655935E-113
   60.1706250000000         6.664145034049351E-113
   60.3843750000000         1.048889615361256E-112
   60.5981250000000         1.410019102221059E-112
   60.8118750000000         1.560221014746115E-112
   61.0256250000000         1.182930311103877E-112
   61.2393750000000        -1.703218682660150E-113
   61.4531250000000        -3.031403492989286E-112
   61.6668750000000        -7.874511986387089E-112
   61.8806250000000        -1.484039160702344E-111
   62.0943750000000        -2.329592569578489E-111
   62.3081250000000        -3.123810981500076E-111
   62.5218750000000        -3.462927853932836E-111
   62.7356250000000        -2.687593056178752E-111
   62.9493750000000         1.166001929981212E-112
   63.1631250000000         6.008577029746274E-111
   63.3768750000000         1.589872953458337E-110
   63.5906250000000         3.000031718308131E-110
   63.8043750000000         4.698208563417959E-110
   64.0181250000000         6.285850384705804E-110
   64.2318750000000         6.980248876230347E-110
   64.4456250000000         5.529285963166619E-110
   64.6593750000000         2.302779890526462E-111
   64.8731250000000        -1.084563214038705E-109
   65.0868750000000        -2.930104241707012E-109
   65.3006250000000        -5.541669246391039E-109
   65.5143750000000        -8.665932097006324E-109
   65.7281250000000        -1.157859138098765E-108
   65.9418750000000        -1.288945598698587E-108
   66.1556250000000        -1.041486783195721E-108
   66.3693750000000        -1.236608810072580E-109
   66.5831250000000         1.788797291874682E-108
   66.7968750000000         4.957409237209862E-108
   67.0106250000000         9.414908094938201E-108
   67.2243750000000         1.472289900565216E-107
   67.4381250000000         1.967219297970388E-107
   67.6518750000000         2.198566396983466E-107
   67.8656250000000         1.814097146637670E-107
   68.0793750000000         3.498462260434464E-108
   68.2931250000000        -2.701799443843731E-107
   68.5068750000000        -7.741169723359861E-107
   68.7206250000000        -1.480501764588654E-106
   68.9343750000000        -2.320070110871290E-106
   69.1481250000000        -3.106398355026324E-106
   69.3618750000000        -3.493365346626890E-106
   69.5756250000000        -2.951780324423694E-106
   69.7893750000000        -7.919559772547989E-107
   70.0031250000000         3.732961665684401E-106
   70.2168750000000         1.120545295455077E-105
   70.4306250000000         2.167509429990182E-105
   70.6443750000000         3.414143582858751E-105
   70.8581250000000         4.593934236647924E-105
   71.0718750000000         5.216003715063250E-105
   71.2856250000000         4.534983503725902E-105
   71.4993750000000         1.584870172251871E-105
   71.7131250000000        -4.677044365727514E-105
   71.9268750000000        -1.506776479027746E-104
   72.1406250000000        -2.968211172306345E-104
   72.3543750000000        -4.720338073231849E-104
   72.5681250000000        -6.409139962585728E-104
   72.7818750000000        -7.382369706916868E-104
   72.9956250000000        -6.650247390112808E-104
   73.2093750000000        -2.928851139409239E-104
   73.4231250000000         5.175830520299807E-104
   73.6368750000000         1.878302322977004E-103
   73.8506250000000         3.810786053656030E-103
   74.0643750000000         6.158980383229838E-103
   74.2781250000000         8.486538163406388E-103
   74.4918750000000         9.979937058993091E-103
   74.7056250000000         9.395283056322942E-103
   74.9193750000000         5.104349070425828E-103
   75.1331250000000        -4.690445999712609E-103
   75.3468750000000        -2.149949949549055E-102
   75.5606250000000        -4.579401689282162E-102
   75.7743750000000        -7.595682220829431E-102
   75.9881250000000        -1.070306951040227E-101
   76.2018750000000        -1.295047347617978E-101
   76.4156250000000        -1.285677953226315E-101
   76.6293750000000        -8.446352202412242E-102
   76.8431250000000         2.524831270719694E-102
   77.0568750000000         2.206679545035917E-101
   77.2706250000000         5.110931422421537E-101
   77.4843750000000         8.829839882537870E-101
   77.6981250000000         1.285247003486335E-100
   77.9118750000000         1.614305863245436E-100
   78.1256250000000         1.703500954271796E-100
   78.3393750000000         1.323685567479478E-100
   78.5531250000000         2.039434917116709E-101
   78.7668750000000        -1.917707094730296E-100
   78.9806250000000        -5.205107699624247E-100
   79.1943750000000        -9.592768818948642E-100
   79.4081250000000        -1.461929689783513E-099
   79.6218750000000        -1.924809069740019E-099
   79.8356250000000        -2.171980494458986E-099
   80.0493750000000        -1.950669735313321E-099
   80.2631250000000        -9.463660263506974E-100
   80.4768750000000         1.171355813625437E-099
   80.6906250000000         4.661729956462125E-099
   80.9043750000000         9.577832672389711E-099
   81.1181250000000         1.558618903272861E-098
   81.3318750000000         2.175866275332677E-098
   81.5456250000000         2.637624174807228E-098
   81.7593750000000         2.681160711368595E-098
   81.9731250000000         1.958627766127874E-098
   82.1868750000000         7.216193419008248E-100
   82.4006250000000        -3.348971797167329E-098
   82.6143750000000        -8.518871990079966E-098
   82.8281250000000        -1.530986615123800E-097
   83.0418750000000        -2.302186257520303E-097
   83.2556250000000        -3.013701610135536E-097
   83.4693750000000        -3.411833869136492E-097
   83.6831250000000        -3.134337066563381E-097
   83.8968750000000        -1.729567927074309E-097
   84.1106250000000         1.284166780798742E-097
   84.3243750000000         6.304910241171296E-097
   84.5381250000000         1.346924816533844E-096
   84.7518750000000         2.241109893051405E-096
   84.9656250000000         3.197602723914974E-096
   85.1793750000000         3.993684624855716E-096
   85.3931250000000         4.279086968963406E-096
   85.6068750000000         3.575788782375911E-096
   85.8206250000000         1.313323351184195E-096
   86.0343750000000        -3.083014702313947E-096
   86.2481250000000        -1.003502789931602E-095
   86.4618750000000        -1.957632751001448E-095
   86.6756250000000        -3.104426151031669E-095
   86.8893750000000        -4.272865516278345E-095
   87.1031250000000        -5.154154553909143E-095
   87.3168750000000        -5.281539415583275E-095
   87.5306250000000        -4.038398227164400E-095
   87.7443750000000        -7.140015667950234E-096
   87.9581250000000         5.371993315301189E-095
   88.1718750000000         1.465815463331405E-094
   88.3856250000000         2.703499321430065E-094
   88.5993750000000         4.145593683149028E-094
   88.8131250000000         5.550991652418132E-094
   89.0268750000000         6.504443604853740E-094
   89.2406250000000         6.398184851183825E-094
   89.4543750000000         4.452687881440521E-094
   89.6681250000000        -1.994111231067790E-095
   89.8818750000000        -8.341368543648381E-094
   90.0956250000000        -2.039304266146688E-093
   90.3093750000000        -3.602000747436415E-093
   90.5231250000000        -5.365452991960722E-093
   90.7368750000000        -6.999404167840618E-093
   90.9506250000000        -7.959854504797786E-093
   91.1643750000000        -7.477255308158430E-093
   91.3781250000000        -4.597806043486635E-093
   91.5918750000000         1.693677734103409E-093
   91.8056250000000         1.224208056395728E-092
   92.0193750000000         2.736393786526371E-092
   92.2331250000000         4.636726436467704E-092
   92.4468750000000         6.699033390223111E-092
   92.6606250000000         8.485327790417463E-092
   92.8743750000000         9.308228194633530E-092
   93.0881250000000         8.233659186323750E-092
   93.3018750000000         4.152731114311944E-092
   93.5156250000000        -4.046072568453915E-092
   93.7293750000000        -1.717796981900357E-091
   93.9431250000000        -3.532516423112448E-091
   94.1568750000000        -5.728086786646477E-091
   94.3706250000000        -7.993852420593273E-091
   94.5843750000000        -9.775216897516555E-091
   94.7981250000000        -1.024652228136833E-090
   95.0118750000000        -8.337381639927771E-091
   95.2256250000000        -2.843641028068967E-091
   95.4393750000000         7.346491387456543E-091
   95.6531250000000         2.288997107993252E-090
   95.8668750000000         4.349062304800386E-090
   96.0806250000000         6.730241452978726E-090
   96.2943750000000         9.032437679462350E-090
   96.5081250000000         1.059426514962678E-089
   96.7218750000000         1.048444828391492E-089
   96.9356250000000         7.558640669155276E-090
   97.1493750000000         6.120782087142842E-091
   97.3631250000000        -1.134591669860539E-089
   97.5768750000000        -2.868389840042487E-089
   97.7906250000000        -5.062230539239855E-089
   98.0043750000000        -7.464684562664361E-089
   98.2181250000000        -9.597364154483705E-089
   98.4318750000000        -1.072413104419497E-088
   98.6456250000000        -9.866437087879115E-089
   98.8593750000000        -5.892002940308813E-089
   99.0731250000000         2.296779506899948E-089
   99.2868750000000         1.545658615629877E-088
   99.5006250000000         3.357937521065685E-088
   99.7143750000000         5.538205689457655E-088
   99.9281250000000         7.778349733000928E-088
   100.141875000000         9.549483008906203E-088
   100.355625000000         1.009028975984698E-087
   100.569375000000         8.446950503110893E-088
   100.783125000000         3.588286346651100E-088
   100.996875000000        -5.384030218435697E-088
   101.210625000000        -1.892166403565109E-087
   101.424375000000        -3.662446374301957E-087
   101.638125000000        -5.678728036771704E-087
   101.851875000000        -7.598206297757368E-087
   102.065625000000        -8.880301575789503E-087
   102.279375000000        -8.794317056804434E-087
   102.493125000000        -6.479467943112488E-087
   102.706875000000        -1.075595407022600E-087
   102.920625000000         8.063204117327836E-087
   103.134375000000         2.107276136262276E-086
   103.348125000000         3.722244305332178E-086
   103.561875000000         5.454834647535370E-086
   103.775625000000         6.956009122526656E-086
   103.989375000000         7.713926292299493E-086
   104.203125000000         7.077349438585340E-086
   104.416875000000         4.327661108024692E-086
   104.630625000000        -1.188128378807745E-086
   104.844375000000        -9.858304002929650E-086
   105.058125000000        -2.154923492579633E-085
   105.271875000000        -3.531693644602139E-085
   105.485625000000        -4.913822295356179E-085
   105.699375000000        -5.973827238391757E-085
   105.913125000000        -6.261446305775498E-085
   106.126875000000        -5.236907726253596E-085
   106.340625000000        -2.345668337026331E-085
   106.554375000000         2.858423532708678E-085
   106.768125000000         1.054202551604816E-084
   106.981875000000         2.038546968795839E-084
   107.195625000000         3.136813537313854E-084
   107.409375000000         4.159226951431844E-084
   107.623125000000         4.820954872881716E-084
   107.836875000000         4.752803433744371E-084
   108.050625000000         3.537995183533447E-084
   108.264375000000         7.816161896705813E-085
   108.478125000000        -3.784527534958258E-084
   108.691875000000        -1.016560844731480E-083
   108.905625000000        -1.794961989108443E-083
   109.119375000000        -2.616091118039861E-083
   109.333125000000        -3.315979393625880E-083
   109.546875000000        -3.663780478207113E-083
   109.760625000000        -3.376427323897045E-083
   109.974375000000        -2.153646524143284E-083
   110.188125000000         2.631763813525209E-084
   110.401875000000         4.008297413148890E-083
   110.615625000000         8.990566496795472E-083
   110.829375000000         1.478677915435185E-082
   111.043125000000         2.055055854569519E-082
   111.256875000000         2.496610867312425E-082
   111.470625000000         2.628224926614128E-082
   111.684375000000         2.246351899122952E-082
   111.898125000000         1.148893863644688E-082
   112.111875000000        -8.187463241139512E-083
   112.325625000000        -3.702891086256055E-082
   112.539375000000        -7.371642006279614E-082
   112.753125000000        -1.144637755461139E-081
   112.966875000000        -1.525073706550730E-081
   113.180625000000        -1.779789847830992E-081
   113.394375000000        -1.783964452950865E-081
   113.608125000000        -1.399961635724619E-081
   113.821875000000        -5.006509895527965E-082
   114.035625000000         9.970684639235748E-082
   114.249375000000         3.090464582486360E-081
   114.463125000000         5.645650425694518E-081
   114.676875000000         8.356789943276301E-081
   114.890625000000         1.072111855397076E-080
   115.104375000000         1.204353501768241E-080
   115.318125000000         1.148527555423206E-080
   115.531875000000         8.169169891644217E-081
   115.745625000000         1.348213172557987E-081
   115.959375000000        -9.366010692412345E-081
   116.173125000000        -2.373321145977132E-080
   116.386875000000        -4.060904497453384E-080
   116.600625000000        -5.772081257551169E-080
   116.814375000000        -7.156830375412329E-080
   117.028125000000        -7.753486969504435E-080
   117.241875000000        -7.029218147974225E-080
   117.455625000000        -4.456187210316062E-080
   117.669375000000         3.746621336340663E-081
   117.883125000000         7.607266780854349E-080
   118.096875000000         1.695603357374815E-079
   118.310625000000         2.754888401601074E-079
   118.524375000000         3.781442022797852E-079
   118.738125000000         4.545880792702571E-079
   118.951875000000         4.758172762233660E-079
   119.165625000000         4.097600280134512E-079
   119.379375000000         2.263911965785075E-079
   119.593125000000        -9.505432579853966E-080
   119.806875000000        -5.572366245022428E-079
   120.020625000000        -1.135266008638005E-078
   120.234375000000        -1.768314797131181E-078
   120.448125000000        -2.354524570955239E-078
   120.661875000000        -2.751847896432576E-078
   120.875625000000        -2.787511249242611E-078
   121.089375000000        -2.278303765030218E-078
   121.303125000000        -1.062732492678669E-078
   121.516875000000         9.558441636979787E-079
   121.730625000000         3.758652136770430E-078
   121.944375000000         7.160241642541858E-078
   122.158125000000         1.076657961785422E-077
   122.371875000000         1.395536448241563E-077
   122.585625000000         1.589296046521954E-077
   122.799375000000         1.560167170197278E-077
   123.013125000000         1.208731314378326E-077
   123.226875000000         4.529525399008284E-078
   123.440625000000        -7.474180390785421E-078
   123.654375000000        -2.363457251806669E-077
   123.868125000000        -4.270790383934428E-077