  -1.60312500000000         0.000000000000000E+000
  -1.38937500000000        -1.871255848224767E-012
  -1.17562500000000        -1.307218562615519E-011
 -0.961875000000000        -6.249908534085664E-011
 -0.748125000000000        -2.409748903387598E-010
 -0.534375000000000        -7.802066877388645E-010
 -0.320625000000000        -2.159152913889093E-009
 -0.106875000000000        -5.180357699126592E-009
  0.106875000000000        -1.093045803596229E-008
  0.320625000000000        -2.058737064916590E-008
  0.534375000000000        -3.515647857711307E-008
  0.748125000000000        -5.528091250785823E-008
  0.961875000000000        -8.112672314778288E-008
   1.17562500000000        -1.125121063734558E-007
   1.38937500000000        -1.490289275064087E-007
   1.60312500000000        -1.899519275820664E-007
   1.81687500000000        -2.343544782662844E-007
   2.03062500000000        -2.811588777475563E-007
   2.24437500000000        -3.281174365525488E-007
   2.45812500000000        -3.762005912892942E-007
   2.67187500000000        -4.220384389682495E-007
   2.88562500000000        -4.673862110832974E-007
   3.09937500000000        -5.098752854076700E-007
   3.31312500000000        -5.480860858695540E-007
   3.52687500000000        -5.816137124672353E-007
   3.74062500000000        -6.100585689628088E-007
   3.95437500000000        -6.331286996142387E-007
   4.16812500000000        -6.505736159780467E-007
   4.38187500000000        -6.620094829392712E-007
   4.59562500000000        -6.672035373903552E-007
   4.80937500000000        -6.668477827344180E-007
   5.02312500000000        -6.614775870319131E-007
   5.23687500000000        -6.510621764802393E-007
   5.45062500000000        -6.364895153367437E-007
   5.66437500000000        -6.188528416225246E-007
   5.87812500000000        -5.995054051554455E-007
   6.09187500000000        -5.800274858757486E-007
   6.30562500000000        -5.619141470095060E-007
   6.51937500000000        -5.467990765572659E-007
   6.73312500000000        -5.376136577799441E-007
   6.94687500000000        -5.330604106010437E-007
   7.16062500000000        -5.372059013450060E-007
   7.37437500000000        -5.495592255381732E-007
   7.58812500000000        -5.694667055817836E-007
   7.80187500000000        -5.957824573020560E-007
   8.01562500000000        -6.266006268094249E-007
   8.22937500000000        -6.594503617822972E-007
   8.44312500000000        -6.914338958472089E-007
   8.65687500000000        -7.196403340269978E-007
   8.87062500000000        -7.412514639763845E-007
   9.08437500000000        -7.539312432644832E-007
   9.29812500000000        -7.558324347363065E-007
   9.51187500000000        -7.462652317519815E-007
   9.72562500000000        -7.244042965834731E-007
   9.93937500000000        -6.919818802461949E-007
   10.1531250000000        -6.508768560553152E-007
   10.3668750000000        -6.034653439293097E-007
   10.5806250000000        -5.527074074601877E-007
   10.7943750000000        -5.016453287847183E-007
   11.0081250000000        -4.531739428255494E-007
   11.2218750000000        -4.130777326098915E-007
   11.4356250000000        -3.761210646500127E-007
   11.6493750000000        -3.524394368468676E-007
   11.8631250000000        -3.305075621225928E-007
   12.0768750000000        -3.243188950342575E-007
   12.2906250000000        -3.174876540494031E-007
   12.5043750000000        -3.232244922016212E-007
   12.7181250000000        -3.256802018416175E-007
   12.9318750000000        -3.349889671221304E-007
   13.1456250000000        -3.400563156544752E-007
   13.3593750000000        -3.472631989826460E-007
   13.5731250000000        -3.531362883482107E-007
   13.7868750000000        -3.574357964119388E-007
   14.0006250000000        -3.598335302340159E-007
   14.2143750000000        -3.605007845931614E-007
   14.4281250000000        -3.599252792946229E-007
   14.6418750000000        -3.587948035489441E-007
   14.8556250000000        -3.576305622485918E-007
   15.0693750000000        -3.569642643656266E-007
   15.2831250000000        -3.571664682913586E-007
   15.4968750000000        -3.584672153432136E-007
   15.7106250000000        -3.616018528624710E-007
   15.9243750000000        -3.644559120105223E-007
   16.1381250000000        -3.667725256586127E-007
   16.3518750000000        -3.676851930142922E-007
   16.5656250000000        -3.671593187207749E-007
   16.7793750000000        -3.644571760425783E-007
   16.9931250000000        -3.588285827149846E-007
   17.2068750000000        -3.496977723228597E-007
   17.4206250000000        -3.337898321927189E-007
   17.6343750000000        -3.141424283561959E-007
   17.8481250000000        -3.001747229794962E-007
   18.0618750000000        -2.783712582530124E-007
   18.2756250000000        -2.651220795105652E-007
   18.4893750000000        -2.442392935988609E-007
   18.7031250000000        -2.286745428570719E-007
   18.9168750000000        -2.088655169590681E-007
   19.1306250000000        -1.885501892112031E-007
   19.3443750000000        -1.657307053165955E-007
   19.5581250000000        -1.402174320654873E-007
   19.7718750000000        -1.124609077869545E-007
   19.9856250000000        -8.335365701282815E-008
   20.1993750000000        -5.413806259576087E-008
   20.4131250000000        -2.652303273094260E-008
   20.6268750000000        -2.557423040135203E-009
   20.8406250000000         1.504449299161743E-008
   21.0543750000000         2.417756775353228E-008
   21.2681250000000         2.329499664794270E-008
   21.4818750000000         1.139517457312148E-008
   21.6956250000000        -1.308273902582353E-008
   21.9093750000000        -4.952560222159011E-008
   22.1231250000000        -9.670228468601983E-008
   22.3368750000000        -1.524478677636532E-007
   22.5506250000000        -2.139156410544595E-007
   22.7643750000000        -2.780740488859753E-007
   22.9781250000000        -3.412385346163905E-007
   23.1918750000000        -4.002797304746790E-007
   23.4056250000000        -4.530175255728602E-007
   23.6193750000000        -4.976301416754143E-007
   23.8331250000000        -5.334570582937034E-007
   24.0468750000000        -5.604704918896401E-007
   24.2606250000000        -5.792346538595440E-007
   24.4743750000000        -5.905670109690911E-007
   24.6881250000000        -5.955286844312208E-007
   24.9018750000000        -5.954743519114302E-007
   25.1156250000000        -5.915342957123774E-007
   25.3293750000000        -5.849457417183728E-007
   25.5431250000000        -5.742621263195143E-007
   25.7568750000000        -5.625768552464273E-007
   25.9706250000000        -5.501245405020002E-007
   26.1843750000000        -5.406468817662441E-007
   26.3981250000000        -5.216838692582799E-007
   26.6118750000000        -5.095534279934646E-007
   26.8256250000000        -4.874169065199778E-007
   27.0393750000000        -4.729872218107848E-007
   27.2531250000000        -4.522387174220632E-007
   27.4668750000000        -4.355652627807962E-007
   27.6806250000000        -4.226473682471954E-007
   27.8943750000000        -4.137403249514564E-007
   28.1081250000000        -4.085277357283559E-007
   28.3218750000000        -4.074902295553704E-007
   28.5356250000000        -4.094430241203768E-007
   28.7493750000000        -4.127629014978545E-007
   28.9631250000000        -4.153516195148516E-007
   29.1768750000000        -4.152789570351234E-007
   29.3906250000000        -4.104999569206741E-007
   29.6043750000000        -3.994983748285005E-007
   29.8181250000000        -3.817278825803688E-007
   30.0318750000000        -3.570876631628471E-007
   30.2456250000000        -3.243309959285067E-007
   30.4593750000000        -2.872153079983722E-007
   30.6731250000000        -2.461925768978002E-007
   30.8868750000000        -2.031557370520658E-007
   31.1006250000000        -1.601756478832353E-007
   31.3143750000000        -1.189785841103998E-007
   31.5281250000000        -8.091531826434566E-008
   31.7418750000000        -4.662161748103036E-008
   31.9556250000000        -1.611188695428311E-008
   32.1693750000000         1.128014254286256E-008
   32.3831250000000         3.670334418554219E-008
   32.5968750000000         6.124253241641692E-008
   32.8106250000000         8.695444065632546E-008
   33.0243750000000         1.146551825001447E-007
   33.2381250000000         1.448484617694145E-007
   33.4518750000000         1.772548584236001E-007
   33.6656250000000         2.107405776688158E-007
   33.8793750000000         2.433686896694181E-007
   34.0931250000000         2.725482824163486E-007
   34.3068750000000         2.953716278790809E-007
   34.5206250000000         3.085950283566305E-007
   34.7343750000000         3.103436427549453E-007
   34.9481250000000         2.987525367264935E-007
   35.1618750000000         2.728457297909548E-007
   35.3756250000000         2.329355342175770E-007
   35.5893750000000         1.807218403827204E-007
   35.8031250000000         1.190509081849161E-007
   36.0168750000000         5.163923236702910E-008
   36.2306250000000        -1.740826431849164E-008
   36.4443750000000        -8.390061145561416E-008
   36.6581250000000        -1.438341628511599E-007
   36.8718750000000        -1.975839712222838E-007
   37.0856250000000        -2.319764485994201E-007
   37.2993750000000        -2.561976933016352E-007
   37.5131250000000        -2.629730679230834E-007
   37.7268750000000        -2.655926707118262E-007
   37.9406250000000        -2.473616995274615E-007
   38.1543750000000        -2.235079744245305E-007
   38.3681250000000        -1.938271216891060E-007
   38.5818750000000        -1.604996851285124E-007
   38.7956250000000        -1.255727766402500E-007
   39.0093750000000        -9.068968398751564E-008
   39.2231250000000        -5.667221642524402E-008
   39.4368750000000        -2.420712439190242E-008
   39.6506250000000         9.549189819517940E-009
   39.8643750000000         3.601245292979270E-008
   40.0781250000000         5.812838859155765E-008
   40.2918750000000         7.421261192623243E-008
   40.5056250000000         8.226419387656049E-008
   40.7193750000000         8.129164934876682E-008
   40.9331250000000         6.649820082438637E-008
   41.1468750000000         4.897888646147049E-008
   41.3606250000000         1.443325611164464E-008
   41.5743750000000        -2.855041457593260E-008
   41.7881250000000        -7.858393567401886E-008
   42.0018750000000        -1.336057730002376E-007
   42.2156250000000        -1.905251887260345E-007
   42.4293750000000        -2.456821239561815E-007
   42.6431250000000        -2.954554810278616E-007
   42.8568750000000        -3.381311076638242E-007
   43.0706250000000        -3.598051600573723E-007
   43.2843750000000        -3.695944464223084E-007
   43.4981250000000        -3.554661640992976E-007
   43.7118750000000        -3.238806371389192E-007
   43.9256250000000        -2.753530855627254E-007
   44.1393750000000        -2.118981805100927E-007
   44.3531250000000        -1.366009458048654E-007
   44.5668750000000        -5.327249952300675E-008
   44.7806250000000         3.410486613063332E-008
   44.9943750000000         1.216883419530580E-007
   45.2081250000000         2.060072910439704E-007
   45.4218750000000         2.843229934224335E-007
   45.6356250000000         3.546196861108229E-007
   45.8493750000000         4.156360615214524E-007
   46.0631250000000         4.667941623110880E-007
   46.2768750000000         5.080230418547930E-007
   46.4906250000000         5.394513045405831E-007
   46.7043750000000         5.614990553325304E-007
   46.9181250000000         5.742718044304278E-007
   47.1318750000000         5.782386292876221E-007
   47.3456250000000         5.724108228023090E-007
   47.5593750000000         5.543164648655843E-007
   47.7731250000000         5.285158586073332E-007
   47.9868750000000         4.910615448129590E-007
   48.2006250000000         4.497448896169573E-007
   48.4143750000000         3.968253223150207E-007
   48.6281250000000         3.419116949665448E-007
   48.8418750000000         2.840682651437941E-007
   49.0556250000000         2.286548360802826E-007
   49.2693750000000         1.745246132278686E-007
   49.4831250000000         1.256198871882513E-007
   49.6968750000000         8.477953857637418E-008
   49.9106250000000         5.406217496764913E-008
   50.1243750000000         3.509599104616344E-008
   50.3381250000000         2.859105113253780E-008
   50.5518750000000         3.485155650176397E-008
   50.7656250000000         5.719601973443051E-008
   50.9793750000000         8.382597800977235E-008
   51.1931250000000         1.236306474257345E-007
   51.4068750000000         1.626073033862709E-007
   51.6206250000000         2.098537609538865E-007
   51.8343750000000         2.511064036212656E-007
   52.0481250000000         2.957375286411274E-007
   52.2618750000000         3.303403622470576E-007
   52.4756250000000         3.630763161837225E-007
   52.6893750000000         3.881143179028538E-007
   52.9031250000000         4.053164097099494E-007
   53.1168750000000         4.172010615931919E-007
   53.3306250000000         4.223619713606051E-007
   53.5443750000000         4.221693369129410E-007
   53.7581250000000         4.172662086348725E-007
   53.9718750000000         4.085115384307822E-007
   54.1856250000000         3.967890729824205E-007
   54.3993750000000         3.832128001630195E-007
   54.6131250000000         3.688903024640042E-007
   54.8268750000000         3.549631113957729E-007
   55.0406250000000         3.425404401104954E-007
   55.2543750000000         3.326814767560734E-007
   55.4681250000000         3.263360908588086E-007
   55.6818750000000         3.243070782542545E-007
   55.8956250000000         3.271262454452879E-007
   56.1093750000000         3.351393607404597E-007
   56.3231250000000         3.485979196350497E-007
   56.5368750000000         3.668809681761107E-007
   56.7506250000000         3.877123561935227E-007
   56.9643750000000         4.133199566792487E-007
   57.1781250000000         4.418468394901768E-007
   57.3918750000000         4.725332950123306E-007
   57.6056250000000         5.045176344094525E-007
   57.8193750000000         5.368311313452870E-007
   58.0331250000000         5.682276098643396E-007
   58.2468750000000         5.982199950252721E-007
   58.4606250000000         6.262800164443875E-007
   58.6743750000000         6.520671666453173E-007
   58.8881250000000         6.718795350708789E-007
   59.1018750000000         6.932349463241213E-007
   59.3156250000000         7.055277492185695E-007
   59.5293750000000         7.200579495405035E-007
   59.7431250000000         7.313728024836953E-007
   59.9568750000000         7.412158175632961E-007
   60.1706250000000         7.501436646756436E-007
   60.3843750000000         7.578202731242638E-007
   60.5981250000000         7.646150265703886E-007
   60.8118750000000         7.706198496749969E-007
   61.0256250000000         7.792661489282312E-007
   61.2393750000000         7.787745119471988E-007
   61.4531250000000         7.855079457259426E-007
   61.6668750000000         7.863751798689393E-007
   61.8806250000000         7.842735770153555E-007
   62.0943750000000         7.797431729819765E-007
   62.3081250000000         7.729467660553829E-007
   62.5218750000000         7.646629471871537E-007
   62.7356250000000         7.536898515073290E-007
   62.9493750000000         7.437634735061490E-007
   63.1631250000000         7.234697783260843E-007
   63.3768750000000         7.031482218227701E-007
   63.5906250000000         6.726538962348889E-007
   63.8043750000000         6.375643671993696E-007
   64.0181250000000         6.027523399009363E-007
   64.2318750000000         5.574370499316456E-007
   64.4456250000000         5.099715148035308E-007
   64.6593750000000         4.628570179879303E-007
   64.8731250000000         4.185588500090451E-007
   65.0868750000000         3.802907414892173E-007
   65.3006250000000         3.514269432237849E-007
   65.5143750000000         3.351765297435227E-007
   65.7281250000000         3.353829538063241E-007
   65.9418750000000         3.521192476633443E-007
   66.1556250000000         3.868193900611938E-007
   66.3693750000000         4.398883155388308E-007
   66.5831250000000         5.076270324518936E-007
   66.7968750000000         5.868213668099479E-007
   67.0106250000000         6.729409988908195E-007
   67.2243750000000         7.607666594313073E-007
   67.4381250000000         8.450745676366434E-007
   67.6518750000000         9.250315596031779E-007
   67.8656250000000         9.854754204553189E-007
   68.0793750000000         1.037607395831735E-006
   68.2931250000000         1.066943295291405E-006
   68.5068750000000         1.083398339863497E-006
   68.7206250000000         1.081271718556873E-006
   68.9343750000000         1.070219632246586E-006
   69.1481250000000         1.051733470503233E-006
   69.3618750000000         1.029300643785027E-006
   69.5756250000000         1.006071672295927E-006
   69.7893750000000         9.844544837278656E-007
   70.0031250000000         9.658552629518660E-007
   70.2168750000000         9.507158921732427E-007
   70.4306250000000         9.386836306219872E-007
   70.6443750000000         9.292778528424222E-007
   70.8581250000000         9.206778305549816E-007
   71.0718750000000         9.117775022984181E-007
   71.2856250000000         9.029296512764493E-007
   71.4993750000000         8.903940917546648E-007
   71.7131250000000         8.880531386291434E-007
   71.9268750000000         8.856668604572885E-007
   72.1406250000000         8.963800988439657E-007
   72.3543750000000         9.131709301817036E-007
   72.5681250000000         9.489937018854697E-007
   72.7818750000000         9.995370334724656E-007
   72.9956250000000         1.061711658749062E-006
   73.2093750000000         1.139347294718555E-006
   73.4231250000000         1.227709475934628E-006
   73.6368750000000         1.320579875573898E-006
   73.8506250000000         1.412387062651078E-006
   74.0643750000000         1.496984974849072E-006
   74.2781250000000         1.568515055026190E-006
   74.4918750000000         1.622252209260078E-006
   74.7056250000000         1.654873857475734E-006
   74.9193750000000         1.665450575821375E-006
   75.1331250000000         1.652692229019141E-006
   75.3468750000000         1.616261702894089E-006
   75.5606250000000         1.570962704042224E-006
   75.7743750000000         1.509551184510619E-006
   75.9881250000000         1.447433677138383E-006
   76.2018750000000         1.386361747908188E-006
   76.4156250000000         1.332351197390555E-006
   76.6293750000000         1.284667555233993E-006
   76.8431250000000         1.245574879532252E-006
   77.0568750000000         1.215151759728274E-006
   77.2706250000000         1.192063909341071E-006
   77.4843750000000         1.174380501981506E-006
   77.6981250000000         1.165529181811460E-006
   77.9118750000000         1.149207832100646E-006
   78.1256250000000         1.139756778654722E-006
   78.3393750000000         1.117891111292488E-006
   78.5531250000000         1.103307654484092E-006
   78.7668750000000         1.077182096440078E-006
   78.9806250000000         1.061196522170310E-006
   79.1943750000000         1.040155055936300E-006
   79.4081250000000         1.028165139267867E-006
   79.6218750000000         1.024623753518494E-006
   79.8356250000000         1.032171104456358E-006
   80.0493750000000         1.050093195204672E-006
   80.2631250000000         1.078240359321309E-006
   80.4768750000000         1.113801605340867E-006
   80.6906250000000         1.154203577922902E-006
   80.9043750000000         1.196244014504947E-006
   81.1181250000000         1.231871931923706E-006
   81.3318750000000         1.269784973034169E-006
   81.5456250000000         1.296853467445864E-006
   81.7593750000000         1.320820061820505E-006
   81.9731250000000         1.335805948271051E-006
   82.1868750000000         1.338578949216819E-006
   82.4006250000000         1.342715451422990E-006
   82.6143750000000         1.339880289171290E-006
   82.8281250000000         1.337619384044163E-006
   83.0418750000000         1.334819384452409E-006
   83.2556250000000         1.335305062094145E-006
   83.4693750000000         1.338647795903585E-006
   83.6831250000000         1.346117516466141E-006
   83.8968750000000         1.358748511594345E-006
   84.1106250000000         1.379251227704298E-006
   84.3243750000000         1.397179838125139E-006
   84.5381250000000         1.423679398914630E-006
   84.7518750000000         1.444545963456722E-006
   84.9656250000000         1.466060258845225E-006
   85.1793750000000         1.485418337776119E-006
   85.3931250000000         1.503394509512530E-006
   85.6068750000000         1.517451679277216E-006
   85.8206250000000         1.537124016418198E-006
   86.0343750000000         1.554877678298066E-006
   86.2481250000000         1.580428234870176E-006
   86.4618750000000         1.612959955349959E-006
   86.6756250000000         1.653713486582302E-006
   86.8893750000000         1.703157252650242E-006
   87.1031250000000         1.754542864597700E-006
   87.3168750000000         1.824295742649161E-006
   87.5306250000000         1.893309136190584E-006
   87.7443750000000         1.977613912901343E-006
   87.9581250000000         2.057438731280177E-006
   88.1718750000000         2.144616429663209E-006
   88.3856250000000         2.227143026990011E-006
   88.5993750000000         2.301836931229839E-006
   88.8131250000000         2.365970928332069E-006
   89.0268750000000         2.416944682499061E-006
   89.2406250000000         2.452528719642282E-006
   89.4543750000000         2.472164389167846E-006
   89.6681250000000         2.475288075359982E-006
   89.8818750000000         2.462635888758012E-006
   90.0956250000000         2.435855297931827E-006
   90.3093750000000         2.396532650125356E-006
   90.5231250000000         2.347147522757221E-006
   90.7368750000000         2.290372618085468E-006
   90.9506250000000         2.228903782074284E-006
   91.1643750000000         2.165122012841515E-006
   91.3781250000000         2.101061267691806E-006
   91.5918750000000         2.038131150598266E-006
   91.8056250000000         1.977432431241865E-006
   92.0193750000000         1.919423651709665E-006
   92.2331250000000         1.864451064183093E-006
   92.4468750000000         1.812723462614882E-006
   92.6606250000000         1.764537833890262E-006
   92.8743750000000         1.720481797722833E-006
   93.0881250000000         1.681514244425769E-006
   93.3018750000000         1.648973228313102E-006
   93.5156250000000         1.624752294141587E-006
   93.7293750000000         1.609679764197988E-006
   93.9431250000000         1.606941898411532E-006
   94.1568750000000         1.615132743921543E-006
   94.3706250000000         1.634733829423141E-006
   94.5843750000000         1.666091218117513E-006
   94.7981250000000         1.707359149449763E-006
   95.0118750000000         1.756266159738505E-006
   95.2256250000000         1.808795241393996E-006
   95.4393750000000         1.861312433896988E-006
   95.6531250000000         1.910115760463173E-006
   95.8668750000000         1.954153298843964E-006
   96.0806250000000         1.981998240674600E-006
   96.2943750000000         1.999171154275682E-006
   96.5081250000000         2.005432265331476E-006
   96.7218750000000         2.002366819223235E-006
   96.9356250000000         1.992190288627297E-006
   97.1493750000000         1.978301511257001E-006
   97.3631250000000         1.964868053548535E-006
   97.5768750000000         1.954059622143223E-006
   97.7906250000000         1.952105450420335E-006
   98.0043750000000         1.961439009330424E-006
   98.2181250000000         1.983543647723860E-006
   98.4318750000000         2.018127788719610E-006
   98.6456250000000         2.063399284152321E-006
   98.8593750000000         2.117168929042900E-006
   99.0731250000000         2.175666004332524E-006
   99.2868750000000         2.235623133327456E-006
   99.5006250000000         2.297663755233771E-006
   99.7143750000000         2.347809394724066E-006
   99.9281250000000         2.396198479742822E-006
   100.141875000000         2.429312750566239E-006
   100.355625000000         2.456407888588308E-006
   100.569375000000         2.474810354113740E-006
   100.783125000000         2.487417091175520E-006
   100.996875000000         2.499104769904277E-006
   101.210625000000         2.512190905104256E-006
   101.424375000000         2.528958427487190E-006
   101.638125000000         2.550930802337898E-006
   101.851875000000         2.578613742542078E-006
   102.065625000000         2.607789032484722E-006
   102.279375000000         2.645702776896126E-006
   102.493125000000         2.680328527440199E-006
   102.706875000000         2.721043350071709E-006
   102.920625000000         2.756726574203626E-006
   103.134375000000         2.786043194071938E-006
   103.348125000000         2.808213540530288E-006
   103.561875000000         2.824349175599851E-006
   103.775625000000         2.833396622693838E-006
   103.989375000000         2.837202272324579E-006
   104.203125000000         2.837573082542784E-006
   104.416875000000         2.837517004141030E-006
   104.630625000000         2.839651074659403E-006
   104.844375000000         2.845952404733667E-006
   105.058125000000         2.857497615751724E-006
   105.271875000000         2.874115653927859E-006
   105.485625000000         2.894247353330885E-006
   105.699375000000         2.916470153703148E-006
   105.913125000000         2.936685253390503E-006
   106.126875000000         2.951671112913448E-006
   106.340625000000         2.958401918289632E-006
   106.554375000000         2.954652180983970E-006
   106.768125000000         2.939240682487505E-006
   106.981875000000         2.912862464228554E-006
   107.195625000000         2.877606327783097E-006
   107.409375000000         2.836987538632462E-006
   107.623125000000         2.795635713922854E-006
   107.836875000000         2.758392489655209E-006
   108.050625000000         2.729788626666480E-006
   108.264375000000         2.713317236603606E-006
   108.478125000000         2.712756981758489E-006
   108.691875000000         2.730131818712369E-006
   108.905625000000         2.758199000777456E-006
   109.119375000000         2.797945939563717E-006
   109.333125000000         2.843260772955097E-006
   109.546875000000         2.888455315305856E-006
   109.760625000000         2.928019682600654E-006
   109.974375000000         2.956006502589755E-006
   110.188125000000         2.968891890538960E-006
   110.401875000000         2.965141919188882E-006
   110.615625000000         2.944733235790653E-006
   110.829375000000         2.909959817467518E-006
   111.043125000000         2.864802521693431E-006
   111.256875000000         2.820083138251934E-006
   111.470625000000         2.766118310721397E-006
   111.684375000000         2.720456208592784E-006
   111.898125000000         2.691423960747928E-006
   112.111875000000         2.666701353054093E-006
   112.325625000000         2.659960552264295E-006
   112.539375000000         2.669228174221147E-006
   112.753125000000         2.691135218888486E-006
   112.966875000000         2.724723150438138E-006
   113.180625000000         2.766116487893748E-006
   113.394375000000         2.811874429595405E-006
   113.608125000000         2.858994276028863E-006
   113.821875000000         2.905827473622482E-006
   114.035625000000         2.951261786329201E-006
   114.249375000000         2.995325798832413E-006
   114.463125000000         3.039168859175048E-006
   114.676875000000         3.084447086102792E-006
   114.890625000000         3.132867427105704E-006
   115.104375000000         3.185727690107514E-006
   115.318125000000         3.243596286822817E-006
   115.531875000000         3.306026999717429E-006
   115.745625000000         3.371497561987979E-006
   115.959375000000         3.437525432927397E-006
   116.173125000000         3.500972734605356E-006
   116.386875000000         3.558445715888687E-006
   116.600625000000         3.606669699887181E-006
   116.814375000000         3.643111107400096E-006
   117.028125000000         3.666252023172879E-006
   117.241875000000         3.676605728518391E-006
   117.455625000000         3.674157907599496E-006
   117.669375000000         3.660948061346283E-006
   117.883125000000         3.640163852725485E-006
   118.096875000000         3.616075642209129E-006
   118.310625000000         3.592106826733301E-006
   118.524375000000         3.571520117205867E-006
   118.738125000000         3.556861937120700E-006
   118.951875000000         3.549740030607965E-006
   119.165625000000         3.550268387876355E-006
   119.379375000000         3.559731686703979E-006
   119.593125000000         3.576149114255677E-006
   119.806875000000         3.597529632116095E-006
   120.020625000000         3.621648954436012E-006
   120.234375000000         3.646131102639759E-006
   120.448125000000         3.669797903416317E-006
   120.661875000000         3.691691388803400E-006
   120.875625000000         3.711730783555724E-006
   121.089375000000         3.729695949964206E-006
   121.303125000000         3.739796810855016E-006
   121.516875000000         3.744607400495116E-006
   121.730625000000         3.743532166236768E-006
   121.944375000000         3.737846468292209E-006
   122.158125000000         3.727769371803576E-006
   122.371875000000         3.713564743107382E-006
   122.585625000000         3.695866834718047E-006
   122.799375000000         3.675651788355523E-006
   123.013125000000         3.654402133748015E-006
   123.226875000000         3.634134041928826E-006
   123.440625000000         3.616834081835566E-006
   123.654375000000         3.604419282886433E-006
   123.868125000000         3.599220615272683E-006