  -1.60312500000000         0.000000000000000E+000
  -1.38937500000000         0.000000000000000E+000
  -1.17562500000000         0.000000000000000E+000
 -0.961875000000000         0.000000000000000E+000
 -0.748125000000000         0.000000000000000E+000
 -0.534375000000000         0.000000000000000E+000
 -0.320625000000000         0.000000000000000E+000
 -0.106875000000000         0.000000000000000E+000
  0.106875000000000         0.000000000000000E+000
  0.320625000000000         0.000000000000000E+000
  0.534375000000000         0.000000000000000E+000
  0.748125000000000         0.000000000000000E+000
  0.961875000000000         0.000000000000000E+000
   1.17562500000000         0.000000000000000E+000
   1.38937500000000         0.000000000000000E+000
   1.60312500000000         0.000000000000000E+000
   1.81687500000000         0.000000000000000E+000
   2.03062500000000         0.000000000000000E+000
   2.24437500000000         0.000000000000000E+000
   2.45812500000000         0.000000000000000E+000
   2.67187500000000         0.000000000000000E+000
   2.88562500000000         0.000000000000000E+000
   3.09937500000000         0.000000000000000E+000
   3.31312500000000         0.000000000000000E+000
   3.52687500000000         0.000000000000000E+000
   3.74062500000000         0.000000000000000E+000
   3.95437500000000         0.000000000000000E+000
   4.16812500000000         0.000000000000000E+000
   4.38187500000000         0.000000000000000E+000
   4.59562500000000         0.000000000000000E+000
   4.80937500000000         0.000000000000000E+000
   5.02312500000000         0.000000000000000E+000
   5.23687500000000         0.000000000000000E+000
   5.45062500000000         0.000000000000000E+000
   5.66437500000000         0.000000000000000E+000
   5.87812500000000         0.000000000000000E+000
   6.09187500000000         0.000000000000000E+000
   6.30562500000000         0.000000000000000E+000
   6.51937500000000         0.000000000000000E+000
   6.73312500000000         0.000000000000000E+000
   6.94687500000000         0.000000000000000E+000
   7.16062500000000         0.000000000000000E+000
   7.37437500000000         0.000000000000000E+000
   7.58812500000000         0.000000000000000E+000
   7.80187500000000         0.000000000000000E+000
   8.01562500000000         0.000000000000000E+000
   8.22937500000000         0.000000000000000E+000
   8.44312500000000         0.000000000000000E+000
   8.65687500000000         0.000000000000000E+000
   8.87062500000000         0.000000000000000E+000
   9.08437500000000         0.000000000000000E+000
   9.29812500000000         0.000000000000000E+000
   9.51187500000000         0.000000000000000E+000
   9.72562500000000         0.000000000000000E+000
   9.93937500000000         0.000000000000000E+000
   10.1531250000000        -1.404384537217790E-223
   10.3668750000000         4.490331747869857E-215
   10.5806250000000         3.704858872875047E-214
   10.7943750000000         2.581041262980557E-210
   11.0081250000000         1.471918062671815E-208
   11.2218750000000         4.891543561099906E-207
   11.4356250000000         1.416770691974001E-205
   11.6493750000000         3.754250706990891E-204
   11.8631250000000         8.344743281173744E-203
   12.0768750000000         1.485695763644306E-201
   12.2906250000000         2.114166269008021E-200
   12.5043750000000         2.436320474200412E-199
   12.7181250000000         2.315874901039583E-198
   12.9318750000000         1.872093753512745E-197
   13.1456250000000         1.376314129664042E-196
   13.3593750000000         1.045495836772165E-195
   13.5731250000000         9.178113063771732E-195
   13.7868750000000         8.859771341064423E-194
   14.0006250000000         8.184180709115912E-193
   14.2143750000000         6.547062891753795E-192
   14.4281250000000         4.206057382700774E-191
   14.6418750000000         1.841591844739152E-190
   14.8556250000000         3.872302656634961E-191
   15.0693750000000        -9.729605448387612E-189
   15.2831250000000        -1.291392528572331E-187
   15.4968750000000        -1.173019972200741E-186
   15.7106250000000        -8.728987005597895E-186
   15.9243750000000        -5.627309394915534E-185
   16.1381250000000        -3.217273205407974E-184
   16.3518750000000        -1.646630557782126E-183
   16.5656250000000        -7.543429836355125E-183
   16.7793750000000        -3.059672787958977E-182
   16.9931250000000        -1.065488100074786E-181
   17.2068750000000        -2.917236010245240E-181
   17.4206250000000        -4.111731242452285E-181
   17.6343750000000         1.736942915983234E-180
   17.8481250000000         1.934547008442537E-179
   18.0618750000000         1.127817579321337E-178
   18.2756250000000         5.097604917050269E-178
   18.4893750000000         1.913158946084298E-177
   18.7031250000000         5.914193616177757E-177
   18.9168750000000         1.358172003006368E-176
   19.1306250000000         1.064814324116161E-176
   19.3443750000000        -1.113667406963450E-175
   19.5581250000000        -8.803381412221482E-175
   19.7718750000000        -4.364508029194320E-174
   19.9856250000000        -1.741937510659984E-173
   20.1993750000000        -5.913898076754860E-173
   20.4131250000000        -1.709208968308506E-172
   20.6268750000000        -3.987648765298479E-172
   20.8406250000000        -5.886442299390136E-172
   21.0543750000000         6.171348900267655E-172
   21.2681250000000         9.524959506933193E-171
   21.4818750000000         4.904885873054252E-170
   21.6956250000000         1.893043777295868E-169
   21.9093750000000         6.118502710560505E-169
   22.1231250000000         1.692988626104525E-168
   22.3368750000000         3.908059346305900E-168
   22.5506250000000         6.642599032240892E-168
   22.7643750000000         2.759272381246628E-168
   22.9781250000000        -4.011086509838467E-167
   23.1918750000000        -2.334230592632165E-166
   23.4056250000000        -8.995895976151878E-166
   23.6193750000000        -2.837063472460686E-165
   23.8331250000000        -7.690274996817623E-165
   24.0468750000000        -1.792073821103352E-164
   24.2606250000000        -3.420491001242901E-164
   24.4743750000000        -4.341662816991088E-164
   24.6881250000000         2.047570196070030E-164
   24.9018750000000         3.804354117949201E-163
   25.1156250000000         1.647771843498434E-162
   25.3293750000000         5.232043046285613E-162
   25.5431250000000         1.378433621035968E-161
   25.7568750000000         3.073266030476652E-161
   25.9706250000000         5.562287035541305E-161
   26.1843750000000         6.633253287102752E-161
   26.3981250000000        -3.195235795162847E-161
   26.6118750000000        -5.277405181020590E-160
   26.8256250000000        -2.140785672801305E-159
   27.0393750000000        -6.375006735484905E-159
   27.2531250000000        -1.573371868625157E-158
   27.4668750000000        -3.274503052742881E-158
   27.6806250000000        -5.473677474224419E-158
   27.8943750000000        -5.710037414460663E-158
   28.1081250000000         4.932587518711693E-158
   28.3218750000000         5.092901307251269E-157
   28.5356250000000         1.883627497482616E-156
   28.7493750000000         5.255729504484768E-156
   28.9631250000000         1.229184074741987E-155
   29.1768750000000         2.450799766208518E-155
   29.3906250000000         4.009303791037618E-155
   29.6043750000000         4.480032146444839E-155
   29.8181250000000        -9.192388087474059E-156
   30.0318750000000        -2.445099745807021E-154
   30.2456250000000        -9.241223918926102E-154
   30.4593750000000        -2.522788807307637E-153
   30.6731250000000        -5.717540459866238E-153
   30.8868750000000        -1.105012757122574E-152
   31.1006250000000        -1.770332460853260E-152
   31.3143750000000        -2.033947186604275E-152
   31.5281250000000        -2.390746608835945E-153
   31.7418750000000         7.589276814208575E-152
   31.9556250000000         2.944648731917181E-151
   32.1693750000000         7.884187050498838E-151
   32.3831250000000         1.735942588304128E-150
   32.5968750000000         3.257877350677035E-150
   32.8106250000000         5.104669933539160E-150
   33.0243750000000         5.920333742192021E-150
   33.2381250000000         1.799235133065527E-150
   33.4518750000000        -1.609897916145429E-149
   33.6656250000000        -6.468811270538042E-149
   33.8793750000000        -1.714018780428577E-148
   34.0931250000000        -3.717079162769153E-148
   34.3068750000000        -6.923085525901055E-148
   34.5206250000000        -1.102743298022894E-147
   34.7343750000000        -1.408573429638485E-147
   34.9481250000000        -1.052919310613646E-147
   35.1618750000000         1.198844434280470E-147
   35.3756250000000         7.673102927392728E-147
   35.5893750000000         2.217282654446195E-146
   35.8031250000000         4.999290900060434E-146
   36.0168750000000         9.688466527248081E-146
   36.2306250000000         1.658271860748832E-145
   36.4443750000000         2.499441760069359E-145
   36.6581250000000         3.194080519403082E-145
   36.8718750000000         2.996205511990361E-145
   37.0856250000000         3.668017623221533E-146
   37.2993750000000        -7.578487217420666E-145
   37.5131250000000        -2.601544279002168E-144
   37.7268750000000        -6.416421619778367E-144
   37.9406250000000        -1.386174478253586E-143
   38.1543750000000        -2.792926124882948E-143
   38.3681250000000        -5.384573150840085E-143
   38.5818750000000        -9.996568279847048E-143
   38.7956250000000        -1.772172338482419E-142
   39.0093750000000        -2.929740916530598E-142
   39.2231250000000        -4.298048236038663E-142
   39.4368750000000        -4.902981932124445E-142
   39.6506250000000        -1.764520915731846E-142
   39.8643750000000         1.238877827962078E-141
   40.0781250000000         5.283767385880807E-141
   40.2918750000000         1.477377859526256E-140
   40.5056250000000         3.419039465362425E-140
   40.7193750000000         6.928241454584501E-140
   40.9331250000000         1.243638011418525E-139
   41.1468750000000         1.943758276750242E-139
   41.3606250000000         2.468942103548938E-139
   41.5743750000000         1.875537316472048E-139
   41.7881250000000        -1.972011184314278E-139
   42.0018750000000        -1.319188497398515E-138
   42.2156250000000        -3.866987295782092E-138
   42.4293750000000        -8.812519389957635E-138
   42.6431250000000        -1.718153925848020E-137
   42.8568750000000        -2.927307778581728E-137
   43.0706250000000        -4.280925079235198E-137
   43.2843750000000        -4.929948770913881E-137
   43.4981250000000        -2.788690551040584E-137
   43.7118750000000         6.350845455997961E-137
   43.9256250000000         2.981249145980978E-136
   44.1393750000000         7.855821247744745E-136
   44.3531250000000         1.658670975000976E-135
   44.5668750000000         3.015051137970412E-135
   44.7806250000000         4.769433107488919E-135
   44.9943750000000         6.353443236175458E-135
   45.2081250000000         6.194109516618199E-135
   45.4218750000000         9.356120967773432E-136
   45.6356250000000        -1.550667801914020E-134
   45.8493750000000        -5.267689824460498E-134
   46.0631250000000        -1.231458869427227E-133
   46.2768750000000        -2.390370006717852E-133
   46.4906250000000        -4.023369786145155E-133
   46.7043750000000        -5.844125257176109E-133
   46.9181250000000        -6.894338442343397E-133
   47.1318750000000        -4.981162613383963E-133
   47.3456250000000         4.045139215727834E-133
   47.5593750000000         2.695866059052450E-132
   47.7731250000000         7.321094157834671E-132
   47.9868750000000         1.532399007067253E-131
   48.2006250000000         2.731026224152787E-131
   48.4143750000000         4.226036350343454E-131
   48.6281250000000         5.535354062492967E-131
   48.8418750000000         5.453833554375141E-131
   49.0556250000000         1.595754397828247E-131
   49.2693750000000        -1.007321746743262E-130
   49.4831250000000        -3.542829414273217E-130
   49.6968750000000        -8.151366589186452E-130
   49.9106250000000        -1.539913029491611E-129
   50.1243750000000        -2.512098017546701E-129
   50.3381250000000        -3.530575347934316E-129
   50.5518750000000        -4.030313146333329E-129
   50.7656250000000        -2.836209836684611E-129
   50.9793750000000         2.106094570588420E-129
   51.1931250000000         1.389449463483577E-128
   51.4068750000000         3.646227937459478E-128
   51.6206250000000         7.353238094562305E-128
   51.8343750000000         1.260406825330895E-127
   52.0481250000000         1.871646395690734E-127
   52.2618750000000         2.341694418296173E-127
   52.4756250000000         2.169371936973814E-127
   52.6893750000000         4.477008256452760E-128
   52.9031250000000        -4.235243623004689E-127
   53.1168750000000        -1.375573885081413E-126
   53.3306250000000        -3.008624622360967E-126
   53.5443750000000        -5.431692742007927E-126
   53.7581250000000        -8.470784424811050E-126
   53.9718750000000        -1.134249164672765E-125
   54.1856250000000        -1.218347443393416E-125
   54.3993750000000        -7.484658511703423E-126
   54.6131250000000         8.397895981461724E-126
   54.8268750000000         4.327708988436086E-125
   55.0406250000000         1.060387755971894E-124
   55.2543750000000         2.033849892117828E-124
   55.4681250000000         3.330779500909729E-124
   55.6818750000000         4.723160928608393E-124
   55.8956250000000         5.605228313268169E-124
   56.1093750000000         4.777590280216228E-124
   56.3231250000000         2.394137659479849E-125
   56.5368750000000        -1.089195670647411E-123
   56.7506250000000        -3.211594555540277E-123
   56.9643750000000        -6.659885076791976E-123
   57.1781250000000        -1.150865014488138E-122
   57.3918750000000        -1.721902326465686E-122
   57.6056250000000        -2.207178556681302E-122
   57.8193750000000        -2.242624629974805E-122
   58.0331250000000        -1.194181377763357E-122
   58.2468750000000         1.889979992414778E-122
   58.4606250000000         8.233423399934060E-122
   58.6743750000000         1.908985196538216E-121
   58.8881250000000         3.516625808579525E-121
   59.1018750000000         5.555176386137439E-121
   59.3156250000000         7.602571443614716E-121
   59.5293750000000         8.675436979466529E-121
   59.7431250000000         6.969154761635802E-121
   59.9568750000000        -3.454155150541514E-122
   60.1706250000000        -1.709880961295807E-120
   60.3843750000000        -4.759458600926174E-120
   60.5981250000000        -9.518132229450725E-120
   60.8118750000000        -1.594547475212715E-119
   61.0256250000000        -2.316686473094948E-119
   61.2393750000000        -2.882391255165663E-119
   61.4531250000000        -2.829663917549210E-119
   61.6668750000000        -1.399648655932960E-119
   61.8806250000000         2.485720848110638E-119
   62.0943750000000         1.012779143319442E-118
   62.3081250000000         2.273520501877856E-118
   62.5218750000000         4.076168613470903E-118
   62.7356250000000         6.277444409071590E-118
   62.9493750000000         8.379198185615383E-118
   63.1631250000000         9.319363787468375E-118
   63.3768750000000         7.261616996967288E-118
   63.5906250000000        -5.246929085659445E-119
   63.8043750000000        -1.753402571971632E-117
   64.0181250000000        -4.740408511264005E-117
   64.2318750000000        -9.249868125751157E-117
   64.4456250000000        -1.513757247505924E-116
   64.6593750000000        -2.149344403310284E-116
   64.8731250000000        -2.613664141004591E-116
   65.0868750000000        -2.506908636064756E-116
   65.3006250000000        -1.207246916692710E-116
   65.5143750000000         2.121645144967217E-116
   65.7281250000000         8.424028093023111E-116
   65.9418750000000         1.847926007642488E-115
   66.1556250000000         3.238958818662872E-115
   66.3693750000000         4.877360227159389E-115
   66.5831250000000         6.367125257398644E-115
   66.7968750000000         6.929152593437078E-115
   67.0106250000000         5.294185226313796E-115
   67.2243750000000        -3.226486580306383E-116
   67.4381250000000        -1.206665593927114E-114
   67.6518750000000        -3.197490969649458E-114
   67.8656250000000        -6.104472468014967E-114
   68.0793750000000        -9.771551235036222E-114
   68.2931250000000        -1.357418875541363E-113
   68.5068750000000        -1.616524875921093E-113
   68.7206250000000        -1.523541668418576E-113
   68.9343750000000        -7.396487650115483E-114
   69.1481250000000         1.164013051536288E-113
   69.3618750000000         4.635462301972489E-113
   69.5756250000000         9.990855911882597E-113
   69.7893750000000         1.715932068689643E-112
   70.0031250000000         2.531492567577965E-112
   70.2168750000000         3.242079711257709E-112
   70.4306250000000         3.476786561314940E-112
   70.6443750000000         2.667362780513319E-112
   70.8581250000000         6.083422448591497E-114
   71.0718750000000        -5.188202311500675E-112
   71.2856250000000        -1.380224265132561E-111
   71.4993750000000        -2.600231624249490E-111
   71.7131250000000        -4.094663819222599E-111
   71.9268750000000        -5.601364155993954E-111
   72.1406250000000        -6.603665576344874E-111
   72.3543750000000        -6.271283874223624E-111
   72.5681250000000        -3.455065058074279E-111
   72.7818750000000         3.213786442371593E-111
   72.9956250000000         1.506003548759455E-110
   73.2093750000000         3.287929575475582E-110
   73.4231250000000         5.619926182532694E-110
   73.6368750000000         8.231187629331919E-110
   73.8506250000000         1.051974643430726E-109
   74.0643750000000         1.145985783410542E-109
   74.2781250000000         9.566577894897318E-110
   74.4918750000000         2.975804533239467E-110
   74.7056250000000        -1.029185779960814E-109
   74.9193750000000        -3.181880015022287E-109
   75.1331250000000        -6.199198876583052E-109
   75.3468750000000        -9.893948927203047E-109
   75.5606250000000        -1.373181181707593E-108
   75.7743750000000        -1.671956237023523E-108
   75.9881250000000        -1.734121351643007E-108
   76.2018750000000        -1.359257957489050E-108
   76.4156250000000        -3.169428482732406E-109
   76.6293750000000         1.614445148586321E-108
   76.8431250000000         4.587076330444361E-108
   77.0568750000000         8.604202948304915E-108
   77.2706250000000         1.343135863161454E-107
   77.4843750000000         1.851421224638757E-107
   77.6981250000000         2.292287428880125E-107
   77.9118750000000         2.533992999549115E-107
   78.1256250000000         2.409707268584963E-107
   78.3393750000000         1.724145824941659E-107
   78.5531250000000         2.581349995700098E-108
   78.7668750000000        -2.236659602267724E-107
   78.9806250000000        -6.060517795139253E-107
   79.1943750000000        -1.160714540587333E-106
   79.4081250000000        -1.940779277473687E-106
   79.6218750000000        -3.013024618044302E-106
   79.8356250000000        -4.443820241742920E-106
   80.0493750000000        -6.256124914626228E-106
   80.2631250000000        -8.338004823546660E-106
   80.4768750000000        -1.028299119760532E-105
   80.6906250000000        -1.115218308142452E-105
   80.9043750000000        -9.174111306595978E-106
   81.1181250000000        -1.447923460012305E-106
   81.3318750000000         1.620739438685968E-105
   81.5456250000000         4.901345418451401E-105
   81.7593750000000         1.022490723699984E-104
   81.9731250000000         1.790903898757129E-104
   82.1868750000000         2.768569632336570E-104
   82.4006250000000         3.814477700412560E-104
   82.6143750000000         4.602502661350827E-104
   82.8281250000000         4.547087564670904E-104
   83.0418750000000         2.751006100673506E-104
   83.2556250000000        -1.981759865422685E-104
   83.4693750000000        -1.100630380717517E-103
   83.6831250000000        -2.549460625187760E-103
   83.8968750000000        -4.581589905379893E-103
   84.1106250000000        -7.059353952591063E-103
   84.3243750000000        -9.546584976459946E-103
   84.5381250000000        -1.117118137952495E-102
   84.7518750000000        -1.051040174225613E-102
   84.9656250000000        -5.561212985326111E-103
   85.1793750000000         6.113691245902043E-103
   85.3931250000000         2.695101317061757E-102
   85.6068750000000         5.854609389894326E-102
   85.8206250000000         1.003223459320220E-101
   86.0343750000000         1.477185807608772E-101
   86.2481250000000         1.900728264033883E-101
   86.4618750000000         2.086433354368327E-101
   86.6756250000000         1.755524436344666E-101
   86.8893750000000         5.482341282471258E-102
   87.1031250000000        -1.929893495138752E-101
   87.3168750000000        -6.009560687620117E-101
   87.5306250000000        -1.179401459636901E-100
   87.7443750000000        -1.892697546120413E-100
   87.9581250000000        -2.630859715949443E-100
   88.1718750000000        -3.180654256756356E-100
   88.3856250000000        -3.205053806553513E-100
   88.5993750000000        -2.244622369880928E-100
   88.8131250000000         2.412301803242933E-101
   89.0268750000000         4.772913441537696E-100
   89.2406250000000         1.167126870336233E-099
   89.4543750000000         2.079185782368952E-099
   89.6681250000000         3.118481804641617E-099
   89.8818750000000         4.072490775179977E-099
   90.0956250000000         4.580157642829149E-099
   90.3093750000000         4.121252729009783E-099
   90.5231250000000         2.045647381309846E-099
   90.7368750000000        -2.334547974654870E-099
   90.9506250000000        -9.567996206032536E-099
   91.1643750000000        -1.978867753280760E-098
   91.3781250000000        -3.234734573664760E-098
   91.5918750000000        -4.538738778207490E-098
   91.8056250000000        -5.544823409803566E-098
   92.0193750000000        -5.723537092783605E-098
   92.2331250000000        -4.375330083415079E-098
   92.4468750000000        -7.040526201880516E-099
   92.6606250000000         6.024983205491548E-098
   92.8743750000000         1.622438339672730E-097
   93.0881250000000         2.961991375911777E-097
   93.3018750000000         4.480915829508417E-097
   93.5156250000000         5.881392966843176E-097
   93.7293750000000         6.675082114766712E-097
   93.9431250000000         6.180223466805918E-097
   94.1568750000000         3.571816781961551E-097
   94.3706250000000        -1.990408669543122E-097
   94.5843750000000        -1.113567539824410E-096
   94.7981250000000        -2.394996596840953E-096
   95.0118750000000        -3.955500737710157E-096
   95.2256250000000        -5.565287134988206E-096
   95.4393750000000        -6.813938099969841E-096
   95.6531250000000        -7.094391713333737E-096
   95.8668750000000        -5.630194322177708E-096
   96.0806250000000        -1.569192924210449E-096
   96.2943750000000         5.835314785209093E-096
   96.5081250000000         1.694446647343935E-095
   96.7218750000000         3.136259973303573E-095
   96.9356250000000         4.751337101420822E-095
   97.1493750000000         6.224293330836676E-095
   97.3631250000000         7.057760158793166E-095
   97.5768750000000         6.580895844165437E-095
   97.7906250000000         4.010865788336099E-095
   98.0043750000000        -1.413080094999001E-095
   98.2181250000000        -1.020966349597796E-094
   98.4318750000000        -2.235077193059853E-094
   98.6456250000000        -3.689643269594789E-094
   98.8593750000000        -5.162707381844129E-094
   99.0731250000000        -6.276994365276849E-094
   99.2868750000000        -6.495611896897452E-094
   99.5006250000000        -5.157374929472556E-094
   99.7143750000000        -1.568736247847526E-094
   99.9281250000000         4.834544395070254E-094
   100.141875000000         1.425275273798510E-093
   100.355625000000         2.622860621132392E-093
   100.569375000000         3.933350549088939E-093
   100.783125000000         5.090319565309570E-093
   100.996875000000         5.692466083061997E-093
   101.210625000000         5.220238881286173E-093
   101.424375000000         3.094168687060296E-093
   101.638125000000        -1.213378835959479E-093
   101.851875000000        -8.007757281901105E-093
   102.065625000000        -1.714958172344761E-092
   102.279375000000        -2.780477541405547E-092
   102.493125000000        -3.821442845615707E-092
   102.706875000000        -4.555671194793270E-092
   102.920625000000        -4.599503145019065E-092
   103.134375000000        -3.501795912472466E-092
   103.348125000000        -8.167664354272405E-093
   103.561875000000         3.778577679435073E-092
   103.775625000000         1.032455567871962E-091
   103.989375000000         1.839085279302705E-091
   104.203125000000         2.689101161884497E-091
   104.416875000000         3.394826121791501E-091
   104.630625000000         3.687877265195298E-091
   104.844375000000         3.236937120946784E-091
   105.058125000000         1.692477764209687E-091
   105.271875000000        -1.236280529070952E-091
   105.485625000000        -5.671823246864073E-091
   105.699375000000        -1.143388247205398E-090
   105.913125000000        -1.789871266749798E-090
   106.126875000000        -2.388368087969569E-090
   106.340625000000        -2.760155997739412E-090
   106.554375000000        -2.673830192811532E-090
   106.768125000000        -1.870962137038681E-090
   106.981875000000        -1.140352781908404E-091
   107.195625000000         2.741862102802884E-090
   107.409375000000         6.657136327274085E-090
   107.623125000000         1.130627418184113E-089
   107.836875000000         1.598634748891050E-089
   108.050625000000         1.956397433300883E-089
   108.264375000000         2.049671023124881E-089
   108.478125000000         1.696778782477238E-089
   108.691875000000         7.168218467321169E-090
   108.905625000000        -1.025587329719407E-089
   109.119375000000        -3.560278562217525E-089
   109.333125000000        -6.741826249405616E-089
   109.546875000000        -1.018152328311957E-088
   109.760625000000        -1.319854006846881E-088
   109.974375000000        -1.481330149037551E-088
   110.188125000000        -1.380923616894027E-088
   110.401875000000        -8.887643372629930E-089
   110.615625000000         1.067769453889594E-089
   110.829375000000         1.661699814271125E-088
   111.043125000000         3.730725593600024E-088
   111.256875000000         6.119572118047272E-088
   111.470625000000         8.445356008782414E-088
   111.684375000000         1.011918978791570E-087
   111.898125000000         1.036773646261455E-087
   112.111875000000         8.310715006244715E-088
   112.325625000000         3.107682596865453E-088
   112.539375000000        -5.821453018771016E-088
   112.753125000000        -1.851261435561142E-087
   112.966875000000        -3.414155591872740E-087
   113.180625000000        -5.073170000880006E-087
   113.394375000000        -6.496735218128737E-087
   113.608125000000        -7.221439905967261E-087
   113.821875000000        -6.685864392197628E-087
   114.035625000000        -4.305877366427214E-087
   114.249375000000         4.031922992882175E-088
   114.463125000000         7.659974269431632E-087
   114.676875000000         1.722012005818744E-086
   114.890625000000         2.817769056921710E-086
   115.104375000000         3.880947392578931E-086
   115.318125000000         4.652110212972943E-086
   115.531875000000         4.796227051006713E-086
   115.745625000000         3.937593323118143E-086
   115.959375000000         1.722782993153200E-086
   116.173125000000        -2.087621099087609E-086
   116.386875000000        -7.503896838127180E-086
   116.600625000000        -1.418216838586690E-085
   116.814375000000        -2.131239300936145E-085
   117.028125000000        -2.755136022798523E-085
   117.241875000000        -3.103940980541418E-085
   117.455625000000        -2.954106792519027E-085
   117.669375000000        -2.074305709916999E-085
   117.883125000000        -2.725409304329513E-086
   118.096875000000         2.540898781959540E-085
   118.310625000000         6.280387283889532E-085
   118.524375000000         1.061275647471974E-084
   118.738125000000         1.490231266840815E-084
   118.951875000000         1.819401842766661E-084
   119.165625000000         1.925804636856159E-084
   119.379375000000         1.671719475637280E-084
   119.593125000000         9.271331066476856E-085
   119.806875000000        -3.981105016337158E-085
   120.020625000000        -2.314575421284479E-084
   120.234375000000        -4.710759977113394E-084
   120.448125000000        -7.315752576886397E-084
   120.661875000000        -9.677693825470342E-084
   120.875625000000        -1.117059204963863E-083
   121.089375000000        -1.104209910854274E-083
   121.303125000000        -8.512196096688643E-084
   121.516875000000        -2.926607631576358E-084
   121.730625000000         6.041208866299894E-084
   121.944375000000         1.815917451752327E-083
   122.158125000000         3.241234002063818E-083
   122.371875000000         4.683671402514185E-083
   122.585625000000         5.847510712645441E-083
   122.799375000000         6.352367638520105E-083
   123.013125000000         5.773007220275816E-083
   123.226875000000         3.707941852430613E-083
   123.440625000000        -1.239994016931179E-084
   123.654375000000        -5.766332483610584E-083
   123.868125000000        -1.290191651686665E-082