  -1.60312500000000         0.000000000000000E+000
  -1.38937500000000         0.000000000000000E+000
  -1.17562500000000         0.000000000000000E+000
 -0.961875000000000         0.000000000000000E+000
 -0.748125000000000         0.000000000000000E+000
 -0.534375000000000         0.000000000000000E+000
 -0.320625000000000         0.000000000000000E+000
 -0.106875000000000         0.000000000000000E+000
  0.106875000000000         0.000000000000000E+000
  0.320625000000000         0.000000000000000E+000
  0.534375000000000         0.000000000000000E+000
  0.748125000000000         0.000000000000000E+000
  0.961875000000000         0.000000000000000E+000
   1.17562500000000         0.000000000000000E+000
   1.38937500000000         0.000000000000000E+000
   1.60312500000000         0.000000000000000E+000
   1.81687500000000         0.000000000000000E+000
   2.03062500000000         0.000000000000000E+000
   2.24437500000000         0.000000000000000E+000
   2.45812500000000         0.000000000000000E+000
   2.67187500000000         0.000000000000000E+000
   2.88562500000000         0.000000000000000E+000
   3.09937500000000         0.000000000000000E+000
   3.31312500000000         0.000000000000000E+000
   3.52687500000000         0.000000000000000E+000
   3.74062500000000         0.000000000000000E+000
   3.95437500000000         0.000000000000000E+000
   4.16812500000000         0.000000000000000E+000
   4.38187500000000         0.000000000000000E+000
   4.59562500000000         0.000000000000000E+000
   4.80937500000000         0.000000000000000E+000
   5.02312500000000         0.000000000000000E+000
   5.23687500000000         0.000000000000000E+000
   5.45062500000000         0.000000000000000E+000
   5.66437500000000         0.000000000000000E+000
   5.87812500000000         0.000000000000000E+000
   6.09187500000000         0.000000000000000E+000
   6.30562500000000         0.000000000000000E+000
   6.51937500000000         0.000000000000000E+000
   6.73312500000000         0.000000000000000E+000
   6.94687500000000         0.000000000000000E+000
   7.16062500000000         0.000000000000000E+000
   7.37437500000000         0.000000000000000E+000
   7.58812500000000         0.000000000000000E+000
   7.80187500000000         0.000000000000000E+000
   8.01562500000000         0.000000000000000E+000
   8.22937500000000         0.000000000000000E+000
   8.44312500000000         0.000000000000000E+000
   8.65687500000000         0.000000000000000E+000
   8.87062500000000         0.000000000000000E+000
   9.08437500000000         0.000000000000000E+000
   9.29812500000000         0.000000000000000E+000
   9.51187500000000         0.000000000000000E+000
   9.72562500000000         0.000000000000000E+000
   9.93937500000000         1.277119688963599E-224
   10.1531250000000        -6.111606070486947E-214
   10.3668750000000        -1.343136674215587E-212
   10.5806250000000        -2.771297150707730E-209
   10.7943750000000        -1.964272206835165E-207
   11.0081250000000        -7.286276317215483E-206
   11.2218750000000        -1.964143424296271E-204
   11.4356250000000        -4.474385339808528E-203
   11.6493750000000        -9.149836989719307E-202
   11.8631250000000        -1.686119056568867E-200
   12.0768750000000        -2.765163855437860E-199
   12.2906250000000        -4.011128762777582E-198
   12.5043750000000        -5.164605839926002E-197
   12.7181250000000        -5.958455030252776E-196
   12.9318750000000        -6.233381755329173E-195
   13.1456250000000        -5.984687530983268E-194
   13.3593750000000        -5.330017103436741E-193
   13.5731250000000        -4.439965095947619E-192
   13.7868750000000        -3.477639337138577E-191
   14.0006250000000        -2.566870830744827E-190
   14.2143750000000        -1.784636793453540E-189
   14.4281250000000        -1.165906895293443E-188
   14.6418750000000        -7.129366881027007E-188
   14.8556250000000        -4.059255791539274E-187
   15.0693750000000        -2.137076664062642E-186
   15.2831250000000        -1.029815673974478E-185
   15.4968750000000        -4.466616312085885E-185
   15.7106250000000        -1.687950657844258E-184
   15.9243750000000        -5.130439337780960E-184
   16.1381250000000        -9.012314433925160E-184
   16.3518750000000         2.515852163222941E-183
   16.5656250000000         3.652532546040104E-182
   16.7793750000000         2.382385443420047E-181
   16.9931250000000         1.181649904930590E-180
   17.2068750000000         4.849550836352565E-180
   17.4206250000000         1.653291968897584E-179
   17.6343750000000         4.381934415810865E-179
   17.8481250000000         6.365115854374002E-179
   18.0618750000000        -1.781452361683402E-178
   18.2756250000000        -2.014469072460994E-177
   18.4893750000000        -1.059969480475900E-176
   18.7031250000000        -4.109684419184630E-176
   18.9168750000000        -1.214875942573637E-175
   19.1306250000000        -2.271495290156401E-175
   19.3443750000000         1.825331034369949E-175
   19.5581250000000         4.316014535528124E-174
   19.7718750000000         2.602692524174714E-173
   19.9856250000000         1.142464167881162E-172
   20.1993750000000         4.123849091088618E-172
   20.4131250000000         1.249264592209890E-171
   20.6268750000000         3.049671785900823E-171
   20.8406250000000         4.873322237210208E-171
   21.0543750000000        -3.149705604427280E-171
   21.2681250000000        -6.886272581671021E-170
   21.4818750000000        -3.706081657523686E-169
   21.6956250000000        -1.466718683791007E-168
   21.9093750000000        -4.845969324788143E-168
   22.1231250000000        -1.377154271459160E-167
   22.3368750000000        -3.324705446264393E-167
   22.5506250000000        -6.324625392617839E-167
   22.7643750000000        -6.479403124761783E-167
   22.9781250000000         1.585889279526909E-166
   23.1918750000000         1.296937808490483E-165
   23.4056250000000         5.320573337437829E-165
   23.6193750000000         1.690358173652775E-164
   23.8331250000000         4.475366474055958E-164
   24.0468750000000         9.810606899961091E-164
   24.2606250000000         1.609332503620186E-163
   24.4743750000000         9.356723691410598E-164
   24.6881250000000        -6.585687676256175E-163
   24.9018750000000        -3.782862480449796E-162
   25.1156250000000        -1.356094682024168E-161
   25.3293750000000        -3.908262005468647E-161
   25.5431250000000        -9.537637310022181E-161
   25.7568750000000        -1.953384905951521E-160
   25.9706250000000        -3.075938804323144E-160
   26.1843750000000        -2.185032382892430E-160
   26.3981250000000         8.289396941614165E-160
   26.6118750000000         4.924289461233374E-159
   26.8256250000000         1.689100216396347E-158
   27.0393750000000         4.599428806876570E-158
   27.2531250000000         1.057451516547469E-157
   27.4668750000000         2.042949645399012E-157
   27.6806250000000         3.059499193103109E-157
   27.8943750000000         2.222034624050776E-157
   28.1081250000000        -6.398075016024533E-157
   28.3218750000000        -3.758885043403773E-156
   28.5356250000000        -1.221605380496805E-155
   28.7493750000000        -3.125550736067303E-155
   28.9631250000000        -6.714722862322037E-155
   29.1768750000000        -1.201454208980728E-154
   29.3906250000000        -1.622759049751692E-154
   29.6043750000000        -8.314244072516410E-155
   29.8181250000000         4.195911891676684E-154
   30.0318750000000         2.020554420357286E-153
   30.2456250000000         5.976364361450540E-153
   30.4593750000000         1.414413623085250E-152
   30.6731250000000         2.816288797813032E-152
   30.8868750000000         4.632180950900214E-152
   31.1006250000000         5.532717100453422E-152
   31.3143750000000         1.272913446092471E-152
   31.5281250000000        -1.842940491828488E-151
   31.7418750000000        -7.426875902694495E-151
   31.9556250000000        -2.009195847444527E-150
   32.1693750000000        -4.428837020208307E-150
   32.3831250000000        -8.259459895588420E-150
   32.5968750000000        -1.271394605309397E-149
   32.8106250000000        -1.399627794159695E-149
   33.0243750000000        -1.572217695945000E-150
   33.2381250000000         4.768317148671706E-149
   33.4518750000000         1.763479349076819E-148
   33.6656250000000         4.492711451299249E-148
   33.8793750000000         9.390576129083192E-148
   34.0931250000000         1.666708320926626E-147
   34.3068750000000         2.450118107776764E-147
   34.5206250000000         2.594648901148039E-147
   34.7343750000000         3.636978568124965E-148
   34.9481250000000        -7.761480224468308E-147
   35.1618750000000        -2.780428960016123E-146
   35.3756250000000        -6.828746453440255E-146
   35.5893750000000        -1.379257293158009E-145
   35.8031250000000        -2.381625043157092E-145
   36.0168750000000        -3.462415394591480E-145
   36.2306250000000        -3.836946735393910E-145
   36.4443750000000        -1.667511817022666E-145
   36.6581250000000         6.577078104014377E-145
   36.8718750000000         2.670219773656818E-144
   37.0856250000000         6.679706148654843E-144
   37.2993750000000         1.357004874866136E-143
   37.5131250000000         2.383860027347041E-143
   37.7268750000000         3.662219235987260E-143
   37.9406250000000         4.798643383502850E-143
   38.1543750000000         4.828536334613716E-143
   38.3681250000000         1.845753631434079E-143
   38.5818750000000        -7.491654934264117E-143
   38.7956250000000        -2.863939766592780E-142
   39.0093750000000        -7.020460268227785E-142
   39.2231250000000        -1.457057821837322E-141
   39.4368750000000        -2.765020454008967E-141
   39.6506250000000        -4.957077946225778E-141
   39.8643750000000        -8.500611638724075E-141
   40.0781250000000        -1.388704079187198E-140
   40.2918750000000        -2.109978173675780E-140
   40.5056250000000        -2.804146772148299E-140
   40.7193750000000        -2.679146561623675E-140
   40.9331250000000         4.006964116501492E-141
   41.1468750000000         1.125119536375244E-139
   41.3606250000000         3.933372063632293E-139
   41.5743750000000         1.008884805314603E-138
   41.7881250000000         2.194992356218557E-138
   42.0018750000000         4.207971009868499E-138
   42.2156250000000         7.126826388391860E-138
   42.4293750000000         1.036370858681036E-137
   42.6431250000000         1.167345953805829E-137
   42.8568750000000         5.440183133231770E-138
   43.0706250000000        -1.983140866682065E-137
   43.2843750000000        -8.436980272200790E-137
   43.4981250000000        -2.186628792700920E-136
   43.7118750000000        -4.596427389605692E-136
   43.9256250000000        -8.336999555064331E-136
   44.1393750000000        -1.313506745696150E-135
   44.3531250000000        -1.730404748059769E-135
   44.5668750000000        -1.622781353070009E-135
   44.7806250000000        -1.183199754292966E-137
   44.9943750000000         4.865577781718087E-135
   45.2081250000000         1.574867112564631E-134
   45.4218750000000         3.618340612950425E-134
   45.6356250000000         6.943560677494743E-134
   45.8493750000000         1.155612345421262E-133
   46.0631250000000         1.653243138477978E-133
   46.2768750000000         1.894958657120564E-133
   46.4906250000000         1.226520906925560E-133
   46.7043750000000        -1.571689954183017E-133
   46.9181250000000        -8.463085279678572E-133
   47.1318750000000        -2.214106182979533E-132
   47.3456250000000        -4.549157524558101E-132
   47.5593750000000        -7.997296549107409E-132
   47.7731250000000        -1.221045182522170E-131
   47.9868750000000        -1.571113216966242E-131
   48.2006250000000        -1.490075167166270E-131
   48.4143750000000        -2.749917423449499E-132
   48.6281250000000         3.252069798960243E-131
   48.8418750000000         1.079346691995454E-130
   49.0556250000000         2.437257513949811E-130
   49.2693750000000         4.558412986817923E-130
   49.4831250000000         7.386367230137844E-130
   49.6968750000000         1.032402598366426E-129
   49.9106250000000         1.171024591576188E-129
   50.1243750000000         8.096812654745289E-130
   50.3381250000000        -6.554743877716566E-130
   50.5518750000000        -4.139717932416719E-129
   50.7656250000000        -1.081795086336792E-128
   50.9793750000000        -2.183407083859840E-128
   51.1931250000000        -3.756709613966804E-128
   51.4068750000000        -5.619155847995697E-128
   51.6206250000000        -7.127511461893327E-128
   51.8343750000000        -6.831896464607222E-128
   52.0481250000000        -2.061153152370281E-128
   52.2618750000000         1.142762772621821E-127
   52.4756250000000         3.943778769032958E-127
   52.6893750000000         8.841821211391696E-127
   52.9031250000000         1.627981137035279E-126
   53.1168750000000         2.594379320607452E-126
   53.3306250000000         3.579781466546455E-126
   53.5443750000000         4.063255145629000E-126
   53.7581250000000         3.020534755112046E-126
   53.9718750000000        -1.261619278891049E-126
   54.1856250000000        -1.126994114173042E-125
   54.3993750000000        -3.005601363589658E-125
   54.6131250000000        -6.042248846916791E-125
   54.8268750000000        -1.030660029087036E-124
   55.0406250000000        -1.531629896355148E-124
   55.2543750000000        -1.949694328049004E-124
   55.4681250000000        -1.944310549791482E-124
   55.6818750000000        -9.082170771562995E-125
   55.8956250000000         2.096505569212457E-124
   56.1093750000000         8.322400954587972E-124
   56.3231250000000         1.913727096459696E-123
   56.5368750000000         3.548785674532876E-123
   56.7506250000000         5.683078142123854E-123
   56.9643750000000         7.933295020866727E-123
   57.1781250000000         9.323729186935236E-123
   57.3918750000000         7.956251562611050E-123
   57.6056250000000         6.865109651018359E-124
   57.8193750000000        -1.702501872677713E-122
   58.0331250000000        -5.077623127892927E-122
   58.2468750000000        -1.059083134930689E-121
   58.4606250000000        -1.845349727661761E-121
   58.6743750000000        -2.801359039010477E-121
   58.8881250000000        -3.690737462763429E-121
   59.1018750000000        -3.990294590517380E-121
   59.3156250000000        -2.758343525759723E-121
   59.5293750000000         1.470860962186197E-121
   59.7431250000000         1.068114731568701E-120
   59.9568750000000         2.711220197695849E-120
   60.1706250000000         5.252847279209543E-120
   60.3843750000000         8.675129369927881E-120
   60.5981250000000         1.251865276627567E-119
   60.8118750000000         1.552077555503889E-119
   61.0256250000000         1.516147859610488E-119
   61.2393750000000         7.210796262605723E-120
   61.4531250000000        -1.450761338383402E-119
   61.6668750000000        -5.774799404326584E-119
   61.8806250000000        -1.302657892080213E-118
   62.0943750000000        -2.362236509111020E-118
   62.3081250000000        -3.696812316398638E-118
   62.5218750000000        -5.044832687456242E-118
   62.7356250000000        -5.806579696747876E-118
   62.9493750000000        -4.891789576678172E-118
   63.1631250000000        -5.999902557983196E-119
   63.3768750000000         9.371443796992074E-118
   63.5906250000000         2.763728975595011E-117
   63.8043750000000         5.633634777076090E-117
   64.0181250000000         9.558896747595698E-117
   64.2318750000000         1.409702773368626E-116
   64.4456250000000         1.799295188123009E-116
   64.6593750000000         1.874689701574046E-116
   64.8731250000000         1.220964598972600E-116
   65.0868750000000        -7.585052528603411E-117
   65.3006250000000        -4.799685346309807E-116
   65.5143750000000        -1.162507913558964E-115
   65.7281250000000        -2.161693841246134E-115
   65.9418750000000        -3.425388741586605E-115
   66.1556250000000        -4.727715488515975E-115
   66.3693750000000        -5.562863804483619E-115
   66.5831250000000        -5.034747105431506E-115
   66.7968750000000        -1.784066801401430E-115
   67.0106250000000         5.974477245139302E-115
   67.2243750000000         2.019638920724357E-114
   67.4381250000000         4.239410034987243E-114
   67.6518750000000         7.252036374130585E-114
   67.8656250000000         1.072473764417649E-113
   68.0793750000000         1.376752225343697E-113
   68.2931250000000         1.467693047734790E-113
   68.5068750000000         1.072576307475345E-113
   68.7206250000000        -1.868165846886068E-114
   68.9343750000000        -2.759042691423209E-113
   69.1481250000000        -7.062655013520397E-113
   69.3618750000000        -1.329095136964925E-112
   69.5756250000000        -2.109783185462009E-112
   69.7893750000000        -2.916164447860320E-112
   70.0031250000000        -3.466724797095535E-112
   70.2168750000000        -3.281856761740578E-112
   70.4306250000000        -1.659624185334963E-112
   70.6443750000000         2.290061404206726E-112
   70.8581250000000         9.506729107960913E-112
   71.0718750000000         2.068268497966205E-111
   71.2856250000000         3.576004339894672E-111
   71.4993750000000         5.320055773591691E-111
   71.7131250000000         6.906869303636307E-111
   71.9268750000000         7.607380760809995E-111
   72.1406250000000         6.287097285959703E-111
   72.3543750000000         1.411301463118187E-111
   72.5681250000000        -8.805168559715296E-111
   72.7818750000000        -2.601912248567061E-110
   72.9956250000000        -5.106676087054071E-110
   73.2093750000000        -8.290187762194329E-110
   73.4231250000000        -1.171808544843333E-109
   73.6368750000000        -1.446420599271770E-109
   73.8506250000000        -1.496258791150828E-109
   74.0643750000000        -1.093417317867964E-109
   74.2781250000000         5.219837118783734E-111
   74.4918750000000         2.255727231059570E-109
   74.7056250000000         5.779405376981223E-109
   74.9193750000000         1.070270282478945E-108
   75.1331250000000         1.673578081904832E-108
   75.3468750000000         2.298439959721343E-108
   75.5606250000000         2.769527818167997E-108
   75.7743750000000         2.804008610051102E-108
   75.9881250000000         2.003211200250080E-108
   76.2018750000000        -1.292250247387617E-109
   76.4156250000000        -4.126278472305478E-108
   76.6293750000000        -1.043567104698213E-107
   76.8431250000000        -1.922125682625437E-107
   77.0568750000000        -3.007896545808591E-107
   77.2706250000000        -4.167314345911721E-107
   77.4843750000000        -5.132298364676078E-107
   77.6981250000000        -5.460349905576635E-107
   77.9118750000000        -4.507211884559411E-107
   78.1256250000000        -1.429021490572477E-107
   78.3393750000000         4.762357569803298E-107
   78.5531250000000         1.506004190855848E-106
   78.7668750000000         3.020190800409115E-106
   78.9806250000000         5.024958664732117E-106
   79.1943750000000         7.397143280721851E-106
   79.4081250000000         9.801326565356021E-106
   79.6218750000000         1.158845021239530E-105
   79.8356250000000         1.168699695846869E-105
   80.0493750000000         8.511557039546658E-106
   80.2631250000000        -6.562908394116949E-108
   80.4768750000000        -1.660636884876928E-105
   80.6906250000000        -4.375410391414108E-105
   80.9043750000000        -8.349769067243966E-105
   81.1181250000000        -1.358943285368419E-104
   81.3318750000000        -1.971156861018929E-104
   81.5456250000000        -2.567753776489772E-104
   81.7593750000000        -2.947071416825456E-104
   81.9731250000000        -2.777379466510533E-104
   82.1868750000000        -1.575723768184878E-104
   82.4006250000000         1.283319511503811E-104
   82.6143750000000         6.501477288121904E-104
   82.8281250000000         1.469802844166866E-103
   83.0418750000000         2.612051615072187E-103
   83.2556250000000         4.019500291637836E-103
   83.4693750000000         5.491263674409092E-103
   83.6831250000000         6.610343302377793E-103
   83.8968750000000         6.673721806527298E-103
   84.1106250000000         4.651779935071607E-103
   84.3243750000000        -7.809281739085823E-104
   84.5381250000000        -1.108598456856275E-102
   84.7518750000000        -2.750464202838395E-102
   84.9656250000000        -5.044006960641170E-102
   85.1793750000000        -7.854227315167705E-102
   85.3931250000000        -1.075266134810343E-101
   85.6068750000000        -1.288746010458010E-101
   85.8206250000000        -1.287403547730812E-101
   86.0343750000000        -8.761019180620991E-102
   86.2481250000000         1.849464509126695E-102
   86.4618750000000         2.142854626577893E-101
   86.6756250000000         5.179118432763585E-101
   86.8893750000000         9.293269527887829E-101
   87.1031250000000         1.414261864145179E-100
   87.3168750000000         1.885133436520590E-100
   87.5306250000000         2.182340721550007E-100
   87.7443750000000         2.062245857538444E-100
   87.9581250000000         1.201374988568016E-100
   88.1718750000000        -7.706887901853348E-101
   88.3856250000000        -4.195804824289717E-100
   88.5993750000000        -9.257000522228440E-100
   88.8131250000000        -1.578828880535700E-099
   89.0268750000000        -2.303388990464334E-099
   89.2406250000000        -2.938957198452899E-099
   89.4543750000000        -3.219116588286749E-099
   89.6681250000000        -2.765377209454116E-099
   89.8818750000000        -1.110278599599039E-099
   90.0956250000000         2.233765752412114E-099
   90.3093750000000         7.643984975546047E-099
   90.5231250000000         1.518526645438917E-098
   90.7368750000000         2.434061037899481E-098
   90.9506250000000         3.370143169720985E-098
   91.1643750000000         4.067869699107834E-098
   91.3781250000000         4.133730259542893E-098
   91.5918750000000         3.049897795960117E-098
   91.8056250000000         2.291627279106689E-099
   92.0193750000000        -4.867216500866799E-098
   92.2331250000000        -1.253503482795144E-097
   92.4468750000000        -2.255439485149550E-097
   92.6606250000000        -3.385874048297213E-097
   92.8743750000000        -4.419785117553392E-097
   93.0881250000000        -4.988794630734042E-097
   93.3018750000000        -4.578644742128445E-097
   93.5156250000000        -2.566637855653397E-097
   93.7293750000000         1.682015213605321E-097
   93.9431250000000         8.642949124577574E-097
   94.1568750000000         1.838022681967084E-096
   94.3706250000000         3.022507799107208E-096
   94.5843750000000         4.242669736259317E-096
   94.7981250000000         5.185357833858097E-096
   95.0118750000000         5.386615988479177E-096
   95.2256250000000         4.251994431901338E-096
   95.4393750000000         1.127902002369611E-096
   95.6531250000000        -4.559526073942206E-096
   95.8668750000000        -1.308879434396727E-095
   96.0806250000000        -2.415630564993971E-095
   96.2943750000000        -3.654795953410597E-095
   96.5081250000000        -4.783073948286453E-095
   96.7218750000000        -5.416340151221746E-095
   96.9356250000000        -5.036130525938860E-095
   97.1493750000000        -3.037377806204630E-095
   97.3631250000000         1.167194009173736E-095
   97.5768750000000         7.975589967246956E-095
   97.7906250000000         1.735879586546968E-094
   98.0043750000000         2.857624598286257E-094
   98.2181250000000         3.988997714818923E-094
   98.4318750000000         4.835405082152376E-094
   98.6456250000000         4.978699298017832E-094
   98.8593750000000         3.905775500944960E-094
   99.0731250000000         1.081822558797749E-094
   99.2868750000000        -3.921650838184263E-094
   99.5006250000000        -1.124192683662711E-093
   99.7143750000000        -2.049514324728883E-093
   99.9281250000000        -3.053301712376486E-093
   100.141875000000        -3.924235857249199E-093
   100.355625000000        -4.346886369838552E-093
   100.569375000000        -3.916675473170258E-093
   100.783125000000        -2.188182008638618E-093
   100.996875000000         1.234343441609178E-093
   101.210625000000         6.560847434500209E-093
   101.424375000000         1.364021752890158E-092
   101.638125000000         2.176692491626962E-092
   101.851875000000         2.950886257153922E-092
   102.065625000000         3.461522493075490E-092
   102.279375000000         3.407973209293935E-092
   102.493125000000         2.444155015385532E-092
   102.706875000000         2.396084200898478E-093
   102.920625000000        -3.424776466698146E-092
   103.134375000000        -8.529490691626289E-092
   103.348125000000        -1.467089570858969E-091
   103.561875000000        -2.092388531823536E-091
   103.775625000000        -2.575354399084837E-091
   103.989375000000        -2.702937204697461E-091
   104.203125000000        -2.220237181999379E-091
   104.416875000000        -8.700505457559013E-092
   104.630625000000         1.542412223832656E-091
   104.844375000000         5.060748812317198E-091
   105.058125000000         9.472542248227819E-091
   105.271875000000         1.420557768173230E-090
   105.485625000000         1.825240810112320E-090
   105.699375000000         2.016002294525078E-090
   105.913125000000         1.812713129159082E-090
   106.126875000000         1.024992267574993E-090
   106.340625000000        -5.055950698698531E-091
   106.554375000000        -2.845758895180168E-090
   106.768125000000        -5.897674979783354E-090
   106.981875000000        -9.323759168575384E-090
   107.195625000000        -1.248665328494228E-089
   107.409375000000        -1.442879494306707E-089
   107.623125000000        -1.392054743781381E-089
   107.836875000000        -9.605887816767180E-090
   108.050625000000        -2.673633913691315E-091
   108.264375000000         1.478506392111257E-089
   108.478125000000         3.522505102241228E-089
   108.691875000000         5.918375506486308E-089
   108.905625000000         8.279608698367206E-089
   109.119375000000         9.997542103610788E-089
   109.333125000000         1.026077797472372E-088
   109.546875000000         8.136432674220548E-089
   109.760625000000         2.729395212125005E-089
   109.974375000000        -6.574102970612951E-089
   110.188125000000        -1.978948085759131E-088
   110.401875000000        -3.597868226527131E-088
   110.615625000000        -5.292212081943576E-088
   110.829375000000        -6.691394083873310E-088
   111.043125000000        -7.280212840967903E-088
   111.256875000000        -6.440502749293871E-088
   111.470625000000        -3.541940771496567E-088
   111.684375000000         1.911863042552487E-088
   111.898125000000         1.008580567180668E-087
   112.111875000000         2.058273529897475E-087
   112.325625000000         3.221685034973858E-087
   112.539375000000         4.284797209422840E-087
   112.753125000000         4.935107671464390E-087
   112.966875000000         4.780482517808691E-087
   113.180625000000         3.397728542981686E-087
   113.394375000000         4.159641160429492E-088
   113.608125000000        -4.365613819911730E-087
   113.821875000000        -1.083439911075441E-086
   114.035625000000        -1.841530668002537E-086
   114.249375000000        -2.594813287817166E-086
   114.463125000000        -3.163501755752099E-086
   114.676875000000        -3.310914701624226E-086
   114.890625000000        -2.767529485781885E-086
   115.104375000000        -1.276001019870463E-086
   115.318125000000         1.341940529360688E-086
   115.531875000000         5.100438808547225E-086
   115.745625000000         9.756312372122887E-086
   115.959375000000         1.472504175079670E-085
   116.173125000000         1.903050022647768E-085
   116.386875000000         2.131835796648839E-085
   116.600625000000         1.996436320057463E-085
   116.814375000000         1.330339578272075E-085
   117.028125000000        -8.971001540896554E-089
   117.241875000000        -2.051508495032693E-085
   117.455625000000        -4.740114131124391E-085
   117.669375000000        -7.795935803841128E-085
   117.883125000000        -1.071986958344816E-084
   118.096875000000        -1.277721407520563E-084
   118.310625000000        -1.304044066734215E-084
   118.524375000000        -1.049858135094080E-084
   118.738125000000        -4.243248096605651E-085
   118.951875000000         6.270986468624571E-085
   119.165625000000         2.091228611468576E-084
   119.379375000000         3.854671547264450E-084
   119.593125000000         5.677122764628281E-084
   119.806875000000         7.179515878603639E-084
   120.020625000000         7.857415730147788E-084
   120.234375000000         7.129694723896766E-084
   120.448125000000         4.429721104847115E-084
   120.661875000000        -6.596052792872175E-085
   120.875625000000        -8.234851167441263E-084
   121.089375000000        -1.788511829108297E-083
   121.303125000000        -2.852306482006113E-083
   121.516875000000        -3.828104120349328E-083
   121.730625000000        -4.452893641796267E-083
   121.944375000000        -4.407185457397565E-083
   122.158125000000        -3.357501288372632E-083
   122.371875000000        -1.023648800024908E-083
   122.585625000000         2.731645664614374E-083
   122.799375000000         7.799385230771180E-083
   123.013125000000         1.372328618988372E-082
   123.226875000000         1.962472467760729E-082
   123.440625000000         2.418340093873520E-082
   123.654375000000         2.570607826995112E-082
   123.868125000000         2.231250051114205E-082