  -1.60312500000000         0.000000000000000E+000
  -1.38937500000000         0.000000000000000E+000
  -1.17562500000000         0.000000000000000E+000
 -0.961875000000000         0.000000000000000E+000
 -0.748125000000000         0.000000000000000E+000
 -0.534375000000000         0.000000000000000E+000
 -0.320625000000000         0.000000000000000E+000
 -0.106875000000000         0.000000000000000E+000
  0.106875000000000         0.000000000000000E+000
  0.320625000000000         0.000000000000000E+000
  0.534375000000000         0.000000000000000E+000
  0.748125000000000         0.000000000000000E+000
  0.961875000000000         0.000000000000000E+000
   1.17562500000000         0.000000000000000E+000
   1.38937500000000         0.000000000000000E+000
   1.60312500000000         0.000000000000000E+000
   1.81687500000000         0.000000000000000E+000
   2.03062500000000         0.000000000000000E+000
   2.24437500000000         0.000000000000000E+000
   2.45812500000000         0.000000000000000E+000
   2.67187500000000         0.000000000000000E+000
   2.88562500000000         0.000000000000000E+000
   3.09937500000000         0.000000000000000E+000
   3.31312500000000         0.000000000000000E+000
   3.52687500000000         0.000000000000000E+000
   3.74062500000000         0.000000000000000E+000
   3.95437500000000         0.000000000000000E+000
   4.16812500000000         0.000000000000000E+000
   4.38187500000000         0.000000000000000E+000
   4.59562500000000         0.000000000000000E+000
   4.80937500000000         0.000000000000000E+000
   5.02312500000000         0.000000000000000E+000
   5.23687500000000         0.000000000000000E+000
   5.45062500000000         0.000000000000000E+000
   5.66437500000000         0.000000000000000E+000
   5.87812500000000         0.000000000000000E+000
   6.09187500000000         0.000000000000000E+000
   6.30562500000000         0.000000000000000E+000
   6.51937500000000         0.000000000000000E+000
   6.73312500000000         0.000000000000000E+000
   6.94687500000000         0.000000000000000E+000
   7.16062500000000         0.000000000000000E+000
   7.37437500000000         0.000000000000000E+000
   7.58812500000000         0.000000000000000E+000
   7.80187500000000         0.000000000000000E+000
   8.01562500000000         0.000000000000000E+000
   8.22937500000000         0.000000000000000E+000
   8.44312500000000         0.000000000000000E+000
   8.65687500000000         0.000000000000000E+000
   8.87062500000000         0.000000000000000E+000
   9.08437500000000         0.000000000000000E+000
   9.29812500000000         0.000000000000000E+000
   9.51187500000000         0.000000000000000E+000
   9.72562500000000         0.000000000000000E+000
   9.93937500000000         1.194965790843127E-223
   10.1531250000000        -5.718461820577659E-213
   10.3668750000000        -1.142366833032323E-211
   10.5806250000000        -2.590627470859146E-208
   10.7943750000000        -1.786078974721198E-206
   11.0081250000000        -6.455169034955452E-205
   11.2218750000000        -1.705067641696403E-203
   11.4356250000000        -3.832273116418806E-202
   11.6493750000000        -7.759367734663108E-201
   11.8631250000000        -1.414449070416339E-199
   12.0768750000000        -2.288077385151090E-198
   12.2906250000000        -3.265566415621776E-197
   12.5043750000000        -4.130512798108694E-196
   12.7181250000000        -4.678873348268829E-195
   12.9318750000000        -4.807000386627055E-194
   13.1456250000000        -4.535767194507214E-193
   13.3593750000000        -3.973603023555983E-192
   13.5731250000000        -3.258277953180256E-191
   13.7868750000000        -2.512668417588469E-190
   14.0006250000000        -1.825090488796447E-189
   14.2143750000000        -1.247151498843450E-188
   14.4281250000000        -7.992083270261471E-188
   14.6418750000000        -4.780637273660228E-187
   14.8556250000000        -2.652995082867029E-186
   15.0693750000000        -1.354490980516773E-185
   15.2831250000000        -6.281607335910956E-185
   15.4968750000000        -2.587559161717826E-184
   15.7106250000000        -9.026841087504809E-184
   15.9243750000000        -2.318357930956375E-183
   16.1381250000000        -1.313805901693157E-183
   16.3518750000000         3.328651801037576E-182
   16.5656250000000         2.849307759983081E-181
   16.7793750000000         1.602444371431902E-180
   16.9931250000000         7.224796429396971E-180
   17.2068750000000         2.709474444940513E-179
   17.4206250000000         8.222332668625125E-179
   17.6343750000000         1.730882472939387E-178
   17.8481250000000         1.247258906284589E-179
   18.0618750000000        -2.274894995725583E-177
   18.2756250000000        -1.490708241987820E-176
   18.4893750000000        -6.542251507530780E-176
   18.7031250000000        -2.199309294822342E-175
   18.9168750000000        -5.322632231775782E-175
   19.1306250000000        -4.563864587712061E-175
   19.3443750000000         4.289674247801707E-174
   19.5581250000000         3.438617540919132E-173
   19.7718750000000         1.687568487425655E-172
   19.9856250000000         6.566886861942204E-172
   20.1993750000000         2.132911241953107E-171
   20.4131250000000         5.697541933261194E-171
   20.6268750000000         1.114837332934403E-170
   20.8406250000000         5.915022706299343E-171
   21.0543750000000        -8.098428906080216E-170
   21.2681250000000        -5.338743795921377E-169
   21.4818750000000        -2.289474766004666E-168
   21.6956250000000        -7.966530081140483E-168
   21.9093750000000        -2.365218936678594E-167
   22.1231250000000        -5.986194761383124E-167
   22.3368750000000        -1.223650628942607E-166
   22.5506250000000        -1.583292010920266E-166
   22.7643750000000         1.438470741077979E-166
   22.9781250000000         1.946285877474039E-165
   23.1918750000000         8.704931718201203E-165
   23.4056250000000         2.894312001463947E-164
   23.6193750000000         7.943590594175740E-164
   23.8331250000000         1.811496660257921E-163
   24.0468750000000         3.180541165150391E-163
   24.2606250000000         2.698025512033960E-163
   24.4743750000000        -9.001278232306497E-163
   24.6881250000000        -6.137402043807698E-162
   24.9018750000000        -2.309575550308520E-161
   25.1156250000000        -6.839509212069854E-161
   25.3293750000000        -1.704041896051007E-160
   25.5431250000000        -3.563209850899668E-160
   25.7568750000000        -5.789970733421297E-160
   25.9706250000000        -4.713457555435998E-160
   26.1843750000000         1.304942407174676E-159
   26.3981250000000         8.495693218094655E-159
   26.6118750000000         2.982336892994706E-158
   26.8256250000000         8.214587273302456E-158
   27.0393750000000         1.901655743294525E-157
   27.2531250000000         3.689068334925940E-157
   27.4668750000000         5.531966788831186E-157
   27.6806250000000         3.979607926528778E-157
   27.8943750000000        -1.181553371883130E-156
   28.1081250000000        -6.884046291345233E-156
   28.3218750000000        -2.230030497697121E-155
   28.5356250000000        -5.683109864000447E-155
   28.7493750000000        -1.213158352145452E-154
   28.9631250000000        -2.145131356630908E-154
   29.1768750000000        -2.813763826981018E-154
   29.3906250000000        -1.128269770875948E-154
   29.6043750000000         8.532570519414431E-154
   29.8181250000000         3.850683344716638E-153
   30.0318750000000         1.112908957869499E-152
   30.2456250000000         2.588433677071559E-152
   30.4593750000000         5.053925966813323E-152
   30.6731250000000         8.063034732393987E-152
   30.8868750000000         8.927769039181993E-152
   31.1006250000000        -5.016998035964347E-153
   31.3143750000000        -3.935611216703232E-151
   31.5281250000000        -1.449930655113522E-150
   31.7418750000000        -3.774804232246487E-150
   31.9556250000000        -8.075565425532024E-150
   32.1693750000000        -1.456435198044486E-149
   32.3831250000000        -2.127773340322874E-149
   32.5968750000000        -2.040166924009804E-149
   32.8106250000000         8.403242213169540E-150
   33.0243750000000         1.078452747052114E-148
   33.2381250000000         3.530238638460126E-148
   33.4518750000000         8.508569634846527E-148
   33.6656250000000         1.702810500583119E-147
   33.8793750000000         2.879986858746887E-147
   34.0931250000000         3.928440818617386E-147
   34.3068750000000         3.401709233781556E-147
   34.5206250000000        -2.049374325044475E-147
   34.7343750000000        -1.882502141142844E-146
   34.9481250000000        -5.720003665903525E-146
   35.1618750000000        -1.303350218269804E-145
   35.3756250000000        -2.484549190782015E-145
   35.5893750000000        -4.031311841395609E-145
   35.8031250000000        -5.347567690759559E-145
   36.0168750000000        -4.765090568275640E-145
   36.2306250000000         1.260703753749982E-145
   36.4443750000000         1.903810250001603E-144
   36.6581250000000         5.810425933424871E-144
   36.8718750000000         1.302009536019272E-143
   37.0856250000000         2.449556662809291E-143
   37.2993750000000         3.997547524331307E-143
   37.5131250000000         5.610453902390613E-143
   37.7268750000000         6.350801850968170E-143
   37.9406250000000         4.282406546838507E-143
   38.1543750000000        -4.002706419485359E-143
   38.3681250000000        -2.390637150500250E-142
   38.5818750000000        -6.346119402199818E-142
   38.7956250000000        -1.344124221807030E-141
   39.0093750000000        -2.545017768026895E-141
   39.2231250000000        -4.519420080062401E-141
   39.4368750000000        -7.718826770666452E-141
   39.6506250000000        -1.279165268867212E-140
   39.8643750000000        -2.036421811832950E-140
   40.0781250000000        -3.003511898714801E-140
   40.2918750000000        -3.745251558488298E-140
   40.5056250000000        -2.749893222541109E-140
   40.7193750000000         3.919485835636984E-140
   40.9331250000000         2.489775835873799E-139
   41.1468750000000         7.662737803520156E-139
   41.3606250000000         1.861330923514231E-138
   41.5743750000000         3.898178774276407E-138
   41.7881250000000         7.199903573362922E-138
   42.0018750000000         1.163498441400494E-137
   42.2156250000000         1.567594310434231E-137
   42.4293750000000         1.461067395688338E-137
   42.6431250000000        -2.355694296084018E-138
   42.8568750000000        -5.596735978416409E-137
   43.0706250000000        -1.804919786958583E-136
   43.2843750000000        -4.233760358556016E-136
   43.4981250000000        -8.331673704422609E-136
   43.7118750000000        -1.421614942451093E-135
   43.9256250000000        -2.078335621720736E-135
   44.1393750000000        -2.411084637364328E-135
   44.3531250000000        -1.489715384751416E-135
   44.5668750000000         2.496717910971395E-135
   44.7806250000000         1.257649243314165E-134
   44.9943750000000         3.306009029678600E-134
   45.2081250000000         6.877002286277623E-134
   45.4218750000000         1.224321760037310E-133
   45.6356250000000         1.886995259419359E-133
   45.8493750000000         2.428852952714326E-133
   46.0631250000000         2.227341602202317E-133
   46.2768750000000         3.432406930726288E-135
   46.4906250000000        -6.288712375225416E-133
   46.7043750000000        -1.989337755327589E-132
   46.9181250000000        -4.458751438118545E-132
   47.1318750000000        -8.339355275440995E-132
   47.3456250000000        -1.350907832997252E-131
   47.5593750000000        -1.875421078861752E-131
   47.7731250000000        -2.066712512824139E-131
   47.9868750000000        -1.208777867939099E-131
   48.2006250000000         1.967028626301396E-131
   48.4143750000000         9.402173009453656E-131
   48.6281250000000         2.359957240626744E-130
   48.8418750000000         4.696320767321144E-130
   49.0556250000000         8.009277566754715E-130
   49.2693750000000         1.183779118522761E-129
   49.4831250000000         1.462259939554359E-129
   49.6968750000000         1.286426613452807E-129
   49.9106250000000         1.062127622917568E-131
   50.1243750000000        -3.391611461975698E-129
   50.3381250000000        -1.031744728184827E-128
   50.5518750000000        -2.228366190781313E-128
   50.7656250000000        -4.020272808939111E-128
   50.9793750000000        -6.287207869639120E-128
   51.1931250000000        -8.433751476390954E-128
   51.4068750000000        -8.992646034990488E-128
   51.6206250000000        -5.120622866975657E-128
   51.8343750000000         7.886611145676055E-128
   52.0481250000000         3.675192276999126E-127
   52.2618750000000         8.945889246826345E-127
   52.4756250000000         1.726244756169892E-126
   52.6893750000000         2.856718932586821E-126
   52.9031250000000         4.102804023166255E-126
   53.1168750000000         4.939518162304368E-126
   53.3306250000000         4.280618875721407E-126
   53.5443750000000         2.431114548755135E-127
   53.7581250000000        -9.999559553279758E-126
   53.9718750000000        -3.006737877657380E-125
   54.1856250000000        -6.357773806870683E-125
   54.3993750000000        -1.121983788357719E-124
   54.6131250000000        -1.719323798381118E-124
   54.8268750000000        -2.270712640405845E-124
   55.0406250000000        -2.416724714149590E-124
   55.2543750000000        -1.494989266611637E-124
   55.4681250000000         1.545363800015358E-124
   55.6818750000000         8.149078049202732E-124
   55.8956250000000         1.996528589342891E-123
   56.1093750000000         3.828870601651746E-123
   56.3231250000000         6.290306015900517E-123
   56.5368750000000         9.008487697064910E-123
   56.7506250000000         1.096150030378636E-122
   56.9643750000000         1.009316054994814E-122
   57.1781250000000         2.916749775839039E-123
   57.3918750000000        -1.571186205021733E-122
   57.6056250000000        -5.230910260483958E-122
   57.8193750000000        -1.134128126408114E-121
   58.0331250000000        -2.023880065606123E-121
   58.2468750000000        -3.134677334547290E-121
   58.4606250000000        -4.222203065275615E-121
   58.6743750000000        -4.722913298221142E-121
   58.8881250000000        -3.598756163794792E-121
   59.1018750000000         7.958824538162890E-122
   59.3156250000000         1.073114505268811E-120
   59.5293750000000         2.884035892809243E-120
   59.7431250000000         5.733775899940054E-120
   59.9568750000000         9.640310332828590E-120
   60.1706250000000         1.414099569303054E-119
   60.3843750000000         1.788035720257965E-119
   60.5981250000000         1.808243481003125E-119
   60.8118750000000         1.000760297956613E-119
   61.0256250000000        -1.336944587017674E-119
   61.2393750000000        -6.102290344911367E-119
   61.4531250000000        -1.421902862251762E-118
   61.6668750000000        -2.623980708221390E-118
   61.8806250000000        -4.161310067428246E-118
   62.0943750000000        -5.752875822918485E-118
   62.3081250000000        -6.734383192638185E-118
   62.5218750000000        -5.878672910824778E-118
   62.7356250000000        -1.248784486056021E-118
   62.9493750000000         9.808224206006467E-118
   63.1631250000000         3.034896242210913E-117
   63.3768750000000         6.295100532329810E-117
   63.5906250000000         1.079574948774790E-116
   63.8043750000000         1.605717029219201E-116
   64.0181250000000         2.067042709278679E-116
   64.2318750000000         2.179161722151085E-116
   64.4456250000000         1.466147421749584E-116
   64.6593750000000        -7.607016818568420E-117
   64.8731250000000        -5.356024424355517E-116
   65.0868750000000        -1.316533091443224E-115
   65.3006250000000        -2.464688048626453E-115
   65.5143750000000        -3.921645321459943E-115
   65.7281250000000        -5.427462773858605E-115
   65.9418750000000        -6.396583077280296E-115
   66.1556250000000        -5.788930344281051E-115
   66.3693750000000        -2.025322904539041E-115
   66.5831250000000         6.966765702687467E-115
   66.7968750000000         2.344895644028402E-114
   67.0106250000000         4.914560773787485E-114
   67.2243750000000         8.392491354497213E-114
   67.4381250000000         1.237729684913213E-113
   67.6518750000000         1.581101977443130E-113
   67.8656250000000         1.668209152424383E-113
   68.0793750000000         1.178840774369047E-113
   68.2931250000000        -3.279324946862990E-114
   68.5068750000000        -3.369066244583365E-113
   68.7206250000000        -8.414726898471152E-113
   68.9343750000000        -1.565288579612161E-112
   69.1481250000000        -2.461483183753628E-112
   69.3618750000000        -3.366162529583312E-112
   69.5756250000000        -3.938520965126253E-112
   69.7893750000000        -3.606566870179587E-112
   70.0031250000000        -1.544874994009548E-112
   70.2168750000000         3.274634389143647E-112
   70.4306250000000         1.190414995149370E-111
   70.6443750000000         2.505197252375018E-111
   70.8581250000000         4.247240365172757E-111
   71.0718750000000         6.209794368582699E-111
   71.2856250000000         7.897675497414655E-111
   71.4993750000000         8.420934408522366E-111
   71.7131250000000         6.426443650374625E-111
   71.9268750000000         1.280495161627866E-112
   72.1406250000000        -1.248157910540527E-110
   72.3543750000000        -3.313990227790716E-110
   72.5681250000000        -6.245279969012545E-110
   72.7818750000000        -9.861343587436875E-110
   72.9956250000000        -1.357504320542403E-109
   73.2093750000000        -1.621220053857839E-109
   73.4231250000000        -1.586169594085090E-109
   73.6368750000000        -9.832999210347895E-110
   73.8506250000000         5.169776578389284E-110
   74.0643750000000         3.252299285158629E-109
   74.2781250000000         7.466911840509691E-109
   74.4918750000000         1.315090205302700E-108
   74.7056250000000         1.981918586202940E-108
   74.9193750000000         2.624675517009434E-108
   75.1331250000000         3.020309740776651E-108
   75.3468750000000         2.826351104290119E-108
   75.5606250000000         1.581488506906641E-108
   75.7743750000000        -1.258861214433146E-108
   75.9881250000000        -6.233980046862969E-108
   76.2018750000000        -1.371863960215544E-107
   76.4156250000000        -2.368069090139280E-107
   76.6293750000000        -3.535456125932444E-107
   76.8431250000000        -4.684975012567890E-107
   77.0568750000000        -5.474284525987949E-107
   77.2706250000000        -5.374069159187533E-107
   77.4843750000000        -3.655021074864941E-107
   77.6981250000000         5.855329728714445E-108
   77.9118750000000         8.332717516178590E-107
   78.1256250000000         2.046906394802664E-106
   78.3393750000000         3.746196819584028E-106
   78.5531250000000         5.889063380420824E-106
   78.7668750000000         8.278764545223788E-106
   78.9806250000000         1.047929734317857E-105
   79.1943750000000         1.171658210467859E-105
   79.4081250000000         1.077870009072886E-105
   79.6218750000000         5.942924676890145E-106
   79.8356250000000        -5.020849859829205E-106
   80.0493750000000        -2.469086867979216E-105
   80.2631250000000        -5.556350440547409E-105
   80.4768750000000        -9.920365128882406E-105
   80.6906250000000        -1.548102440596840E-104
   80.9043750000000        -2.170595735618233E-104
   81.1181250000000        -2.732013655203023E-104
   81.3318750000000        -2.996300502930409E-104
   81.5456250000000        -2.585892858200287E-104
   81.7593750000000        -9.632780455254111E-105
   81.9731250000000         2.551038984144581E-104
   82.1868750000000         8.692523105452183E-104
   82.4006250000000         1.805875904368175E-103
   82.6143750000000         3.076610904163376E-103
   82.8281250000000         4.592676724886223E-103
   83.0418750000000         6.095031073058302E-103
   83.2556250000000         7.074079350947774E-103
   83.4693750000000         6.696806101882688E-103
   83.6831250000000         3.774114393730877E-103
   83.8968750000000        -3.181099150226712E-103
   84.1106250000000        -1.573765520257509E-102
   84.3243750000000        -3.509470137267813E-102
   84.5381250000000        -6.132687892817956E-102
   84.7518750000000        -9.229798619295457E-102
   84.9656250000000        -1.223025057651999E-101
   85.1793750000000        -1.406420888103822E-101
   85.3931250000000        -1.305564171953000E-101
   85.6068750000000        -6.919083487269238E-102
   85.8206250000000         7.044694034843314E-102
   86.0343750000000         3.143966897509475E-101
   86.2481250000000         6.783971057809998E-101
   86.4618750000000         1.153563760338508E-100
   86.6756250000000         1.687384830244597E-100
   86.8893750000000         2.162113270456450E-100
   87.1031250000000         2.375289408901640E-100
   87.3168750000000         2.030526472973553E-100
   87.5306250000000         7.503604044946753E-101
   87.7443750000000        -1.874055038520996E-100
   87.9581250000000        -6.180877068804646E-100
   88.1718750000000        -1.227118167976472E-099
   88.3856250000000        -1.977668764518856E-099
   88.5993750000000        -2.757952941154804E-099
   88.8131250000000        -3.353193990427470E-099
   89.0268750000000        -3.426315810074373E-099
   89.2406250000000        -2.520521223736754E-099
   89.4543750000000        -1.008531840653530E-100
   89.6681250000000         4.346367839809292E-099
   89.8818750000000         1.113993494246043E-098
   90.0956250000000         2.014936893600651E-098
   90.3093750000000         3.047256531553909E-098
   90.5231250000000         4.008913273211588E-098
   90.7368750000000         4.557490398934038E-098
   90.9506250000000         4.201172822787647E-098
   91.1643750000000         2.327262539896311E-098
   91.3781250000000        -1.711023377930825E-098
   91.5918750000000        -8.430099088340756E-098
   91.8056250000000        -1.796274365364238E-097
   92.0193750000000        -2.972267603082515E-097
   92.2331250000000        -4.202299252669194E-097
   92.4468750000000        -5.172540535442216E-097
   92.6606250000000        -5.404624967693797E-097
   92.8743750000000        -4.269396732948822E-097
   93.0881250000000        -1.054668887454932E-097
   93.3018750000000         4.892328663881577E-097
   93.5156250000000         1.393346676512470E-096
   93.7293750000000         2.582001224548317E-096
   93.9431250000000         3.931153312033912E-096
   94.1568750000000         5.179749794486095E-096
   94.3706250000000         5.903151886357177E-096
   94.5843750000000         5.513567993428636E-096
   94.7981250000000         3.306905434396201E-096
   95.0118750000000        -1.423788198175542E-096
   95.2256250000000        -9.192553851675596E-096
   95.4393750000000        -2.003872034277334E-095
   95.6531250000000        -3.317698095605068E-095
   95.8668750000000        -4.662903794476865E-095
   96.0806250000000        -5.692662339766346E-095
   96.2943750000000        -5.901867610330738E-095
   96.5081250000000        -4.655119476226981E-095
   96.7218750000000        -1.270178329015515E-095
   96.9356250000000         4.827695290726707E-095
   97.1493750000000         1.387408454304386E-094
   97.3631250000000         2.546693829090581E-094
   97.5768750000000         3.823735137527639E-094
   97.7906250000000         4.955872720458535E-094
   98.0043750000000         5.539987038505576E-094
   98.2181250000000         5.045960250688967E-094
   98.4318750000000         2.873640847167899E-094
   98.6456250000000        -1.532876254274755E-094
   98.8593750000000        -8.506176817752119E-094
   99.0731250000000        -1.791677468771885E-093
   99.2868750000000        -2.889935066415965E-093
   99.5006250000000        -3.959445984758629E-093
   99.7143750000000        -4.698534282527192E-093
   99.9281250000000        -4.693628408912357E-093
   100.141875000000        -3.455463005101344E-093
   100.355625000000        -4.991616740972857E-094
   100.569375000000         4.524526789122260E-093
   100.783125000000         1.164851147550128E-092
   100.996875000000         2.037511846833775E-092
   101.210625000000         2.946351538327423E-092
   101.424375000000         3.677620479825912E-092
   101.638125000000         3.926316256892715E-092
   101.851875000000         3.317602017043750E-092
   102.065625000000         1.460280892163914E-092
   102.279375000000        -1.961326822283733E-092
   102.493125000000        -7.056855109022969E-092
   102.706875000000        -1.357048145514718E-091
   102.920625000000        -2.071616076041301E-091
   103.134375000000        -2.704724719213099E-091
   103.348125000000        -3.041619156308214E-091
   103.561875000000        -2.809131355640954E-091
   103.775625000000        -1.709847519318577E-091
   103.989375000000         5.160902738203338E-092
   104.203125000000         4.000401166629566E-091
   104.416875000000         8.632924084771391E-091
   104.630625000000         1.393982697570634E-090
   104.844375000000         1.898028145455839E-090
   105.058125000000         2.229965712706145E-090
   105.271875000000         2.198605453146003E-090
   105.485625000000         1.587902541605725E-090
   105.699375000000         1.970002365253403E-091
   105.913125000000        -2.099121082055119E-090
   106.126875000000        -5.271366511714135E-090
   106.340625000000        -9.049918517009569E-090
   106.554375000000        -1.284635119349630E-089
   106.768125000000        -1.570958877939902E-089
   106.981875000000        -1.634733930286557E-089
   107.195625000000        -1.324699161050887E-089
   107.409375000000        -4.925094079547673E-090
   107.623125000000         9.680626292443735E-090
   107.836875000000         3.069045788109196E-089
   108.050625000000         5.668754843842197E-089
   108.264375000000         8.415387670760566E-089
   108.478125000000         1.070974645911051E-088
   108.691875000000         1.170775439932299E-088
   108.905625000000         1.038565558318835E-088
   109.119375000000         5.688575109149256E-089
   109.333125000000        -3.225549414525299E-089
   109.546875000000        -1.665136567790210E-088
   109.760625000000        -3.394079771012636E-088
   109.974375000000        -5.310947768391301E-088
   110.188125000000        -7.054318090769737E-088
   110.401875000000        -8.093472700041963E-088
   110.615625000000        -7.760037058240563E-088
   110.829375000000        -5.331724363324183E-088
   111.043125000000        -1.776909077363570E-089
   111.256875000000         8.034627438019683E-088
   111.470625000000         1.908642030745218E-087
   111.684375000000         3.194332298189568E-087
   111.898125000000         4.453801156083361E-087
   112.111875000000         5.367887383956941E-087
   112.325625000000         5.517834300968282E-087
   112.539375000000         4.429414114928630E-087
   112.753125000000         1.655362138091722E-087
   112.966875000000        -3.102147201536855E-087
   113.180625000000        -9.835901685733379E-087
   113.394375000000        -1.806364850784541E-086
   113.608125000000        -2.667626200401124E-086
   113.821875000000        -3.385038399217753E-086
   114.035625000000        -3.708208449222914E-086
   114.249375000000        -3.340049981791158E-086
   114.463125000000        -1.981011706488925E-086
   114.676875000000         6.017092889719490E-087
   114.890625000000         4.482596824172749E-086
   115.104375000000         9.473225079092027E-086
   115.318125000000         1.502213444587780E-085
   115.531875000000         2.014510091493192E-085
   115.745625000000         2.341862833489880E-085
   115.959375000000         2.307240678719544E-085
   116.173125000000         1.721258479812374E-085
   116.386875000000         4.194271248760000E-086
   116.600625000000        -1.686322812280685E-085
   116.814375000000        -4.546161321383764E-085
   117.028125000000        -7.909854383188549E-085
   117.241875000000        -1.127715282035393E-084
   117.455625000000        -1.387939114307717E-084
   117.669375000000        -1.471309234433090E-084
   117.883125000000        -1.264535237713844E-084
   118.096875000000        -6.604654563282298E-085
   118.310625000000         4.141715689490225E-085
   118.524375000000         1.964176329438207E-084
   118.738125000000         3.888767066430947E-084
   118.951875000000         5.949113228521301E-084
   119.165625000000         7.750348428611977E-084
   119.379375000000         8.749702432635959E-084
   119.593125000000         8.302472700592869E-084
   119.806875000000         5.755006728416339E-084
   120.020625000000         5.879158591312724E-085
   120.234375000000        -7.397001297737339E-084
   120.448125000000        -1.786590975769803E-083
   120.661875000000        -2.975351839794482E-083
   120.875625000000        -4.112597529238544E-083
   121.089375000000        -4.916892177092884E-083
   121.303125000000        -5.036742002067969E-083
   121.516875000000        -4.093528298219425E-083
   121.730625000000        -1.752455528184675E-083
   121.944375000000         2.180134446535080E-083
   122.158125000000         7.641471813347356E-083
   122.371875000000         1.419574445189451E-082
   122.585625000000         2.094151369677713E-082
   122.799375000000         2.647593253626902E-082
   123.013125000000         2.895238053145063E-082
   123.226875000000         2.626575736537810E-082
   123.440625000000         1.638852344049717E-082
   123.654375000000        -2.141250165962235E-083
   123.868125000000        -2.961152418546787E-082