  -1.60312500000000         0.000000000000000E+000
  -1.38937500000000         0.000000000000000E+000
  -1.17562500000000         0.000000000000000E+000
 -0.961875000000000         0.000000000000000E+000
 -0.748125000000000         0.000000000000000E+000
 -0.534375000000000         0.000000000000000E+000
 -0.320625000000000         0.000000000000000E+000
 -0.106875000000000         0.000000000000000E+000
  0.106875000000000         0.000000000000000E+000
  0.320625000000000         0.000000000000000E+000
  0.534375000000000         0.000000000000000E+000
  0.748125000000000         0.000000000000000E+000
  0.961875000000000         0.000000000000000E+000
   1.17562500000000         0.000000000000000E+000
   1.38937500000000         0.000000000000000E+000
   1.60312500000000         0.000000000000000E+000
   1.81687500000000         0.000000000000000E+000
   2.03062500000000         0.000000000000000E+000
   2.24437500000000         0.000000000000000E+000
   2.45812500000000         0.000000000000000E+000
   2.67187500000000         0.000000000000000E+000
   2.88562500000000         0.000000000000000E+000
   3.09937500000000         0.000000000000000E+000
   3.31312500000000         0.000000000000000E+000
   3.52687500000000         0.000000000000000E+000
   3.74062500000000         0.000000000000000E+000
   3.95437500000000         0.000000000000000E+000
   4.16812500000000         0.000000000000000E+000
   4.38187500000000         0.000000000000000E+000
   4.59562500000000         0.000000000000000E+000
   4.80937500000000         0.000000000000000E+000
   5.02312500000000         0.000000000000000E+000
   5.23687500000000         0.000000000000000E+000
   5.45062500000000         0.000000000000000E+000
   5.66437500000000         0.000000000000000E+000
   5.87812500000000         0.000000000000000E+000
   6.09187500000000         0.000000000000000E+000
   6.30562500000000         0.000000000000000E+000
   6.51937500000000         0.000000000000000E+000
   6.73312500000000         0.000000000000000E+000
   6.94687500000000         0.000000000000000E+000
   7.16062500000000         0.000000000000000E+000
   7.37437500000000         0.000000000000000E+000
   7.58812500000000         0.000000000000000E+000
   7.80187500000000         0.000000000000000E+000
   8.01562500000000         0.000000000000000E+000
   8.22937500000000         0.000000000000000E+000
   8.44312500000000         0.000000000000000E+000
   8.65687500000000         0.000000000000000E+000
   8.87062500000000         0.000000000000000E+000
   9.08437500000000         0.000000000000000E+000
   9.29812500000000         0.000000000000000E+000
   9.51187500000000         0.000000000000000E+000
   9.72562500000000         0.000000000000000E+000
   9.93937500000000         0.000000000000000E+000
   10.1531250000000         5.459686670319365E-225
   10.3668750000000        -2.612711595133170E-214
   10.5806250000000        -5.741909282266177E-213
   10.7943750000000        -1.184755659043506E-209
   11.0081250000000        -8.397321103313150E-208
   11.2218750000000        -3.116067881268662E-206
   11.4356250000000        -8.405110459969870E-205
   11.6493750000000        -1.915915800649414E-203
   11.8631250000000        -3.919960423564973E-202
   12.0768750000000        -7.227318124838401E-201
   12.2906250000000        -1.186027508623250E-199
   12.5043750000000        -1.721984864212255E-198
   12.7181250000000        -2.219729271654598E-197
   12.9318750000000        -2.564459374075183E-196
   13.1456250000000        -2.686967993119767E-195
   13.3593750000000        -2.584098513236098E-194
   13.5731250000000        -2.305451991650404E-193
   13.7868750000000        -1.923926063649967E-192
   14.0006250000000        -1.509745336543246E-191
   14.2143750000000        -1.116576540779913E-190
   14.4281250000000        -7.780296825668210E-190
   14.6418750000000        -5.095909631457458E-189
   14.8556250000000        -3.125607309895726E-188
   15.0693750000000        -1.786290947197615E-187
   15.2831250000000        -9.448563469857366E-187
   15.4968750000000        -4.581091100960653E-186
   15.7106250000000        -2.003964108115290E-185
   15.9243750000000        -7.674098172380264E-185
   16.1381250000000        -2.393659227712888E-184
   16.3518750000000        -4.620174237741028E-184
   16.5656250000000         8.361608770065172E-184
   16.7793750000000         1.515255921054733E-182
   16.9931250000000         1.026831385832135E-181
   17.2068750000000         5.203078935683748E-181
   17.4206250000000         2.175866121123935E-180
   17.6343750000000         7.588131060605545E-180
   17.8481250000000         2.090863574871538E-179
   18.0618750000000         3.479900133805441E-179
   18.2756250000000        -5.524845271324997E-179
   18.4893750000000        -8.263865271390204E-178
   18.7031250000000        -4.586617981747718E-177
   18.9168750000000        -1.839528741915330E-176
   19.1306250000000        -5.652256452677070E-176
   19.3443750000000        -1.155017110733394E-175
   19.5581250000000         2.151033719254440E-176
   19.7718750000000         1.729594502864934E-174
   19.9856250000000         1.114802087803944E-173
   20.1993750000000         5.056993767978457E-173
   20.4131250000000         1.874425695220778E-172
   20.6268750000000         5.846305508495127E-172
   20.8406250000000         1.491177257994680E-171
   21.0543750000000         2.667975807256876E-171
   21.2681250000000         1.446781121020182E-172
   21.4818750000000        -2.677083947938673E-170
   21.6956250000000        -1.582903127470355E-169
   21.9093750000000        -6.537930768000420E-169
   22.1231250000000        -2.229942199093966E-168
   22.3368750000000        -6.541127587287951E-168
   22.5506250000000        -1.644305798187424E-167
   22.7643750000000        -3.357890114072921E-167
   22.9781250000000        -4.414250634023087E-167
   23.1918750000000         3.421786555904619E-167
   23.4056250000000         5.102984067894502E-166
   23.6193750000000         2.308762967313718E-165
   23.8331250000000         7.736579599155062E-165
   24.0468750000000         2.144095464390294E-164
   24.2606250000000         4.967692409648871E-164
   24.4743750000000         9.023991917366590E-164
   24.6881250000000         8.967691787726895E-164
   24.9018750000000        -1.912982289862855E-163
   25.1156250000000        -1.527496792515019E-162
   25.3293750000000        -5.988602994639605E-162
   25.5431250000000        -1.823531686589348E-161
   25.7568750000000        -4.676200249498442E-161
   25.9706250000000        -1.017425215953210E-160
   26.1843750000000        -1.782583863797988E-160
   26.3981250000000        -1.951526559639724E-160
   26.6118750000000         1.761133328742065E-160
   26.8256250000000         1.909981088713295E-159
   27.0393750000000         7.397016757968587E-159
   27.2531250000000         2.157253923811063E-158
   27.4668750000000         5.260306909037287E-158
   27.6806250000000         1.089086365789184E-157
   27.8943750000000         1.833966595955308E-157
   28.1081250000000         2.039006167570891E-157
   28.3218750000000        -9.012104733951814E-158
   28.5356250000000        -1.403022739298023E-156
   28.7493750000000        -5.312484048963356E-156
   28.9631250000000        -1.476475213598574E-155
   29.1768750000000        -3.401792428539006E-155
   29.3906250000000        -6.612691956991188E-155
   29.6043750000000        -1.033908736622749E-154
   29.8181250000000        -1.016703129799195E-154
   30.0318750000000         7.598435970690325E-155
   30.2456250000000         7.621167017228200E-154
   30.4593750000000         2.630880124227009E-153
   30.6731250000000         6.808734940412267E-153
   30.8868750000000         1.467051473487772E-152
   31.1006250000000         2.661130850551069E-152
   31.3143750000000         3.832288033931610E-152
   31.5281250000000         3.205301348755600E-152
   31.7418750000000        -4.046282568635171E-152
   31.9556250000000        -2.854459313526336E-151
   32.1693750000000        -8.993940504688874E-151
   32.3831250000000        -2.178773757491685E-150
   32.5968750000000        -4.430313155832938E-150
   32.8106250000000        -7.613985695189355E-150
   33.0243750000000        -1.041372197586563E-149
   33.2381250000000        -8.286108760205844E-150
   33.4518750000000         9.970833834705903E-150
   33.6656250000000         6.710263341282815E-149
   33.8793750000000         2.020342483777487E-148
   34.0931250000000         4.685497629311345E-148
   34.3068750000000         9.145520555738812E-148
   34.5206250000000         1.515975254005700E-147
   34.7343750000000         2.023764460814667E-147
   34.9481250000000         1.671456087793043E-147
   35.1618750000000        -1.294268335145533E-147
   35.3756250000000        -1.021487771627588E-146
   35.5893750000000        -3.048715942360263E-146
   35.8031250000000        -6.917812699878077E-146
   36.0168750000000        -1.323016300185683E-145
   36.2306250000000        -2.171963851175665E-145
   36.4443750000000        -2.963311029566578E-145
   36.6581250000000        -2.884825152952855E-145
   36.8718750000000        -1.516101401004323E-146
   37.0856250000000         8.530364379430040E-145
   37.2993750000000         2.840413364539902E-144
   37.5131250000000         6.654232277995733E-144
   37.7268750000000         1.303141498144850E-143
   37.9406250000000         2.231021951184127E-143
   38.1543750000000         3.354561544592318E-143
   38.3681250000000         4.295221234231490E-143
   38.5818750000000         4.143621222030386E-143
   38.7956250000000         1.092538749833582E-143
   39.0093750000000        -8.099721280153747E-143
   39.2231250000000        -2.891992889684019E-142
   39.4368750000000        -7.038894316369925E-142
   39.6506250000000        -1.471245533057236E-141
   39.8643750000000        -2.823040253648513E-141
   40.0781250000000        -5.105257008611777E-141
   40.2918750000000        -8.759750192173785E-141
   40.5056250000000        -1.412541370107574E-140
   40.7193750000000        -2.074747764310775E-140
   40.9331250000000        -2.557876525201693E-140
   41.1468750000000        -1.903450048330337E-140
   41.3606250000000         2.252009492802475E-140
   41.5743750000000         1.491171552369771E-139
   41.7881250000000         4.538183492000176E-139
   42.0018750000000         1.087476387520410E-138
   42.2156250000000         2.252725955918800E-138
   42.4293750000000         4.134194668557930E-138
   42.6431250000000         6.683211376780227E-138
   42.8568750000000         9.124598621077852E-138
   43.0706250000000         9.008889666236810E-138
   43.2843750000000         6.466714160120368E-139
   43.4981250000000        -2.705920099742157E-137
   43.7118750000000        -9.283170947195231E-137
   43.9256250000000        -2.235564719030649E-136
   44.1393750000000        -4.492384404509525E-136
   44.3531250000000        -7.850806056881688E-136
   44.5668750000000        -1.188986470246503E-135
   44.7806250000000        -1.478819634125598E-135
   44.9943750000000        -1.194044649196106E-135
   45.2081250000000         6.012148675588865E-136
   45.4218750000000         5.538512257017692E-135
   45.6356250000000         1.606962098792196E-134
   45.8493750000000         3.522223415330771E-134
   46.0631250000000         6.547204875468092E-134
   46.2768750000000         1.058983783232413E-133
   46.4906250000000         1.464815313465850E-133
   46.7043750000000         1.583321470943090E-133
   46.9181250000000         7.929178580526111E-134
   47.1318750000000        -2.034647486119498E-133
   47.3456250000000        -8.672386074184882E-133
   47.5593750000000        -2.148229590360538E-132
   47.7731250000000        -4.286082882161906E-132
   47.9868750000000        -7.368197745642812E-132
   48.2006250000000        -1.100259188469259E-131
   48.4143750000000        -1.373826908527863E-131
   48.6281250000000        -1.217818158321725E-131
   48.8418750000000         1.643293052763781E-133
   49.0556250000000         3.396388949958840E-131
   49.2693750000000         1.043570880266308E-130
   49.4831250000000         2.288360446860546E-130
   49.6968750000000         4.201242871150236E-130
   49.9106250000000         6.701881554877012E-130
   50.1243750000000         9.207373000138437E-130
   50.3381250000000         1.016326896478062E-129
   50.5518750000000         6.405219992414600E-130
   50.7656250000000        -7.534025196300848E-130
   50.9793750000000        -3.984151994848326E-129
   51.1931250000000        -1.008746780313090E-128
   51.4068750000000        -2.004408559455642E-128
   51.6206250000000        -3.410935905331250E-128
   51.8343750000000        -5.051419709415036E-128
   52.0481250000000        -6.331571643950838E-128
   52.2618750000000        -5.932562682053334E-128
   52.4756250000000        -1.446260790992556E-128
   52.6893750000000         1.092709155556256E-127
   52.9031250000000         3.635252488770693E-127
   53.1168750000000         8.052328516382075E-127
   53.3306250000000         1.472622408436755E-126
   53.5443750000000         2.335589428586816E-126
   53.7581250000000         3.209663983193153E-126
   53.9718750000000         3.626868036397218E-126
   54.1856250000000         2.670321741467227E-126
   54.3993750000000        -1.191031801692535E-126
   54.6131250000000        -1.017862408787856E-125
   54.8268750000000        -2.702164562226181E-125
   55.0406250000000        -5.423934033134932E-125
   55.2543750000000        -9.249882369144432E-125
   55.4681250000000        -1.375887728554442E-124
   55.6818750000000        -1.756180996950302E-124
   55.8956250000000        -1.764150529038760E-124
   56.1093750000000        -8.599248661119769E-125
   56.3231250000000         1.793675879047597E-124
   56.5368750000000         7.321258471253219E-124
   56.7506250000000         1.696473463767564E-123
   56.9643750000000         3.161641752883270E-123
   57.1781250000000         5.087957085188089E-123
   57.3918750000000         7.147535980298083E-123
   57.6056250000000         8.489254628204313E-123
   57.8193750000000         7.441019417879120E-123
   58.0331250000000         1.211059122507099E-123
   58.2468750000000        -1.426581945386313E-122
   58.4606250000000        -4.406474489577983E-122
   58.6743750000000        -9.315452031140341E-122
   58.8881250000000        -1.638228438134777E-121
   59.1018750000000        -2.509335468445401E-121
   59.3156250000000        -3.344079375580958E-121
   59.5293750000000        -3.688527325707684E-121
   59.7431250000000        -2.715286314246358E-121
   59.9568750000000         8.776631517485154E-122
   60.1706250000000         8.875180030903402E-121
   60.3843750000000         2.333358527036931E-120
   60.5981250000000         4.596135808734509E-120
   60.8118750000000         7.685082584619781E-120
   61.0256250000000         1.123126735851363E-119
   61.2393750000000         1.416661468445461E-119
   61.4531250000000         1.431388276077757E-119
   61.6668750000000         7.964609962865570E-120
   61.8806250000000        -1.037338469271855E-119
   62.0943750000000        -4.772401492356353E-119
   62.3081250000000        -1.113589954572146E-118
   62.5218750000000        -2.057627414496053E-118
   62.7356250000000        -3.270255928459690E-118
   62.9493750000000        -4.539940234855770E-118
   63.1631250000000        -5.361495972489608E-118
   63.3768750000000        -4.796436069209550E-118
   63.5906250000000        -1.355203749275494E-118
   63.8043750000000         7.018505301459121E-118
   64.0181250000000         2.272858492272477E-117
   64.2318750000000         4.788278889743071E-117
   64.4456250000000         8.299337848423351E-117
   64.6593750000000         1.248026581896894E-116
   64.8731250000000         1.631363632265240E-116
   65.0868750000000         1.769988947957681E-116
   65.3006250000000         1.307102636667444E-116
   65.5143750000000        -2.818765375897621E-117
   65.7281250000000        -3.662618693797127E-116
   65.9418750000000        -9.523117708916985E-116
   66.1556250000000        -1.830615556407985E-115
   66.3693750000000        -2.973410142232277E-115
   66.5831250000000        -4.208739832824733E-115
   66.7968750000000        -5.125764529804244E-115
   67.0106250000000        -4.971428390423843E-115
   67.2243750000000        -2.571675507507193E-115
   67.4381250000000         3.662527995672783E-115
   67.6518750000000         1.555180239206326E-114
   67.8656250000000         3.466498349508101E-114
   68.0793750000000         6.140005582091776E-114
   68.2931250000000         9.352114112852406E-114
   68.5068750000000         1.241439336115800E-113
   68.7206250000000         1.393737782730951E-113
   68.9343750000000         1.161575246161421E-113
   69.1481250000000         2.142470321475295E-114
   69.3618750000000        -1.857709772118547E-113
   69.5756250000000        -5.467634678377524E-113
   69.7893750000000        -1.087703288996864E-112
   70.0031250000000        -1.793423769298039E-112
   70.2168750000000        -2.569728139755205E-112
   70.4306250000000        -3.196417534942136E-112
   70.6443750000000        -3.279217478985901E-112
   70.8581250000000        -2.217416284643760E-112
   71.0718750000000         7.849092146673896E-113
   71.2856250000000         6.624431544161770E-112
   71.4993750000000         1.607232776771712E-111
   71.7131250000000         2.936766997626625E-111
   71.9268750000000         4.559919404076232E-111
   72.1406250000000         6.188922272872897E-111
   72.3543750000000         7.247653493824005E-111
   72.5681250000000         6.792253648355920E-111
   72.7818750000000         3.483443934545712E-111
   72.9956250000000        -4.330921214268271E-111
   73.2093750000000        -1.834759633761043E-110
   73.4231250000000        -3.977147389764901E-110
   73.6368750000000        -6.844241162966294E-110
   73.8506250000000        -1.016059545165172E-109
   74.0643750000000        -1.324074749513608E-109
   74.2781250000000        -1.483495448553727E-109
   74.4918750000000        -1.301759945830808E-109
   74.7056250000000        -5.191720572757612E-110
   74.9193750000000         1.168935852828664E-109
   75.1331250000000         4.056233400321727E-109
   75.3468750000000         8.323482152971821E-109
   75.5606250000000         1.388206422813047E-108
   75.7743750000000         2.016321357564001E-108
   75.9881250000000         2.586920103609893E-108
   76.2018750000000         2.872694145670910E-108
   76.4156250000000         2.531676405534072E-108
   76.6293750000000         1.108710098760319E-108
   76.8431250000000        -1.929572967050789E-108
   77.0568750000000        -7.108377194463421E-108
   77.2706250000000        -1.478833070038252E-107
   77.4843750000000        -2.492364602323603E-107
   77.6981250000000        -3.672890620937275E-107
   77.9118750000000        -4.826664186957614E-107
   78.1256250000000        -5.599723701586423E-107
   78.3393750000000        -5.437570874177347E-107
   78.5531250000000        -3.563815840495514E-107
   78.7668750000000         1.000597041731404E-107
   78.9806250000000         9.347499831253456E-107
   79.1943750000000         2.248229533346120E-106
   79.4081250000000         4.097028735633936E-106
   79.6218750000000         6.438296640035819E-106
   79.8356250000000         9.051091201432928E-106
   80.0493750000000         1.143448783978118E-105
   80.2631250000000         1.268978183583912E-105
   80.4768750000000         1.140643140639633E-105
   80.6906250000000         5.590559152990259E-106
   80.9043750000000        -7.298448016898974E-106
   81.1181250000000        -3.010470360947769E-105
   81.3318750000000        -6.539327346639886E-105
   81.5456250000000        -1.143716594180369E-104
   81.7593750000000        -1.751647474113366E-104
   81.9731250000000        -2.403589624873251E-104
   82.1868750000000        -2.938977196046618E-104
   82.4006250000000        -3.077211535772288E-104
   82.6143750000000        -2.390358104878740E-104
   82.8281250000000        -2.978299951001732E-105
   83.0418750000000         3.893049053934609E-104
   83.2556250000000         1.086869065933342E-103
   83.4693750000000         2.107641280068637E-103
   83.6831250000000         3.434384286743228E-103
   83.8968750000000         4.933563041835141E-103
   84.1106250000000         6.287400359033648E-103
   84.3243750000000         6.922198964078255E-103
   84.5381250000000         5.953553564687729E-103
   84.7518750000000         2.182940561017679E-103
   84.9656250000000        -5.804680902446410E-103
   85.1793750000000        -1.938018919572332E-102
   85.3931250000000        -3.938150267478834E-102
   85.6068750000000        -6.534781645886549E-102
   85.8206250000000        -9.447539462186829E-102
   86.0343750000000        -1.203843181243577E-101
   86.2481250000000        -1.319287516190230E-101
   86.4618750000000        -1.124778573478411E-101
   86.6756250000000        -4.032171633281811E-102
   86.8893750000000         1.089294556528022E-101
   87.1031250000000         3.569655559843865E-101
   87.3168750000000         7.135264025748660E-101
   87.5306250000000         1.162860100096939E-100
   87.7443750000000         1.646477061037494E-100
   87.9581250000000         2.044470204194623E-100
   88.1718750000000         2.160064868650321E-100
   88.3856250000000         1.715000746390393E-100
   88.5993750000000         3.663583062664663E-101
   88.8131250000000        -2.242366976862264E-100
   89.0268750000000        -6.383135158023649E-100
   89.2406250000000        -1.208935491109729E-099
   89.4543750000000        -1.894717718140979E-099
   89.6681250000000        -2.585107832602315E-099
   89.8818750000000        -3.076916475182614E-099
   90.0956250000000        -3.059751933930904E-099
   90.3093750000000        -2.121981616026436E-099
   90.5231250000000         2.080516431150313E-100
   90.7368750000000         4.369719793224933E-099
   90.9506250000000         1.061366258013531E-098
   91.1643750000000         1.877708184378214E-098
   91.3781250000000         2.800380554382129E-098
   91.5918750000000         3.644877870332801E-098
   91.8056250000000         4.104211862155080E-098
   92.0193750000000         3.742844936514614E-098
   92.2331250000000         2.023476808034524E-098
   92.4468750000000        -1.615882452434626E-098
   92.6606250000000        -7.618526990979801E-098
   92.8743750000000        -1.609049400890520E-097
   93.0881250000000        -2.651310836852055E-097
   93.3018750000000        -3.741759105529323E-097
   93.5156250000000        -4.608681464111965E-097
   93.7293750000000        -4.838996788821151E-097
   93.9431250000000        -3.889619960295690E-097
   94.1568750000000        -1.144136038064238E-097
   94.3706250000000         3.967927005113587E-097
   94.5843750000000         1.177708480311907E-096
   94.7981250000000         2.210534012762216E-096
   95.0118750000000         3.394448954286243E-096
   95.2256250000000         4.513312347837066E-096
   95.4393750000000         5.212176573924065E-096
   95.6531250000000         4.995490453850073E-096
   95.8668750000000         3.262979177313772E-096
   96.0806250000000        -5.999691281959331E-097
   96.2943750000000        -7.063841488035446E-096
   96.5081250000000        -1.622422182902623E-095
   96.7218750000000        -2.751148261696003E-095
   96.9356250000000        -3.937907597549918E-095
   97.1493750000000        -4.904094061534868E-095
   97.3631250000000        -5.236386609702398E-095
   97.5768750000000        -4.405118622613093E-095
   97.7906250000000        -1.826821898704326E-095
   98.0043750000000         3.015766609875192E-095
   98.2181250000000         1.038952325896942E-094
   98.4318750000000         2.006873184072609E-094
   98.6456250000000         3.106087998517082E-094
   98.8593750000000         4.135267133975231E-094
   99.0731250000000         4.775807025171052E-094
   99.2868750000000         4.597746277861270E-094
   99.5006250000000         3.099301291847279E-094
   99.7143750000000        -2.081774447968216E-095
   99.9281250000000        -5.662372446368697E-094
   100.141875000000        -1.326104226520629E-093
   100.355625000000        -2.243848073610902E-093
   100.569375000000        -3.184398149626610E-093
   100.783125000000        -3.918226838391187E-093
   100.996875000000        -4.119845958319620E-093
   101.210625000000        -3.390545017103264E-093
   101.424375000000        -1.315083680070779E-093
   101.638125000000         2.440647976502165E-093
   101.851875000000         7.990276721634482E-093
   102.065625000000         1.505568672583517E-092
   102.279375000000         2.278828537953220E-092
   102.493125000000         2.962477219556675E-092
   102.706875000000         3.323704807030536E-092
   102.920625000000         3.064909819145084E-092
   103.134375000000         1.859612867517078E-092
   103.348125000000        -5.814474515251522E-093
   103.561875000000        -4.412195047905017E-092
   103.775625000000        -9.526408425070772E-092
   103.989375000000        -1.542183510399269E-091
   104.203125000000        -2.108146497515242E-091
   104.416875000000        -2.491334905704002E-091
   104.630625000000        -2.480093105825889E-091
   104.844375000000        -1.831953680015542E-091
   105.058125000000        -3.166229885602877E-092
   105.271875000000         2.217558131101848E-091
   105.485625000000         5.756261470380271E-091
   105.699375000000         1.002046259433202E-090
   105.913125000000         1.437467127947497E-090
   106.126875000000         1.776981122148710E-090
   106.340625000000         1.875651322335807E-090
   106.554375000000         1.560839229779347E-090
   106.768125000000         6.590893946462854E-091
   106.981875000000        -9.604168240780374E-091
   107.195625000000        -3.326817649919692E-090
   107.409375000000        -6.298461103390860E-090
   107.623125000000        -9.495127488080867E-090
   107.836875000000        -1.224949513305626E-089
   108.050625000000        -1.360164452974883E-089
   108.264375000000        -1.236379298286657E-089
   108.478125000000        -7.281029703473209E-090
   108.691875000000         2.694916329214680E-090
   108.905625000000         1.802002558675575E-089
   109.119375000000         3.809024351473448E-089
   109.333125000000         6.075951807969185E-089
   109.546875000000         8.195506935667840E-089
   109.760625000000         9.554276776198470E-089
   109.974375000000         9.362323388851281E-089
   110.188125000000         6.743847756261432E-089
   110.401875000000         9.023203222309945E-090
   110.615625000000        -8.637038912142048E-089
   110.829375000000        -2.172188632807779E-088
   111.043125000000        -3.724274862070044E-088
   111.256875000000        -5.284479622321558E-088
   111.470625000000        -6.477589787393174E-088
   111.684375000000        -6.798659302136342E-088
   111.898125000000        -5.660268336701990E-088
   112.111875000000        -2.486977377438988E-088
   112.325625000000         3.138851003609714E-088
   112.539375000000         1.128572614707425E-087
   112.753125000000         2.145635907389235E-087
   112.966875000000         3.238331144258451E-087
   113.180625000000         4.189292183752450E-087
   113.394375000000         4.690860096383123E-087
   113.608125000000         4.367116843360813E-087
   113.821875000000         2.824560188370859E-087
   114.035625000000        -2.645887764866939E-088
   114.249375000000        -5.047983417339986E-087
   114.463125000000        -1.135741558190507E-086
   114.676875000000        -1.857195342318020E-086
   114.890625000000        -2.551157593134864E-086
   115.104375000000        -3.040314197489776E-086
   115.318125000000        -3.096648029129487E-086
   115.531875000000        -2.466634621188083E-086
   115.745625000000        -9.162104384755485E-087
   115.959375000000         1.704188917894450E-086
   116.173125000000         5.378744909990043E-086
   116.386875000000         9.839727764713657E-086
   116.600625000000         1.449234294066382E-085
   116.814375000000         1.837449303295931E-085
   117.028125000000         2.017954463777694E-085
   117.241875000000         1.837065792980058E-085
   117.455625000000         1.140934582151218E-085
   117.669375000000        -1.893329980756186E-086
   117.883125000000        -2.191827973990861E-085
   118.096875000000        -4.772077244999706E-085
   118.310625000000        -7.654086991141266E-085
   118.524375000000        -1.034686563028848E-084
   118.738125000000        -1.214223051866846E-084
   118.951875000000        -1.216085419158739E-084
   119.165625000000        -9.461383803331457E-085
   119.379375000000        -3.220851877559235E-085
   119.593125000000         7.017337061224051E-085
   119.806875000000         2.104884794122666E-084
   120.020625000000         3.770976744225460E-084
   120.234375000000         5.463930018760845E-084
   120.448125000000         6.818921238691327E-084
   120.661875000000         7.357635791082986E-084
   120.875625000000         6.536939981796044E-084
   121.089375000000         3.837236917001847E-084
   121.303125000000        -1.108948087641929E-084
   121.516875000000        -8.356373293574285E-084
   121.730625000000        -1.747409320213530E-083
   121.944375000000        -2.739249361225332E-083
   122.158125000000        -3.631481103250990E-083
   122.371875000000        -4.174581162004632E-083
   122.585625000000        -4.069090965261637E-083
   122.799375000000        -3.006802640381989E-083
   123.013125000000        -7.348537791069584E-084
   123.226875000000         2.859902205793303E-083
   123.440625000000         7.654716020570157E-083
   123.654375000000         1.319830610710260E-082
   123.868125000000         1.864406448097426E-082