  -1.60312500000000         0.000000000000000E+000
  -1.38937500000000        -2.171709437064778E-012
  -1.17562500000000        -1.516832277852289E-011
 -0.961875000000000        -7.251746786984056E-011
 -0.748125000000000        -2.796021368506388E-010
 -0.534375000000000        -9.052562468786112E-010
 -0.320625000000000        -2.505496339226072E-009
 -0.106875000000000        -6.011904189200977E-009
  0.106875000000000        -1.268627744631501E-008
  0.320625000000000        -2.389958245382021E-008
  0.534375000000000        -4.082220898096728E-008
  0.748125000000000        -6.419991878430294E-008
  0.961875000000000        -9.424256874187244E-008
   1.17562500000000        -1.307440252658345E-007
   1.38937500000000        -1.732517838384202E-007
   1.60312500000000        -2.209226384603000E-007
   1.81687500000000        -2.727042438898498E-007
   2.03062500000000        -3.273607881117680E-007
   2.24437500000000        -3.824882035731028E-007
   2.45812500000000        -4.387552973423385E-007
   2.67187500000000        -4.927034088253517E-007
   2.88562500000000        -5.458142665376640E-007
   3.09937500000000        -5.954942046947969E-007
   3.31312500000000        -6.401448864689406E-007
   3.52687500000000        -6.791723816151177E-007
   3.74062500000000        -7.121038578684151E-007
   3.95437500000000        -7.384186845605226E-007
   4.16812500000000        -7.578241390540948E-007
   4.38187500000000        -7.700599043254891E-007
   4.59562500000000        -7.748152966379531E-007
   4.80937500000000        -7.728605005174397E-007
   5.02312500000000        -7.651292905654506E-007
   5.23687500000000        -7.517747793808479E-007
   5.45062500000000        -7.339662599975668E-007
   5.66437500000000        -7.131386651130598E-007
   5.87812500000000        -6.910242227903529E-007
   6.09187500000000        -6.696536351245892E-007
   6.30562500000000        -6.508442664405995E-007
   6.51937500000000        -6.366536535478943E-007
   6.73312500000000        -6.301985407091895E-007
   6.94687500000000        -6.300217260126979E-007
   7.16062500000000        -6.403430989282804E-007
   7.37437500000000        -6.604164002346503E-007
   7.58812500000000        -6.892283098524847E-007
   7.80187500000000        -7.251477290294245E-007
   8.01562500000000        -7.656733823339661E-007
   8.22937500000000        -8.076891655071906E-007
   8.44312500000000        -8.476887151538000E-007
   8.65687500000000        -8.820923939379450E-007
   8.87062500000000        -9.076372918438971E-007
   9.08437500000000        -9.216109796727346E-007
   9.29812500000000        -9.220149656565282E-007
   9.51187500000000        -9.081498937494527E-007
   9.72562500000000        -8.793856028028899E-007
   9.93937500000000        -8.378500752387134E-007
   10.1531250000000        -7.858462931518584E-007
   10.3668750000000        -7.263135124360259E-007
   10.5806250000000        -6.627698030424158E-007
   10.7943750000000        -5.988288026167699E-007
   11.0081250000000        -5.378770524621536E-007
   11.2218750000000        -4.861635813309918E-007
   11.4356250000000        -4.387011641998879E-007
   11.6493750000000        -4.059812579960617E-007
   11.8631250000000        -3.764276698046499E-007
   12.0768750000000        -3.644082258430111E-007
   12.2906250000000        -3.530191489376400E-007
   12.5043750000000        -3.559489905150636E-007
   12.7181250000000        -3.567181480661472E-007
   12.9318750000000        -3.659894008030147E-007
   13.1456250000000        -3.719503303675139E-007
   13.3593750000000        -3.812791281134229E-007
   13.5731250000000        -3.901363581159687E-007
   13.7868750000000        -3.979165417499950E-007
   14.0006250000000        -4.042673461911329E-007
   14.2143750000000        -4.090561136603276E-007
   14.4281250000000        -4.124171758442379E-007
   14.6418750000000        -4.146683575617101E-007
   14.8556250000000        -4.161826478954375E-007
   15.0693750000000        -4.171440184206806E-007
   15.2831250000000        -4.179252773784766E-007
   15.4968750000000        -4.184833138602682E-007
   15.7106250000000        -4.198672579200562E-007
   15.9243750000000        -4.200677260080414E-007
   16.1381250000000        -4.190477814422457E-007
   16.3518750000000        -4.162030690013337E-007
   16.5656250000000        -4.119287000592271E-007
   16.7793750000000        -4.057818086967943E-007
   16.9931250000000        -3.971030083129988E-007
   17.2068750000000        -3.858160864660268E-007
   17.4206250000000        -3.683597433634723E-007
   17.6343750000000        -3.481492810338792E-007
   17.8481250000000        -3.339940734207447E-007
   18.0618750000000        -3.126355355402044E-007
   18.2756250000000        -3.000399852543622E-007
   18.4893750000000        -2.796409328640060E-007
   18.7031250000000        -2.644986274237650E-007
   18.9168750000000        -2.447017439148696E-007
   19.1306250000000        -2.241656754292029E-007
   19.3443750000000        -2.009384887077700E-007
   19.5581250000000        -1.748612785706525E-007
   19.7718750000000        -1.466601888711635E-007
   19.9856250000000        -1.174905424432868E-007
   20.1993750000000        -8.881777918072200E-008
   20.4131250000000        -6.255118826794320E-008
   20.6268750000000        -4.082144137388278E-008
   20.8406250000000        -2.635353443161537E-008
   21.0543750000000        -2.111643345728065E-008
   21.2681250000000        -2.636293791540601E-008
   21.4818750000000        -4.316193094871021E-008
   21.6956250000000        -7.256010760543852E-008
   21.9093750000000        -1.137745082372028E-007
   22.1231250000000        -1.653299714343798E-007
   22.3368750000000        -2.248922446301338E-007
   22.5506250000000        -2.895779170194272E-007
   22.7643750000000        -3.562463429539275E-007
   22.9781250000000        -4.214264561796893E-007
   23.1918750000000        -4.821303956207977E-007
   23.4056250000000        -5.362170933757661E-007
   23.6193750000000        -5.821132872233548E-007
   23.8331250000000        -6.192469178159594E-007
   24.0468750000000        -6.477102246252562E-007
   24.2606250000000        -6.681201017758762E-007
   24.4743750000000        -6.812073392297702E-007
   24.6881250000000        -6.880117936142656E-007
   24.9018750000000        -6.896738460773462E-007
   25.1156250000000        -6.872412198169783E-007
   25.3293750000000        -6.816237014250139E-007
   25.5431250000000        -6.714540752654275E-007
   25.7568750000000        -6.595526145705302E-007
   25.9706250000000        -6.464034120407517E-007
   26.1843750000000        -6.356832939471455E-007
   26.3981250000000        -6.142800636877351E-007
   26.6118750000000        -5.996369717141074E-007
   26.8256250000000        -5.739115389142894E-007
   27.0393750000000        -5.560146195478394E-007
   27.2531250000000        -5.309101251296526E-007
   27.4668750000000        -5.099347131624435E-007
   27.6806250000000        -4.926437961670804E-007
   27.8943750000000        -4.792885201033902E-007
   28.1081250000000        -4.695724893668426E-007
   28.3218750000000        -4.642459605592989E-007
   28.5356250000000        -4.620949459250829E-007
   28.7493750000000        -4.616062623074930E-007
   28.9631250000000        -4.608655099038619E-007
   29.1768750000000        -4.578614349236566E-007
   29.3906250000000        -4.506821528891090E-007
   29.6043750000000        -4.378078582157012E-007
   29.8181250000000        -4.186522103345034E-007
   30.0318750000000        -3.930334767150432E-007
   30.2456250000000        -3.595811233552964E-007
   30.4593750000000        -3.217756270219749E-007
   30.6731250000000        -2.798523964177583E-007
   30.8868750000000        -2.355173094915297E-007
   31.1006250000000        -1.906590861040421E-007
   31.3143750000000        -1.468779815511905E-007
   31.5281250000000        -1.054720668916870E-007
   31.7418750000000        -6.711747747677185E-008
   31.9556250000000        -3.195686978461418E-008
   32.1693750000000         4.655330033207365E-010
   32.3831250000000         3.103241974240631E-008
   32.5968750000000         6.045206985740488E-008
   32.8106250000000         9.060311941685639E-008
   33.0243750000000         1.219831683239086E-007
   33.2381250000000         1.548812805937902E-007
   33.4518750000000         1.889015072627942E-007
   33.6656250000000         2.228809639958311E-007
   33.8793750000000         2.549576025802914E-007
   34.0931250000000         2.827588183340427E-007
   34.3068750000000         3.035516901002943E-007
   34.5206250000000         3.142649802470799E-007
   34.7343750000000         3.133569286044208E-007
   34.9481250000000         2.991327943988571E-007
   35.1618750000000         2.706948322192793E-007
   35.3756250000000         2.284816400620994E-007
   35.5893750000000         1.741881820827248E-007
   35.8031250000000         1.105692219733877E-007
   36.0168750000000         4.134457053404357E-008
   36.2306250000000        -2.940247918494178E-008
   36.4443750000000        -9.747963363200644E-008
   36.6581250000000        -1.589114016625971E-007
   36.8718750000000        -2.139702081904826E-007
   37.0856250000000        -2.493550047412939E-007
   37.2993750000000        -2.739395387985214E-007
   37.5131250000000        -2.802985969861539E-007
   37.7268750000000        -2.819699202819308E-007
   37.9406250000000        -2.615643241880404E-007
   38.1543750000000        -2.350838653049551E-007
   38.3681250000000        -2.021116147447152E-007
   38.5818750000000        -1.652469777055111E-007
   38.7956250000000        -1.269456024273205E-007
   39.0093750000000        -8.931285896484577E-008
   39.2231250000000        -5.370179933354097E-008
   39.4368750000000        -2.119662836943371E-008
   39.6506250000000         1.054213187819091E-008
   39.8643750000000         3.307414079618091E-008
   40.0781250000000         4.919881213826386E-008
   40.2918750000000         5.737455537936855E-008
   40.5056250000000         5.610084646513034E-008
   40.7193750000000         4.493601271563400E-008
   40.9331250000000         1.952786577672293E-008
   41.1468750000000        -7.916032725142592E-009
   41.3606250000000        -5.154992899195180E-008
   41.5743750000000        -1.019585807561698E-007
   41.7881250000000        -1.575165009288032E-007
   42.0018750000000        -2.159905452442218E-007
   42.2156250000000        -2.743046499277129E-007
   42.4293750000000        -3.289463878328131E-007
   42.6431250000000        -3.764450389098586E-007
   42.8568750000000        -4.157896173825732E-007
   43.0706250000000        -4.327692100947526E-007
   43.2843750000000        -4.375618546799507E-007
   43.4981250000000        -4.172553398278132E-007
   43.7118750000000        -3.791625059313564E-007
   43.9256250000000        -3.236220104940860E-007
   44.1393750000000        -2.523989006583790E-007
   44.3531250000000        -1.684161394981629E-007
   44.5668750000000        -7.530574556706450E-008
   44.7806250000000         2.304100411922564E-008
   44.9943750000000         1.227582332810756E-007
   45.2081250000000         2.202481773768820E-007
   45.4218750000000         3.124837577050881E-007
   45.6356250000000         3.970420681009758E-007
   45.8493750000000         4.721611682507001E-007
   46.0631250000000         5.367216432995284E-007
   46.2768750000000         5.900825160275586E-007
   46.4906250000000         6.319384331856544E-007
   46.7043750000000         6.621596654073338E-007
   46.9181250000000         6.808457542828855E-007
   47.1318750000000         6.883576034848170E-007
   47.3456250000000         6.838187745245073E-007
   47.5593750000000         6.645341130013976E-007
   47.7731250000000         6.360158755070144E-007
   47.9868750000000         5.943705798900067E-007
   48.2006250000000         5.477806078832501E-007
   48.4143750000000         4.886209386395171E-007
   48.6281250000000         4.271072732237008E-007
   48.8418750000000         3.623870619923082E-007
   49.0556250000000         3.000210874536076E-007
   49.2693750000000         2.387373048666491E-007
   49.4831250000000         1.827260662042894E-007
   49.6968750000000         1.348239304503510E-007
   49.9106250000000         9.721352295309301E-008
   50.1243750000000         7.156252435610520E-008
   50.3381250000000         5.872493924066240E-008
   50.5518750000000         5.921038509558300E-008
   50.7656250000000         7.664454420352738E-008
   50.9793750000000         9.887489568968975E-008
   51.1931250000000         1.355928094457829E-007
   51.4068750000000         1.723831100726495E-007
   51.6206250000000         2.185218359547618E-007
   51.8343750000000         2.597760193255906E-007
   52.0481250000000         3.050614610687987E-007
   52.2618750000000         3.412076506665646E-007
   52.4756250000000         3.756184621119142E-007
   52.6893750000000         4.025460886059538E-007
   52.9031250000000         4.215488427056511E-007
   53.1168750000000         4.349793113996081E-007
   53.3306250000000         4.412557529111434E-007
   53.5443750000000         4.418096375461614E-007
   53.7581250000000         4.375015428131874E-007
   53.9718750000000         4.291112621231910E-007
   54.1856250000000         4.176817477717090E-007
   54.3993750000000         4.043831120965988E-007
   54.6131250000000         3.904066096912656E-007
   54.8268750000000         3.769192729630120E-007
   55.0406250000000         3.650152828663240E-007
   55.2543750000000         3.556655183743927E-007
   55.4681250000000         3.497192694272557E-007
   55.6818750000000         3.478620297767011E-007
   55.8956250000000         3.505473905286031E-007
   56.1093750000000         3.581102264559719E-007
   56.3231250000000         3.709034689252101E-007
   56.5368750000000         3.884759933951152E-007
   56.7506250000000         4.086762878301092E-007
   56.9643750000000         4.341458792034719E-007
   57.1781250000000         4.632673950361262E-007
   57.3918750000000         4.957689663527490E-007
   57.6056250000000         5.309484240924233E-007
   57.8193750000000         5.683065004390203E-007
   58.0331250000000         6.064629004253915E-007
   58.2468750000000         6.448857181519320E-007
   58.4606250000000         6.829259135541644E-007
   58.6743750000000         7.198367167278164E-007
   58.8881250000000         7.513531486311642E-007
   59.1018750000000         7.850483936481921E-007
   59.3156250000000         8.093759285644176E-007
   59.5293750000000         8.351188185237040E-007
   59.7431250000000         8.568686119992623E-007
   59.9568750000000         8.758319499559314E-007
   60.1706250000000         8.923528161418181E-007
   60.3843750000000         9.061408638871067E-007
   60.5981250000000         9.175913183109069E-007
   60.8118750000000         9.269661316787150E-007
   61.0256250000000         9.378218903415305E-007
   61.2393750000000         9.383819671137968E-007
   61.4531250000000         9.455404711335357E-007
   61.6668750000000         9.453288886483437E-007
   61.8806250000000         9.415435844398991E-007
   62.0943750000000         9.343801554692186E-007
   62.3081250000000         9.238967369940879E-007
   62.5218750000000         9.108963121701672E-007
   62.7356250000000         8.942878253491231E-007
   62.9493750000000         8.778966910056410E-007
   63.1631250000000         8.497397673471906E-007
   63.3768750000000         8.215386840740988E-007
   63.5906250000000         7.821781711941839E-007
   63.8043750000000         7.385541393039052E-007
   64.0181250000000         6.955870454719489E-007
   64.2318750000000         6.425314801688690E-007
   64.4456250000000         5.886114196914977E-007
   64.6593750000000         5.362850610886743E-007
   64.8731250000000         4.882005966089160E-007
   65.0868750000000         4.477191136761529E-007
   65.3006250000000         4.182492384526771E-007
   65.5143750000000         4.028144923272875E-007
   65.7281250000000         4.049455278890140E-007
   65.9418750000000         4.248396150469109E-007
   66.1556250000000         4.632262336109184E-007
   66.3693750000000         5.206094468077463E-007
   66.5831250000000         5.930172585149618E-007
   66.7968750000000         6.769300797076777E-007
   67.0106250000000         7.676490095502000E-007
   67.2243750000000         8.599087866012651E-007
   67.4381250000000         9.483546308818726E-007
   67.6518750000000         1.031947216881570E-006
   67.8656250000000         1.095866795794941E-006
   68.0793750000000         1.150479633465972E-006
   68.2931250000000         1.181985760008466E-006
   68.5068750000000         1.199593566631157E-006
   68.7206250000000         1.197677311843372E-006
   68.9343750000000         1.185788856994211E-006
   69.1481250000000         1.165433482419012E-006
   69.3618750000000         1.140072575607653E-006
   69.5756250000000         1.112943610787469E-006
   69.7893750000000         1.086633501332715E-006
   70.0031250000000         1.062880453972833E-006
   70.2168750000000         1.042512951321921E-006
   70.4306250000000         1.025609745235959E-006
   70.6443750000000         1.012174914169366E-006
   70.8581250000000         1.000778120661021E-006
   71.0718750000000         9.908506678493225E-007
   71.2856250000000         9.835117994168280E-007
   71.4993750000000         9.741935384055617E-007
   71.7131250000000         9.783166224212947E-007
   71.9268750000000         9.844785366628030E-007
   72.1406250000000         1.006596290177131E-006
   72.3543750000000         1.036504004472279E-006
   72.5681250000000         1.087519820270481E-006
   72.7818750000000         1.154324544070436E-006
   72.9956250000000         1.233487955784535E-006
   73.2093750000000         1.328103082986053E-006
   73.4231250000000         1.432948687276749E-006
   73.6368750000000         1.541275333927944E-006
   73.8506250000000         1.646987311228209E-006
   74.0643750000000         1.743596498750236E-006
   74.2781250000000         1.825039073435136E-006
   74.4918750000000         1.886279741151259E-006
   74.7056250000000         1.923881072931439E-006
   74.9193750000000         1.937234109423827E-006
   75.1331250000000         1.924592276612222E-006
   75.3468750000000         1.886456560066278E-006
   75.5606250000000         1.837356329821749E-006
   75.7743750000000         1.770481378235952E-006
   75.9881250000000         1.701236308998771E-006
   76.2018750000000         1.631809491204099E-006
   76.4156250000000         1.568357840058230E-006
   76.6293750000000         1.510285276811315E-006
   76.8431250000000         1.460195145246946E-006
   77.0568750000000         1.418330580459068E-006
   77.2706250000000         1.383646384015677E-006
   77.4843750000000         1.354535092092955E-006
   77.6981250000000         1.334650819937014E-006
   77.9118750000000         1.307773597620724E-006
   78.1256250000000         1.289023070746280E-006
   78.3393750000000         1.258876887254142E-006
   78.5531250000000         1.237794354756831E-006
   78.7668750000000         1.206618975019059E-006
   78.9806250000000         1.187929911404952E-006
   79.1943750000000         1.165589888275117E-006
   79.4081250000000         1.154654898671369E-006
   79.6218750000000         1.154156535975100E-006
   79.8356250000000         1.166355722009680E-006
   80.0493750000000         1.190338171788232E-006
   80.2631250000000         1.225888902750666E-006
   80.4768750000000         1.269826153248034E-006
   80.6906250000000         1.319141460100016E-006
   80.9043750000000         1.370301494882879E-006
   81.1181250000000         1.414851157289231E-006
   81.3318750000000         1.461925099677132E-006
   81.5456250000000         1.497191698734673E-006
   81.7593750000000         1.529248753354117E-006
   81.9731250000000         1.551263834394760E-006
   82.1868750000000         1.559947884925061E-006
   82.4006250000000         1.569642713922911E-006
   82.6143750000000         1.570701464264133E-006
   82.8281250000000         1.571368513139532E-006
   83.0418750000000         1.569688590006865E-006
   83.2556250000000         1.570113490028180E-006
   83.4693750000000         1.571780478075130E-006
   83.6831250000000         1.575998110225983E-006
   83.8968750000000         1.583958984487357E-006
   84.1106250000000         1.598813810002242E-006
   84.3243750000000         1.609799117928194E-006
   84.5381250000000         1.629319990342491E-006
   84.7518750000000         1.642966304180719E-006
   84.9656250000000         1.657947666794029E-006
   85.1793750000000         1.671934529551649E-006
   85.3931250000000         1.686406223403905E-006
   85.6068750000000         1.699048093958099E-006
   85.8206250000000         1.720306968680058E-006
   86.0343750000000         1.742287619298176E-006
   86.2481250000000         1.774862067969700E-006
   86.4618750000000         1.816921474641648E-006
   86.6756250000000         1.869210912101046E-006
   86.8893750000000         1.931515135558077E-006
   87.1031250000000         1.996640344039106E-006
   87.3168750000000         2.080151445451450E-006
   87.5306250000000         2.162413156547168E-006
   87.7443750000000         2.258855417191033E-006
   87.9581250000000         2.349458978547142E-006
   88.1718750000000         2.445885513365326E-006
   88.3856250000000         2.536151591574078E-006
   88.5993750000000         2.617326643969285E-006
   88.8131250000000         2.686945662762197E-006
   89.0268750000000         2.742855628622046E-006
   89.2406250000000         2.783151486701383E-006
   89.4543750000000         2.807738522712497E-006
   89.6681250000000         2.816038149804924E-006
   89.8818750000000         2.808631596148680E-006
   90.0956250000000         2.787099393821269E-006
   90.3093750000000         2.752506112685189E-006
   90.5231250000000         2.706852181351590E-006
   90.7368750000000         2.652171992206260E-006
   90.9506250000000         2.590696952445588E-006
   91.1643750000000         2.524371469370222E-006
   91.3781250000000         2.455075101513371E-006
   91.5918750000000         2.384322202957797E-006
   91.8056250000000         2.313439849209772E-006
   92.0193750000000         2.243525619177279E-006
   92.2331250000000         2.175707415345310E-006
   92.4468750000000         2.111102314637924E-006
   92.6606250000000         2.050922106792281E-006
   92.8743750000000         1.996612175762318E-006
   93.0881250000000         1.949822170356457E-006
   93.3018750000000         1.912230226088909E-006
   93.5156250000000         1.885787928981123E-006
   93.7293750000000         1.871210240936598E-006
   93.9431250000000         1.871085418337456E-006
   94.1568750000000         1.883299436025141E-006
   94.3706250000000         1.907563623238423E-006
   94.5843750000000         1.943281947655653E-006
   94.7981250000000         1.988167742143007E-006
   95.0118750000000         2.039423683966843E-006
   95.2256250000000         2.092787022846089E-006
   95.4393750000000         2.144700066392089E-006
   95.6531250000000         2.191756966141131E-006
   95.8668750000000         2.233568973645450E-006
   96.0806250000000         2.259497717124099E-006
   96.2943750000000         2.275420915091694E-006
   96.5081250000000         2.281894516461847E-006
   96.7218750000000         2.280782135260152E-006
   96.9356250000000         2.274422725688573E-006
   97.1493750000000         2.266058231165841E-006
   97.3631250000000         2.259252773345237E-006
   97.5768750000000         2.255573486549219E-006
   97.7906250000000         2.260486127763835E-006
   98.0043750000000         2.275698792519018E-006
   98.2181250000000         2.301986105012933E-006
   98.4318750000000         2.338596025001225E-006
   98.6456250000000         2.383742478831725E-006
   98.8593750000000         2.435136801641808E-006
   99.0731250000000         2.489801939187840E-006
   99.2868750000000         2.545154851981395E-006
   99.5006250000000         2.602797271410513E-006
   99.7143750000000         2.649771459332605E-006
   99.9281250000000         2.696977176148898E-006
   100.141875000000         2.731795323092003E-006
   100.355625000000         2.763611840658358E-006
   100.569375000000         2.789965003878906E-006
   100.783125000000         2.813206606016705E-006
   100.996875000000         2.837627172644813E-006
   101.210625000000         2.864613088100606E-006
   101.424375000000         2.895484009127296E-006
   101.638125000000         2.930792041374800E-006
   101.851875000000         2.970211268719013E-006
   102.065625000000         3.008697906153716E-006
   102.279375000000         3.053892762233709E-006
   102.493125000000         3.092971949465760E-006
   102.706875000000         3.136667490546115E-006
   102.920625000000         3.173715623300241E-006
   103.134375000000         3.203732685185167E-006
   103.348125000000         3.226789175854576E-006
   103.561875000000         3.244732107531756E-006
   103.775625000000         3.256358515073029E-006
   103.989375000000         3.263961194200694E-006
   104.203125000000         3.269219049289089E-006
   104.416875000000         3.274677771702644E-006
   104.630625000000         3.282299190415956E-006
   104.844375000000         3.293390346565934E-006
   105.058125000000         3.308375308182119E-006
   105.271875000000         3.326494519754744E-006
   105.485625000000         3.346156292056143E-006
   105.699375000000         3.365985216987555E-006
   105.913125000000         3.382060470745083E-006
   106.126875000000         3.391892035074596E-006
   106.340625000000         3.393183782807735E-006
   106.554375000000         3.384474602405117E-006
   106.768125000000         3.365401879662787E-006
   106.981875000000         3.337244700269451E-006
   107.195625000000         3.302328971423560E-006
   107.409375000000         3.264112474267019E-006
   107.623125000000         3.226831308874320E-006
   107.836875000000         3.194674947036718E-006
   108.050625000000         3.171324920591795E-006
   108.264375000000         3.159421691066668E-006
   108.478125000000         3.162029345735109E-006
   108.691875000000         3.180721209889415E-006
   108.905625000000         3.207249043393878E-006
   109.119375000000         3.243429295133699E-006
   109.333125000000         3.283248101255400E-006
   109.546875000000         3.321645198615699E-006
   109.760625000000         3.354017620817576E-006
   109.974375000000         3.375146776485611E-006
   110.188125000000         3.382377250338510E-006
   110.401875000000         3.374779928426689E-006
   110.615625000000         3.352658037774642E-006
   110.829375000000         3.318223951013174E-006
   111.043125000000         3.275251601268951E-006
   111.256875000000         3.234011930803251E-006
   111.470625000000         3.183440576368734E-006
   111.684375000000         3.141108639178580E-006
   111.898125000000         3.114568908722802E-006
   112.111875000000         3.090423772017595E-006
   112.325625000000         3.082929536556588E-006
   112.539375000000         3.090120626727330E-006
   112.753125000000         3.109195057944573E-006
   112.966875000000         3.139892322076939E-006
   113.180625000000         3.179182181437598E-006
   113.394375000000         3.224479034624915E-006
   113.608125000000         3.273476106881468E-006
   113.821875000000         3.324838078630700E-006
   114.035625000000         3.377908513923387E-006
   114.249375000000         3.432356364932236E-006
   114.463125000000         3.488586300176003E-006
   114.676875000000         3.547408159643831E-006
   114.890625000000         3.609468044677225E-006
   115.104375000000         3.675047198044813E-006
   115.318125000000         3.743832181106797E-006
   115.531875000000         3.814735892321425E-006
   115.745625000000         3.886000570315763E-006
   115.959375000000         3.955273792669974E-006
   116.173125000000         4.019907270822069E-006
   116.386875000000         4.077226784876632E-006
   116.600625000000         4.124880738046401E-006
   116.814375000000         4.161235992076329E-006
   117.028125000000         4.185572100854187E-006
   117.241875000000         4.199010925355039E-006
   117.455625000000         4.201366464972539E-006
   117.669375000000         4.194788293154769E-006
   117.883125000000         4.181897232236173E-006
   118.096875000000         4.166165847986117E-006
   118.310625000000         4.149890423728001E-006
   118.524375000000         4.135508067813656E-006
   118.738125000000         4.124589385339794E-006
   118.951875000000         4.118160010363694E-006
   119.165625000000         4.116306986029776E-006
   119.379375000000         4.120336000021608E-006
   119.593125000000         4.128779960897103E-006
   119.806875000000         4.140659255964578E-006
   120.020625000000         4.154657027730397E-006
   120.234375000000         4.169720075727930E-006
   120.448125000000         4.185849470337701E-006
   120.661875000000         4.202622687232227E-006
   120.875625000000         4.220403273834835E-006
   121.089375000000         4.240049004867159E-006
   121.303125000000         4.254318471223050E-006
   121.516875000000         4.265950848699768E-006
   121.730625000000         4.273597257058542E-006
   121.944375000000         4.277518263234593E-006
   122.158125000000         4.276932654867022E-006
   122.371875000000         4.271400586918811E-006
   122.585625000000         4.260913587499860E-006
   122.799375000000         4.246199803228797E-006
   123.013125000000         4.228631416814470E-006
   123.226875000000         4.210576133608137E-006
   123.440625000000         4.194386717802911E-006
   123.654375000000         4.182586464685215E-006
   123.868125000000         4.178161111224193E-006