  -1.60312500000000         0.000000000000000E+000
  -1.38937500000000         0.000000000000000E+000
  -1.17562500000000         0.000000000000000E+000
 -0.961875000000000         0.000000000000000E+000
 -0.748125000000000         0.000000000000000E+000
 -0.534375000000000         0.000000000000000E+000
 -0.320625000000000         0.000000000000000E+000
 -0.106875000000000         0.000000000000000E+000
  0.106875000000000         0.000000000000000E+000
  0.320625000000000         0.000000000000000E+000
  0.534375000000000         0.000000000000000E+000
  0.748125000000000         0.000000000000000E+000
  0.961875000000000         0.000000000000000E+000
   1.17562500000000         0.000000000000000E+000
   1.38937500000000         0.000000000000000E+000
   1.60312500000000         0.000000000000000E+000
   1.81687500000000         0.000000000000000E+000
   2.03062500000000         0.000000000000000E+000
   2.24437500000000         0.000000000000000E+000
   2.45812500000000         0.000000000000000E+000
   2.67187500000000         0.000000000000000E+000
   2.88562500000000         0.000000000000000E+000
   3.09937500000000         0.000000000000000E+000
   3.31312500000000         0.000000000000000E+000
   3.52687500000000         0.000000000000000E+000
   3.74062500000000         0.000000000000000E+000
   3.95437500000000         0.000000000000000E+000
   4.16812500000000         0.000000000000000E+000
   4.38187500000000         0.000000000000000E+000
   4.59562500000000         0.000000000000000E+000
   4.80937500000000         0.000000000000000E+000
   5.02312500000000         0.000000000000000E+000
   5.23687500000000         0.000000000000000E+000
   5.45062500000000         0.000000000000000E+000
   5.66437500000000         0.000000000000000E+000
   5.87812500000000         0.000000000000000E+000
   6.09187500000000         0.000000000000000E+000
   6.30562500000000         0.000000000000000E+000
   6.51937500000000         0.000000000000000E+000
   6.73312500000000         0.000000000000000E+000
   6.94687500000000         0.000000000000000E+000
   7.16062500000000         0.000000000000000E+000
   7.37437500000000         0.000000000000000E+000
   7.58812500000000         0.000000000000000E+000
   7.80187500000000         0.000000000000000E+000
   8.01562500000000         0.000000000000000E+000
   8.22937500000000         0.000000000000000E+000
   8.44312500000000         0.000000000000000E+000
   8.65687500000000         0.000000000000000E+000
   8.87062500000000         0.000000000000000E+000
   9.08437500000000         0.000000000000000E+000
   9.29812500000000         0.000000000000000E+000
   9.51187500000000         0.000000000000000E+000
   9.72562500000000         0.000000000000000E+000
   9.93937500000000         5.190132328432982E-224
   10.1531250000000        -6.895600761965885E-218
   10.3668750000000         1.398081752620851E-214
   10.5806250000000        -1.488385340891613E-212
   10.7943750000000         1.058483211301954E-209
   11.0081250000000         7.208562446923195E-208
   11.2218750000000         3.241785969871375E-206
   11.4356250000000         1.311642303703523E-204
   11.6493750000000         4.441164595639220E-203
   11.8631250000000         1.185835946597625E-201
   12.0768750000000         2.510790969590177E-200
   12.2906250000000         4.327423396068850E-199
   12.5043750000000         6.236839258852846E-198
   12.7181250000000         7.692748716259620E-197
   12.9318750000000         8.280864164882067E-196
   13.1456250000000         7.913227160417487E-195
   13.3593750000000         6.819309305074828E-194
   13.5731250000000         5.381162350035777E-193
   13.7868750000000         3.948046192532569E-192
   14.0006250000000         2.733002498704923E-191
   14.2143750000000         1.807549520021651E-190
   14.4281250000000         1.151425142102359E-189
   14.6418750000000         7.077323963380033E-189
   14.8556250000000         4.178537142818015E-188
   15.0693750000000         2.347538797328224E-187
   15.2831250000000         1.239227581132326E-186
   15.4968750000000         6.051819115801072E-186
   15.7106250000000         2.677078976935833E-185
   15.9243750000000         1.035117397401425E-184
   16.1381250000000         3.220920209956526E-184
   16.3518750000000         5.752863541752187E-184
   16.5656250000000        -1.720710568744578E-183
   16.7793750000000        -2.525247141079322E-182
   16.9931250000000        -1.693635794139941E-181
   17.2068750000000        -8.686996865491900E-181
   17.4206250000000        -3.717175385034034E-180
   17.6343750000000        -1.343088365505641E-179
   17.8481250000000        -3.938100723077150E-179
   18.0618750000000        -7.821080565850864E-179
   18.2756250000000         2.337823655759067E-179
   18.4893750000000         1.239572750160383E-177
   18.7031250000000         7.938486774516225E-177
   18.9168750000000         3.589642440924435E-176
   19.1306250000000         1.314776689093698E-175
   19.3443750000000         3.965969479384816E-175
   19.5581250000000         9.259812819096018E-175
   19.7718750000000         1.176104085916766E-174
   19.9856250000000        -2.988886588064680E-174
   20.1993750000000        -2.948433040008841E-173
   20.4131250000000        -1.368406699139457E-172
   20.6268750000000        -4.695479878415109E-172
   20.8406250000000        -1.233419679283375E-171
   21.0543750000000        -2.074516006144127E-171
   21.2681250000000         1.241191392991513E-171
   21.4818750000000         2.952804309247010E-170
   21.6956250000000         1.594214562767577E-169
   21.9093750000000         6.216919259311190E-169
   22.1231250000000         1.980788098698742E-168
   22.3368750000000         5.228633064714522E-168
   22.5506250000000         1.071317395629814E-167
   22.7643750000000         1.160981622069400E-167
   22.9781250000000        -3.163469851311044E-167
   23.1918750000000        -2.717510498482892E-166
   23.4056250000000        -1.187836719175546E-165
   23.6193750000000        -4.053679142643697E-165
   23.8331250000000        -1.170198197767210E-164
   24.0468750000000        -2.892270280724214E-164
   24.2606250000000        -5.904354133522834E-164
   24.4743750000000        -8.477234863324722E-164
   24.6881250000000        -8.651822123045243E-167
   24.9018750000000         5.842445281854007E-163
   25.1156250000000         2.807590474467265E-162
   25.3293750000000         9.484396720352716E-162
   25.5431250000000         2.643602765568438E-161
   25.7568750000000         6.289398086129187E-161
   25.9706250000000         1.253581167000444E-160
   26.1843750000000         1.879347115838616E-160
   26.3981250000000         9.700651595538143E-161
   26.6118750000000        -6.774207412092204E-160
   26.8256250000000        -3.588949292739197E-159
   27.0393750000000        -1.200753689996815E-158
   27.2531250000000        -3.251284388098039E-158
   27.4668750000000        -7.512971863934964E-158
   27.6806250000000        -1.476434120184210E-157
   27.8943750000000        -2.308944704435741E-157
   28.1081250000000        -2.057931154644276E-157
   28.3218750000000         3.224009499136949E-157
   28.5356250000000         2.380831111669397E-156
   28.7493750000000         8.222254001313154E-156
   28.9631250000000         2.201231407975861E-155
   29.1768750000000         4.980578673300193E-155
   29.3906250000000         9.633681314518835E-155
   29.6043750000000         1.526718080856205E-154
   29.8181250000000         1.627947234429217E-154
   30.0318750000000        -5.054019692070639E-155
   30.2456250000000        -9.242270192321330E-154
   30.4593750000000        -3.363520510103739E-153
   30.6731250000000        -8.946889749374026E-153
   30.8868750000000        -1.983018197533012E-152
   31.1006250000000        -3.756235725439799E-152
   31.3143750000000        -5.912459334926976E-152
   31.5281250000000        -6.717047662119253E-152
   31.7418750000000        -1.011966088442314E-152
   31.9556250000000         2.319297652709262E-151
   32.1693750000000         8.935217547071056E-151
   32.3831250000000         2.360771054236655E-150
   32.5968750000000         5.130762619370657E-150
   32.8106250000000         9.535308096668575E-150
   33.0243750000000         1.492661988516110E-149
   33.2381250000000         1.784347692816598E-149
   33.4518750000000         8.563886340951959E-150
   33.6656250000000        -3.432906042254838E-149
   33.8793750000000        -1.506450298184715E-148
   34.0931250000000        -4.029477281635784E-148
   34.3068750000000        -8.691137753547982E-148
   34.5206250000000        -1.603700787050607E-147
   34.7343750000000        -2.534999315898247E-147
   34.9481250000000        -3.250914744366509E-147
   35.1618750000000        -2.623987912720949E-147
   35.3756250000000         1.744106658644686E-147
   35.5893750000000         1.417979650175818E-146
   35.8031250000000         4.140483985731141E-146
   36.0168750000000         9.215135571861219E-146
   36.2306250000000         1.747213379273078E-145
   36.4443750000000         2.906241963282745E-145
   36.6581250000000         4.217590807058053E-145
   36.8718750000000         5.080519892876610E-145
   37.0856250000000         4.118955246132900E-145
   37.2993750000000        -1.355368915633651E-145
   37.5131250000000        -1.614518189078721E-144
   37.7268750000000        -4.838959922240656E-144
   37.9406250000000        -1.114324694784193E-143
   38.1543750000000        -2.264441114882628E-143
   38.3681250000000        -4.249999433021417E-143
   38.5818750000000        -7.477758131132137E-143
   38.7956250000000        -1.227821936320598E-142
   39.0093750000000        -1.830864988440899E-142
   39.2231250000000        -2.297402696035873E-142
   39.4368750000000        -1.793782353722418E-142
   39.6506250000000         1.749894261823157E-142
   39.8643750000000         1.270323445962448E-141
   40.0781250000000         3.906865911762599E-141
   40.2918750000000         9.332448378408773E-141
   40.5056250000000         1.906573459977708E-140
   40.7193750000000         3.400335298624570E-140
   40.9331250000000         5.200238760684906E-140
   41.1468750000000         6.276291146174525E-140
   41.3606250000000         3.878293899287097E-140
   41.5743750000000        -7.782786000788017E-140
   41.7881250000000        -3.894196852473223E-139
   42.0018750000000        -1.046469748157119E-138
   42.2156250000000        -2.214531027258667E-138
   42.4293750000000        -3.954908244463313E-138
   42.6431250000000        -5.941621546171578E-138
   42.8568750000000        -6.919811266408928E-138
   43.0706250000000        -3.840948676667416E-138
   43.2843750000000         9.240111846070271E-138
   43.4981250000000         4.203693588204272E-137
   43.7118750000000         1.074362831758623E-136
   43.9256250000000         2.169297965126975E-136
   44.1393750000000         3.678508638271793E-136
   44.3531250000000         5.165753981944113E-136
   44.5668750000000         5.318487968003213E-136
   44.7806250000000         1.272157641306253E-136
   44.9943750000000        -1.213349174575958E-135
   45.2081250000000        -4.269224113195436E-135
   45.4218750000000        -9.968950457615010E-135
   45.6356250000000        -1.893012494528990E-134
   45.8493750000000        -3.034692293361726E-134
   46.0631250000000        -3.984256463491451E-134
   46.2768750000000        -3.597949013380035E-134
   46.4906250000000         4.426405609732128E-135
   46.7043750000000         1.208487990474160E-133
   46.9181250000000         3.697091864490298E-133
   47.1318750000000         8.133545716318590E-133
   47.3456250000000         1.483827924973032E-132
   47.5593750000000         2.301641120624502E-132
   47.7731250000000         2.926544156855441E-132
   47.9868750000000         2.524897561036993E-132
   48.2006250000000        -5.294219982521920E-133
   48.4143750000000        -8.925691798441275E-132
   48.6281250000000        -2.641441453151406E-131
   48.8418750000000        -5.704705810961137E-131
   49.0556250000000        -1.028441271811830E-130
   49.2693750000000        -1.587401556621303E-130
   49.4831250000000        -2.035172971376594E-130
   49.6968750000000        -1.859390458836865E-130
   49.9106250000000        -7.178181560988949E-132
   50.1243750000000         4.950195966581409E-130
   50.3381250000000         1.546914676795330E-129
   50.5518750000000         3.397822124862230E-129
   50.7656250000000         6.194466591528508E-129
   50.9793750000000         9.710500436171834E-129
   51.1931250000000         1.286464484345743E-128
   51.4068750000000         1.298630072010403E-128
   51.6206250000000         4.879922925845363E-129
   51.8343750000000        -2.005124880827438E-128
   52.0481250000000        -7.397878389913812E-128
   52.2618750000000        -1.708810079048739E-127
   52.4756250000000        -3.208136160307584E-127
   52.6893750000000        -5.174157561696490E-127
   52.9031250000000        -7.155265359453306E-127
   53.1168750000000        -7.968281758701140E-127
   53.3306250000000        -5.253068534138141E-127
   53.5443750000000         4.969307469203922E-127
   53.7581250000000         2.847049874880143E-126
   53.9718750000000         7.221036985382622E-126
   54.1856250000000         1.421209018226860E-125
   54.3993750000000         2.381159614785626E-125
   54.6131250000000         3.450035837471343E-125
   54.8268750000000         4.183212345865830E-125
   55.0406250000000         3.655049644285515E-125
   55.2543750000000         2.598546956659070E-126
   55.4681250000000        -8.403908593707352E-125
   55.6818750000000        -2.538198477237306E-124
   55.8956250000000        -5.364175502181046E-124
   56.1093750000000        -9.434941877594058E-124
   56.3231250000000        -1.436429652385261E-123
   56.5368750000000        -1.874837362245374E-123
   56.7506250000000        -1.945950974125598E-123
   56.9643750000000        -1.085058525026264E-123
   57.1781250000000         1.584149583280628E-123
   57.3918750000000         7.231052647049563E-123
   57.6056250000000         1.712349313357847E-122
   57.8193750000000         3.211557390880727E-122
   58.0331250000000         5.164523125657901E-122
   58.2468750000000         7.208235189544455E-122
   58.4606250000000         8.437806864163932E-122
   58.6743750000000         7.124464405017167E-122
   58.8881250000000         4.627241624836664E-123
   59.1018750000000        -1.549155127575546E-121
   59.3156250000000        -4.541199083524324E-121
   59.5293750000000        -9.340399368851266E-121
   59.7431250000000        -1.602862473797307E-120
   59.9568750000000        -2.389093991089761E-120
   60.1706250000000        -3.072013511865342E-120
   60.3843750000000        -3.192963945174767E-120
   60.5981250000000        -1.964444758315850E-120
   60.8118750000000         1.783748237076807E-120
   61.0256250000000         9.550106632584549E-120
   61.2393750000000         2.288838687049937E-119
   61.4531250000000         4.276834234793559E-119
   61.6668750000000         6.840590639110619E-119
   61.8806250000000         9.543482980823963E-119
   62.0943750000000         1.134286466998512E-118
   62.3081250000000         1.030793619591426E-118
   62.5218750000000         3.385859238753118E-119
   62.7356250000000        -1.362348619306062E-118
   62.9493750000000        -4.562308595149891E-118
   63.1631250000000        -9.693675732431651E-118
   63.3768750000000        -1.687465266747614E-117
   63.5906250000000        -2.548322787986765E-117
   63.8043750000000        -3.354287959288433E-117
   64.0181250000000        -3.695938389654693E-117
   64.2318750000000        -2.875604438941369E-117
   64.4456250000000         1.375058084097298E-118
   64.6593750000000         6.665526211644655E-117
   64.8731250000000         1.811138456373488E-116
   65.0868750000000         3.547337610760695E-116
   65.3006250000000         5.847097707446940E-116
   65.5143750000000         8.419764952335580E-116
   65.7281250000000         1.053128844351597E-115
   65.9418750000000         1.079841056298737E-115
   66.1556250000000         7.012202220755293E-116
   66.3693750000000        -3.906441293525764E-116
   66.5831250000000        -2.565626454883351E-115
   66.7968750000000        -6.178480044185201E-115
   67.0106250000000        -1.141303173408653E-114
   67.2243750000000        -1.802267132181414E-114
   67.4381250000000        -2.495528952344993E-114
   67.6518750000000        -2.988244822227852E-114
   67.8656250000000        -2.871009273943054E-114
   68.0793750000000        -1.523686465758802E-114
   68.2931250000000         1.875483222268077E-114
   68.5068750000000         8.255350141620637E-114
   68.7206250000000         1.841766377910956E-113
   68.9343750000000         3.260450160548190E-113
   69.1481250000000         4.982104938326350E-113
   69.3618750000000         6.690942455279264E-113
   69.5756250000000         7.745515039121625E-113
   69.7893750000000         7.075077354365502E-113
   70.0031250000000         3.124654409583504E-113
   70.2168750000000        -6.082498191968138E-113
   70.4306250000000        -2.266948384875394E-112
   70.6443750000000        -4.830200614306956E-112
   70.8581250000000        -8.314169732726534E-112
   71.0718750000000        -1.242830264436422E-111
   71.2856250000000        -1.637059409945073E-111
   71.4993750000000        -1.859722239624674E-111
   71.7131250000000        -1.661989261385223E-111
   71.9268750000000        -6.925840503446224E-112
   72.1406250000000         1.483522347688807E-111
   72.3543750000000         5.320483580302705E-111
   72.5681250000000         1.115874605781614E-110
   72.7818750000000         1.900307610196509E-110
   72.9956250000000         2.819973239749306E-110
   73.2093750000000         3.702238892750138E-110
   73.4231250000000         4.221404288770664E-110
   73.6368750000000         3.858906253780971E-110
   73.8506250000000         1.887556993455482E-110
   74.0643750000000        -2.593242456463207E-110
   74.2781250000000        -1.053561798671053E-109
   74.4918750000000        -2.269309676698362E-109
   74.7056250000000        -3.920188277361647E-109
   74.9193750000000        -5.896728937975349E-109
   75.1331250000000        -7.886328750901388E-109
   75.3468750000000        -9.281522460721955E-109
   75.5606250000000        -9.093263415251099E-109
   75.7743750000000        -5.899402188072083E-109
   75.9881250000000         2.124555880519954E-109
   76.2018750000000         1.702675209255861E-108
   76.4156250000000         4.067010203696722E-108
   76.6293750000000         7.400295270335688E-108
   76.8431250000000         1.159295080545534E-107
   77.0568750000000         1.617436385390261E-107
   77.2706250000000         2.011841684100145E-107
   77.4843750000000         2.163361052302612E-107
   77.6981250000000         1.798600121041614E-107
   77.9118750000000         5.439150350664568E-108
   78.1256250000000        -2.055959615190734E-107
   78.3393750000000        -6.476798271878391E-107
   78.5531250000000        -1.308926298960825E-106
   78.7668750000000        -2.194541671599842E-106
   78.9806250000000        -3.245882255136827E-106
   79.1943750000000        -4.297525609014984E-106
   79.4081250000000        -5.026313814222747E-106
   79.6218750000000        -4.900737089557866E-106
   79.8356250000000        -3.147173921398757E-106
   80.0493750000000         1.239693942257625E-106
   80.2631250000000         9.402505197525255E-106
   80.4768750000000         2.239152332147642E-105
   80.6906250000000         4.074241441297384E-105
   80.9043750000000         6.381183221517489E-105
   81.1181250000000         8.885272750977601E-105
   81.3318750000000         1.098797938304419E-104
   81.5456250000000         1.164936435705735E-104
   81.7593750000000         9.300833587726125E-105
   81.9731250000000         1.845700177929986E-105
   82.1868750000000        -1.316912576938460E-104
   82.4006250000000        -3.810432677884799E-104
   82.6143750000000        -7.438734549072088E-104
   82.8281250000000        -1.211854023627037E-103
   83.0418750000000        -1.735694826643451E-103
   83.2556250000000        -2.202912957791187E-103
   83.4693750000000        -2.415336714317006E-103
   83.6831250000000        -2.073340063372476E-103
   83.8968750000000        -7.780049992655379E-104
   84.1106250000000         1.933221146406577E-103
   84.3243750000000         6.498539364660211E-103
   84.5381250000000         1.317252782035292E-102
   84.7518750000000         2.178248098788641E-102
   84.9656250000000         3.140245744512855E-102
   85.1793750000000         3.997500983585457E-102
   85.3931250000000         4.395325517934163E-102
   85.6068750000000         3.809269360449584E-102
   85.8206250000000         1.558715093311077E-102
   86.0343750000000        -3.119701510893875E-102
   86.2481250000000        -1.091028730021703E-101
   86.4618750000000        -2.214260529250793E-101
   86.6756250000000        -3.638991441778563E-101
   86.8893750000000        -5.195822652790653E-101
   87.1031250000000        -6.532956101150076E-101
   87.3168750000000        -7.068955492032258E-101
   87.5306250000000        -5.975128157704038E-101
   87.7443750000000        -2.217142171761368E-101
   87.9581250000000         5.308157018326266E-101
   88.1718750000000         1.750407700297770E-100
   88.3856250000000         3.464659959271825E-100
   88.5993750000000         5.579656843854484E-100
   88.8131250000000         7.809604132955597E-100
   89.0268750000000         9.606244970040164E-100
   89.2406250000000         1.010841303092735E-099
   89.4543750000000         8.142122210832479E-100
   89.6681250000000         2.310562024862443E-100
   89.8818750000000        -8.782164720519783E-100
   90.0956250000000        -2.613448096220042E-099
   90.3093750000000        -4.975845567520617E-099
   90.5231250000000        -7.791905727205489E-099
   90.7368750000000        -1.062861058167395E-098
   90.9506250000000        -1.271714823817750E-098
   91.1643750000000        -1.291287278141314E-098
   91.3781250000000        -9.729598399607096E-099
   91.5918750000000        -1.493657711812993E-099
   91.8056250000000         1.333682110666051E-098
   92.0193750000000         3.565452580759011E-098
   92.2331250000000         6.498524918169929E-098
   92.4468750000000         9.862087205801364E-098
   92.6606250000000         1.307311405832525E-097
   92.8743750000000         1.516789388458398E-097
   93.0881250000000         1.478671605731402E-097
   93.3018750000000         1.025321211440441E-097
   93.5156250000000        -2.066196860173723E-099
   93.7293750000000        -1.806677207276871E-097
   93.9431250000000        -4.390668254667965E-097
   94.1568750000000        -7.664102787602354E-097
   94.3706250000000        -1.126556897834791E-096
   94.5843750000000        -1.450113652306349E-096
   94.7981250000000        -1.629666143021245E-096
   95.0118750000000        -1.521564308189163E-096
   95.2256250000000        -9.581468627432071E-097
   95.4393750000000         2.258537411025626E-097
   95.6531250000000         2.150181491157017E-096
   95.8668750000000         4.829276762503240E-096
   96.0806250000000         8.100189421696917E-096
   96.2943750000000         1.154839186144258E-095
   96.5081250000000         1.444865612481508E-095
   96.7218750000000         1.574511920605277E-095
   96.9356250000000         1.409986091549820E-095
   97.1493750000000         8.040373037945396E-096
   97.3631250000000        -3.769566336075711E-096
   97.5768750000000        -2.212656343996541E-095
   97.7906250000000        -4.676968262096557E-095
   98.0043750000000        -7.580417968620552E-095
   98.2181250000000        -1.051702236059214E-094
   98.4318750000000        -1.283090624696942E-094
   98.6456250000000        -1.362193463938588E-094
   98.8593750000000        -1.181128000521641E-094
   99.0731250000000        -6.285379115505143E-095
   99.2868750000000         3.871518305488520E-095
   99.5006250000000         1.906120331805645E-094
   99.7143750000000         3.879895553815586E-094
   99.9281250000000         6.133931854420321E-094
   100.141875000000         8.338394877810647E-094
   100.355625000000         9.997947829035940E-094
   100.569375000000         1.047243423310978E-093
   100.783125000000         9.039197760256170E-094
   100.996875000000         5.003524087194621E-094
   101.210625000000        -2.144149375783403E-094
   101.424375000000        -1.253683345303519E-093
   101.638125000000        -2.573139882863323E-093
   101.851875000000        -4.054006926394951E-093
   102.065625000000        -5.494188653108885E-093
   102.279375000000        -6.612477500624449E-093
   102.493125000000        -7.069853917470577E-093
   102.706875000000        -6.509400588203546E-093
   102.920625000000        -4.612372859389296E-093
   103.134375000000        -1.162991991333993E-093
   103.348125000000         3.890399758959227E-093
   103.561875000000         1.039344487128704E-092
   103.775625000000         1.797834012723638E-092
   103.989375000000         2.609998054348103E-092
   104.203125000000         3.411174001973441E-092
   104.416875000000         4.135727604788240E-092
   104.630625000000         4.723136091403231E-092
   104.844375000000         5.114193744816077E-092
   105.058125000000         5.229725286634567E-092
   105.271875000000         4.925869750829334E-092
   105.485625000000         3.925502470618465E-092
   105.699375000000         1.735658120125906E-092
   105.913125000000        -2.424059191585696E-092
   106.126875000000        -9.638709454448668E-092
   106.340625000000        -2.119970345907871E-091
   106.554375000000        -3.831897204702584E-091
   106.768125000000        -6.158890346655965E-091
   106.981875000000        -9.015313045827712E-091
   107.195625000000        -1.206214300631779E-090
   107.409375000000        -1.458722865403221E-090
   107.623125000000        -1.540360334412693E-090
   107.836875000000        -1.281229510148698E-090
   108.050625000000        -4.691863937564502E-091
   108.264375000000         1.121432491289402E-090
   108.478125000000         3.674789753068743E-090
   108.691875000000         7.248614710734774E-090
   108.905625000000         1.166174628520065E-089
   109.119375000000         1.636609380051845E-089
   109.333125000000         2.032780635237773E-089
   109.546875000000         2.195723513684310E-089
   109.760625000000         1.914122671637681E-089
   109.974375000000         9.439996005521511E-090
   110.188125000000        -9.491575652008753E-090
   110.401875000000        -3.921858831322594E-089
   110.615625000000        -7.958136890422326E-089
   110.829375000000        -1.275681502701527E-088
   111.043125000000        -1.761809705322608E-088
   111.256875000000        -2.135873287879304E-088
   111.470625000000        -2.229653097664952E-088
   111.684375000000        -1.835322834983012E-088
   111.898125000000        -7.325462468261659E-089
   112.111875000000         1.263810047358377E-088
   112.325625000000         4.234430059868461E-088
   112.539375000000         8.068783162616709E-088
   112.753125000000         1.237183600263452E-087
   112.966875000000         1.638374581379543E-087
   113.180625000000         1.894084490796213E-087
   113.394375000000         1.851327432209653E-087
   113.608125000000         1.335706016724231E-087
   113.821875000000         1.812835442198952E-088
   114.035625000000        -1.723365161141879E-087
   114.249375000000        -4.374526050414961E-087
   114.463125000000        -7.584334914154842E-087
   114.676875000000        -1.091538141334391E-086
   114.890625000000        -1.363722203369143E-086
   115.104375000000        -1.472861270472172E-086
   115.318125000000        -1.295218417728062E-086
   115.531875000000        -7.026337373633383E-087
   115.745625000000         4.090043805300144E-087
   115.959375000000         2.080286180915694E-086
   116.173125000000         4.240934815839643E-086
   116.386875000000         6.661467412844440E-086
   116.600625000000         8.915003121589104E-086
   116.814375000000         1.036438911832311E-085
   117.028125000000         1.019250620692481E-085
   117.241875000000         7.493543821492361E-086
   117.455625000000         1.438631366069656E-086
   117.669375000000        -8.480940796625593E-086
   117.883125000000        -2.214642714525255E-085
   118.096875000000        -3.847686595629838E-085
   118.310625000000        -5.513097168894803E-085
   118.524375000000        -6.833768713789956E-085
   118.738125000000        -7.296924022836988E-085
   118.951875000000        -6.297775409845405E-085
   119.165625000000        -3.229909754029961E-085
   119.379375000000         2.372394134374520E-085
   119.593125000000         1.064399292976951E-084
   119.806875000000         2.116846024458386E-084
   120.020625000000         3.276200584731405E-084
   120.234375000000         4.331468142122257E-084
   120.448125000000         4.975807245231885E-084
   120.661875000000         4.823787402591538E-084
   120.875625000000         3.456588362132451E-084
   121.089375000000         5.002738599033369E-085
   121.303125000000        -4.262506641049248E-084
   121.516875000000        -1.075451815476050E-083
   121.730625000000        -1.845671987652613E-083
   121.944375000000        -2.628038231826128E-083
   122.158125000000        -3.249833189957216E-083
   122.371875000000        -3.478341658980444E-083
   122.585625000000        -3.040420915634960E-083
   122.799375000000        -1.661965140351946E-083
   123.013125000000         8.707812809804844E-084
   123.226875000000         4.629948430828450E-083
   123.440625000000         9.452164723409899E-083
   123.654375000000         1.484619514042635E-082
   123.868125000000         1.992342030002132E-082