  -1.60312500000000         0.000000000000000E+000
  -1.38937500000000         0.000000000000000E+000
  -1.17562500000000         0.000000000000000E+000
 -0.961875000000000         0.000000000000000E+000
 -0.748125000000000         0.000000000000000E+000
 -0.534375000000000         0.000000000000000E+000
 -0.320625000000000         0.000000000000000E+000
 -0.106875000000000         0.000000000000000E+000
  0.106875000000000         0.000000000000000E+000
  0.320625000000000         0.000000000000000E+000
  0.534375000000000         0.000000000000000E+000
  0.748125000000000         0.000000000000000E+000
  0.961875000000000         0.000000000000000E+000
   1.17562500000000         0.000000000000000E+000
   1.38937500000000         0.000000000000000E+000
   1.60312500000000         0.000000000000000E+000
   1.81687500000000         0.000000000000000E+000
   2.03062500000000         0.000000000000000E+000
   2.24437500000000         0.000000000000000E+000
   2.45812500000000         0.000000000000000E+000
   2.67187500000000         0.000000000000000E+000
   2.88562500000000         0.000000000000000E+000
   3.09937500000000         0.000000000000000E+000
   3.31312500000000         0.000000000000000E+000
   3.52687500000000         0.000000000000000E+000
   3.74062500000000         0.000000000000000E+000
   3.95437500000000         0.000000000000000E+000
   4.16812500000000         0.000000000000000E+000
   4.38187500000000         0.000000000000000E+000
   4.59562500000000         0.000000000000000E+000
   4.80937500000000         0.000000000000000E+000
   5.02312500000000         0.000000000000000E+000
   5.23687500000000         0.000000000000000E+000
   5.45062500000000         0.000000000000000E+000
   5.66437500000000         0.000000000000000E+000
   5.87812500000000         0.000000000000000E+000
   6.09187500000000         0.000000000000000E+000
   6.30562500000000         0.000000000000000E+000
   6.51937500000000         0.000000000000000E+000
   6.73312500000000         0.000000000000000E+000
   6.94687500000000         0.000000000000000E+000
   7.16062500000000         0.000000000000000E+000
   7.37437500000000         0.000000000000000E+000
   7.58812500000000         0.000000000000000E+000
   7.80187500000000         0.000000000000000E+000
   8.01562500000000         0.000000000000000E+000
   8.22937500000000         0.000000000000000E+000
   8.44312500000000         0.000000000000000E+000
   8.65687500000000         0.000000000000000E+000
   8.87062500000000         0.000000000000000E+000
   9.08437500000000         0.000000000000000E+000
   9.29812500000000         0.000000000000000E+000
   9.51187500000000         0.000000000000000E+000
   9.72562500000000         0.000000000000000E+000
   9.93937500000000        -3.285110028579625E-223
   10.1531250000000         1.050369999501721E-214
   10.3668750000000         8.666336548022075E-214
   10.5806250000000         6.037418385176788E-210
   10.7943750000000         3.443074521199866E-208
   11.0081250000000         1.143616963704544E-206
   11.2218750000000         3.310640406810129E-205
   11.4356250000000         8.770430791648635E-204
   11.6493750000000         1.948672648948306E-202
   11.8631250000000         3.466529854824126E-201
   12.0768750000000         4.925898305793797E-200
   12.2906250000000         5.664242144009281E-199
   12.5043750000000         5.367797048770767E-198
   12.7181250000000         4.322176722270746E-197
   12.9318750000000         3.165275744219054E-196
   13.1456250000000         2.401812629794245E-195
   13.3593750000000         2.114732549895988E-194
   13.5731250000000         2.048005089447293E-193
   13.7868750000000         1.892958965725890E-192
   14.0006250000000         1.510752088501324E-191
   14.2143750000000         9.647287896162838E-191
   14.4281250000000         4.154669510693826E-190
   14.6418750000000        -7.807128095105458E-192
   14.8556250000000        -2.319009270844806E-188
   15.0693750000000        -3.021707038217532E-187
   15.2831250000000        -2.721147056730650E-186
   15.4968750000000        -2.011660293038750E-185
   15.7106250000000        -1.288890619343967E-184
   15.9243750000000        -7.321598445267823E-184
   16.1381250000000        -3.720134418322737E-183
   16.3518750000000        -1.689287138202182E-182
   16.5656250000000        -6.771952589896525E-182
   16.7793750000000        -2.315915325640314E-181
   16.9931250000000        -6.108230950758696E-181
   17.2068750000000        -7.125714952929833E-181
   17.4206250000000         4.745418753234517E-180
   17.6343750000000         4.621437007876161E-179
   17.8481250000000         2.597539532541533E-178
   18.0618750000000         1.147169641217781E-177
   18.2756250000000         4.211408627256527E-177
   18.4893750000000         1.264194882917598E-176
   18.7031250000000         2.729487972860674E-176
   18.9168750000000         1.107356637423121E-176
   19.1306250000000        -2.922771011144064E-175
   19.3443750000000        -2.084178443189028E-174
   19.5581250000000        -9.948868511106374E-174
   19.7718750000000        -3.868780576696536E-173
   19.9856250000000        -1.281274216101855E-172
   20.1993750000000        -3.590678870742709E-172
   20.4131250000000        -7.944465397948522E-172
   20.6268750000000        -9.771306037617848E-172
   20.8406250000000         2.376373722939448E-171
   21.0543750000000         2.365755260087065E-170
   21.2681250000000         1.132905820830778E-169
   21.4818750000000         4.205366508132250E-169
   21.6956250000000         1.316494531755574E-168
   21.9093750000000         3.517390054678219E-168
   22.1231250000000         7.710430585379770E-168
   22.3368750000000         1.157803603774589E-167
   22.5506250000000        -2.687220970898886E-168
   22.7643750000000        -1.093648283757323E-166
   22.9781250000000        -5.524732903964051E-166
   23.1918750000000        -2.010476567290768E-165
   23.4056250000000        -6.090386931456067E-165
   23.6193750000000        -1.588464420866067E-164
   23.8331250000000        -3.528344968087214E-164
   24.0468750000000        -6.202253804821377E-164
   24.2606250000000        -5.963950867573650E-164
   24.4743750000000         1.279078642646300E-163
   24.6881250000000         9.914667601516515E-163
   24.9018750000000         3.806540681959612E-162
   25.1156250000000         1.134878978828233E-161
   25.3293750000000         2.838962424996783E-161
   25.5431250000000         5.965056668650505E-161
   25.7568750000000         9.786791612877980E-161
   25.9706250000000         8.327455571055212E-161
   26.1843750000000        -2.048543352211499E-160
   26.3981250000000        -1.389644563679735E-159
   26.6118750000000        -4.932943426548953E-159
   26.8256250000000        -1.367781571317625E-158
   27.0393750000000        -3.179633453438660E-158
   27.2531250000000        -6.168426617998578E-158
   27.4668750000000        -9.123521884442720E-158
   27.6806250000000        -5.697156401679019E-158
   27.8943750000000         2.434214033435349E-157
   28.1081250000000         1.324890069870723E-156
   28.3218750000000         4.290764028761400E-156
   28.5356250000000         1.110278216084127E-155
   28.7493750000000         2.434669766067196E-155
   28.9631250000000         4.503454539789571E-155
   29.1768750000000         6.503204014726621E-155
   29.3906250000000         4.746742409909527E-155
   29.6043750000000        -1.152875461938018E-154
   29.8181250000000        -6.767492305149720E-154
   30.0318750000000        -2.140187143403828E-153
   30.2456250000000        -5.329307211057160E-153
   30.4593750000000        -1.121267384321316E-152
   30.6731250000000        -1.994699126062716E-152
   30.8868750000000        -2.803692198518447E-152
   31.1006250000000        -2.172946033875324E-152
   31.3143750000000         3.581889590572315E-152
   31.5281250000000         2.251046549897744E-151
   31.7418750000000         6.943991106445711E-151
   31.9556250000000         1.666727337796019E-150
   32.1693750000000         3.371877696169380E-150
   32.3831250000000         5.776511451759420E-150
   32.5968750000000         7.880063965462067E-150
   32.8106250000000         6.227968167286520E-150
   33.0243750000000        -7.732011229178095E-150
   33.2381250000000        -5.150716468689198E-149
   33.4518750000000        -1.555259598560139E-148
   33.6656250000000        -3.632816348103003E-148
   33.8793750000000        -7.181749791147014E-148
   34.0931250000000        -1.218495145139760E-147
   34.3068750000000        -1.710024284785916E-147
   34.5206250000000        -1.675473396604399E-147
   34.7343750000000         1.165473389690042E-148
   34.9481250000000         6.099223073494632E-147
   35.1618750000000         2.041174792516111E-146
   35.3756250000000         4.906194645656488E-146
   35.5893750000000         9.899369841686927E-146
   35.8031250000000         1.747645350363014E-145
   36.0168750000000         2.709573732731670E-145
   36.2306250000000         3.580339432384916E-145
   36.4443750000000         3.592534874045030E-145
   36.6581250000000         1.162020472329829E-145
   36.8718750000000        -6.613517560423229E-145
   37.0856250000000        -2.473612334365152E-144
   37.2993750000000        -6.171285275402066E-144
   37.5131250000000        -1.323642783166386E-143
   37.7268750000000        -2.633965030066361E-143
   37.9406250000000        -5.032243188082135E-143
   38.1543750000000        -9.352979351079529E-143
   38.3681250000000        -1.685062492389263E-142
   38.5818750000000        -2.885883095668797E-142
   38.7956250000000        -4.514816581393902E-142
   39.0093750000000        -5.908481631710514E-142
   39.2231250000000        -4.615768457529469E-142
   39.4368750000000         5.926379696624139E-142
   39.6506250000000         4.044856189881924E-141
   39.8643750000000         1.277244322211460E-140
   40.0781250000000         3.166058659017656E-140
   40.2918750000000         6.761784156197297E-140
   40.5056250000000         1.275055811709531E-139
   40.7193750000000         2.109319450017036E-139
   40.9331250000000         2.926161710624074E-139
   41.1468750000000         2.866208402644241E-139
   41.3606250000000        -1.595811936331999E-140
   41.5743750000000        -1.038819482541103E-138
   41.7881250000000        -3.524543225837943E-138
   42.0018750000000        -8.584295151697462E-138
   42.2156250000000        -1.752825939779911E-137
   42.4293750000000        -3.114515078993710E-137
   42.6431250000000        -4.786095531195239E-137
   42.8568750000000        -5.994786323712697E-137
   43.0706250000000        -4.684540332940707E-137
   43.2843750000000         3.490607083496171E-137
   43.4981250000000         2.638782275301015E-136
   43.7118750000000         7.626007487918215E-136
   43.9256250000000         1.689061216876012E-135
   44.1393750000000         3.182563883983341E-135
   44.3531250000000         5.215132194610380E-135
   44.5668750000000         7.276636567223261E-135
   44.7806250000000         7.809104323286660E-135
   44.9943750000000         3.332576395624052E-135
   45.2081250000000        -1.267328921496635E-134
   45.4218750000000        -5.076207610703719E-134
   45.6356250000000        -1.254093809155142E-133
   45.8493750000000        -2.517876232130585E-133
   46.0631250000000        -4.359300641571468E-133
   46.2768750000000        -6.530785770100418E-133
   46.4906250000000        -8.078959650194750E-133
   46.7043750000000        -6.715716154849688E-133
   46.9181250000000         2.018626067350049E-133
   47.1318750000000         2.558942142238885E-132
   47.3456250000000         7.471303673428880E-132
   47.5593750000000         1.617913505558337E-131
   47.7731250000000         2.953947137221072E-131
   47.9868750000000         4.675828791507184E-131
   48.2006250000000         6.300906066143161E-131
   48.4143750000000         6.559831200795741E-131
   48.6281250000000         2.872040243348973E-131
   48.8418750000000        -9.215437812081221E-131
   49.0556250000000        -3.632058718551525E-130
   49.2693750000000        -8.660596149838693E-130
   49.4831250000000        -1.671121600571507E-129
   49.6968750000000        -2.773403714770268E-129
   49.9106250000000        -3.969500254100714E-129
   50.1243750000000        -4.656520043140831E-129
   50.3381250000000        -3.551380418214334E-129
   50.5518750000000         1.624246809940831E-129
   50.7656250000000         1.435417009806257E-128
   50.9793750000000         3.913615081057399E-128
   51.1931250000000         8.036534457077511E-128
   51.4068750000000         1.395038276275726E-127
   51.6206250000000         2.095401243473561E-127
   51.8343750000000         2.658064529203517E-127
   52.0481250000000         2.529327702842756E-127
   52.2618750000000         6.964340146972626E-128
   52.4756250000000        -4.430394368774027E-127
   52.6893750000000        -1.498155686544679E-126
   52.9031250000000        -3.322442029581147E-126
   53.1168750000000        -6.047018152188301E-126
   53.3306250000000        -9.487997326143894E-126
   53.5443750000000        -1.277698199403528E-125
   53.7581250000000        -1.382643018647888E-125
   53.9718750000000        -8.684654992100836E-126
   54.1856250000000         9.024171076080061E-126
   54.3993750000000         4.814355652724184E-125
   54.6131250000000         1.187409319206182E-124
   54.8268750000000         2.283997183993629E-124
   55.0406250000000         3.745214019354902E-124
   55.2543750000000         5.310857882895521E-124
   55.4681250000000         6.290786050270327E-124
   55.6818750000000         5.320348099084072E-124
   55.8956250000000         1.273201207200804E-125
   56.1093750000000        -1.255161297618756E-123
   56.3231250000000        -3.665391107997742E-123
   56.5368750000000        -7.568505104409535E-123
   56.7506250000000        -1.303085241203408E-122
   56.9643750000000        -1.940831716804936E-122
   57.1781250000000        -2.469973845114593E-122
   57.3918750000000        -2.470908870627284E-122
   57.6056250000000        -1.218063867857588E-122
   57.8193750000000         2.369584044252503E-122
   58.0331250000000         9.666911397402534E-122
   58.2468750000000         2.205287667297641E-121
   58.4606250000000         4.023361865021609E-121
   58.6743750000000         6.300078289090337E-121
   58.8881250000000         8.529102197892919E-121
   59.1018750000000         9.557767567333786E-121
   59.3156250000000         7.298855189073900E-121
   59.5293750000000        -1.481676449073486E-121
   59.7431250000000        -2.110140934390803E-120
   59.9568750000000        -5.629933187039502E-120
   60.1706250000000        -1.105243754250470E-119
   60.3843750000000        -1.826491524714601E-119
   60.5981250000000        -2.616611965193211E-119
   60.8118750000000        -3.192685965262867E-119
   61.0256250000000        -3.012500070065376E-119
   61.2393750000000        -1.199947238489501E-119
   61.4531250000000         3.468403740895211E-119
   61.6668750000000         1.243364857464292E-118
   61.8806250000000         2.696477213830966E-118
   62.0943750000000         4.736721443431094E-118
   62.3081250000000         7.165823321991722E-118
   62.5218750000000         9.365903876476573E-118
   62.7356250000000         1.006556625063036E-117
   62.9493750000000         7.115600885138679E-118
   63.1631250000000        -2.614225002685600E-118
   63.3768750000000        -2.302703320709782E-117
   63.5906250000000        -5.800150343083886E-117
   63.8043750000000        -1.096593969685944E-116
   64.0181250000000        -1.753559193866556E-116
   64.2318750000000        -2.432085137729881E-116
   64.4456250000000        -2.863994364292792E-116
   64.6593750000000        -2.572881622219104E-116
   64.8731250000000        -8.364075619987636E-117
   65.0868750000000         3.289864852191536E-116
   65.3006250000000         1.082702638837889E-115
   65.5143750000000         2.252929826834110E-115
   65.7281250000000         3.826342674025184E-115
   65.9418750000000         5.605978969264469E-115
   66.1556250000000         7.086395835127258E-115
   66.3693750000000         7.317348394703559E-115
   66.5831250000000         4.799514307082312E-115
   66.7968750000000        -2.509801242303734E-115
   67.0106250000000        -1.696327778121103E-114
   67.2243750000000        -4.061015477329810E-114
   67.4381250000000        -7.404037669816127E-114
   67.6518750000000        -1.145685818500083E-113
   67.8656250000000        -1.537791874944272E-113
   68.0793750000000        -1.747302055531851E-113
   68.2931250000000        -1.495601760040868E-113
   68.5068750000000        -3.885913283677489E-114
   68.7206250000000         2.051172189262095E-113
   68.9343750000000         6.286677707496761E-113
   69.1481250000000         1.257335922101530E-112
   69.3618750000000         2.064758563823699E-112
   69.5756250000000         2.929557516941272E-112
   69.7893750000000         3.584577722549016E-112
   70.0031250000000         3.569936006007175E-112
   70.2168750000000         2.211214020437369E-112
   70.4306250000000        -1.344367089460563E-112
   70.6443750000000        -7.990531782056199E-112
   70.8581250000000        -1.837559085851227E-111
   71.0718750000000        -3.242825000189832E-111
   71.2856250000000        -4.868798580349530E-111
   71.4993750000000        -6.349566208397747E-111
   71.7131250000000        -7.020193056712196E-111
   71.9268750000000        -5.869009958180764E-111
   72.1406250000000        -1.567063668373497E-111
   72.3543750000000         7.365147411159286E-111
   72.5681250000000         2.218729898618764E-110
   72.7818750000000         4.331017671501481E-110
   72.9956250000000         6.939300423949527E-110
   73.2093750000000         9.623210839235647E-110
   73.4231250000000         1.156317673416687E-109
   73.6368750000000         1.146156784040835E-109
   73.8506250000000         7.552444923446799E-110
   74.0643750000000        -2.229634010315669E-110
   74.2781250000000        -1.984573871547593E-109
   74.4918750000000        -4.645248115673794E-109
   74.7056250000000        -8.139088814844992E-109
   74.9193750000000        -1.209359788683565E-108
   75.1331250000000        -1.570074599340529E-108
   75.3468750000000        -1.762014722922310E-108
   75.5606250000000        -1.596634723516299E-108
   75.7743750000000        -8.443044910769923E-109
   75.9881250000000         7.314579638233273E-109
   76.2018750000000         3.315037434783081E-108
   76.4156250000000         6.956030657486249E-108
   76.6293750000000         1.147138989173708E-107
   76.8431250000000         1.635031064261660E-107
   77.0568750000000         2.068837965186008E-107
   77.2706250000000         2.318130829960855E-107
   77.4843750000000         2.220237580628470E-107
   77.6981250000000         1.596659122597328E-107
   77.9118750000000         2.746662917072211E-108
   78.1256250000000        -1.894379355806912E-107
   78.3393750000000        -5.032917588339074E-107
   78.5531250000000        -9.265041934992709E-107
   78.7668750000000        -1.478047437358891E-106
   78.9806250000000        -2.191926503767393E-106
   79.1943750000000        -3.122169585870788E-106
   79.4081250000000        -4.332889070074783E-106
   79.6218750000000        -5.855066583085930E-106
   79.8356250000000        -7.586199524168249E-106
   80.0493750000000        -9.109203700125708E-106
   80.2631250000000        -9.419570252582676E-106
   80.4768750000000        -6.582873117842930E-106
   80.6906250000000         2.593871090080345E-106
   80.9043750000000         2.270002250622739E-105
   81.1181250000000         5.937194314258634E-105
   81.3318750000000         1.180383102795937E-104
   81.5456250000000         2.012670830014941E-104
   81.7593750000000         3.042735337805822E-104
   81.9731250000000         4.084395107921839E-104
   82.1868750000000         4.733505968784635E-104
   82.4006250000000         4.289901822255573E-104
   82.6143750000000         1.713707284814839E-104
   82.8281250000000        -4.330986106847539E-104
   83.0418750000000        -1.527215773121308E-103
   83.2556250000000        -3.218084188970451E-103
   83.4693750000000        -5.500081026071327E-103
   83.6831250000000        -8.142595379327197E-103
   83.8968750000000        -1.054945807579720E-102
   84.1106250000000        -1.161402355808200E-102
   84.3243750000000        -9.618309770605587E-103
   84.5381250000000        -2.254542142213292E-103
   84.7518750000000         1.312273308584524E-102
   84.9656250000000         3.888676722376182E-102
   85.1793750000000         7.605199100805542E-102
   85.3931250000000         1.226488950948333E-101
   85.6068750000000         1.716288485646888E-101
   85.8206250000000         2.085906125425355E-101
   86.0343750000000         2.099426443774649E-101
   86.2481250000000         1.425140460256270E-101
   86.4618750000000        -3.396580764660039E-102
   86.6756250000000        -3.598126844727958E-101
   86.8893750000000        -8.620860658440747E-101
   87.1031250000000        -1.533987091430934E-100
   87.3168750000000        -2.307396748825792E-100
   87.5306250000000        -3.021617490896844E-100
   87.7443750000000        -3.395223991374365E-100
   87.9581250000000        -3.012764235405716E-100
   88.1718750000000        -1.343144071588470E-100
   88.3856250000000         2.189548273392812E-100
   88.5993750000000         8.061483010240485E-100
   88.8131250000000         1.641528844776287E-099
   89.0268750000000         2.673693221763283E-099
   89.2406250000000         3.747121492901012E-099
   89.4543750000000         4.564572945743588E-099
   89.6681250000000         4.662701737569652E-099
   89.8818750000000         3.419124767690138E-099
   90.0956250000000         1.140630498942825E-100
   90.3093750000000        -5.928678974314160E-099
   90.5231250000000        -1.510128819570679E-098
   90.7368750000000        -2.716641774816933E-098
   90.9506250000000        -4.082837323544498E-098
   91.1643750000000        -5.328502814178963E-098
   91.3781250000000        -5.988002397489430E-098
   91.5918750000000        -5.403716575763288E-098
   91.8056250000000        -2.771458045792076E-098
   92.0193750000000         2.735656903832722E-098
   92.2331250000000         1.174148414642235E-097
   92.4468750000000         2.432821821966462E-097
   92.6606250000000         3.959868074132248E-097
   92.8743750000000         5.519282000848240E-097
   93.0881250000000         6.686497052247220E-097
   93.3018750000000         6.829009569430175E-097
   93.5156250000000         5.132552714054490E-097
   93.7293750000000         6.990187133631393E-098
   93.9431250000000        -7.259100193696283E-097
   94.1568750000000        -1.911258979262935E-096
   94.3706250000000        -3.440349048001323E-096
   94.5843750000000        -5.136738549442436E-096
   94.7981250000000        -6.647796954118707E-096
   95.0118750000000        -7.415884299759654E-096
   95.2256250000000        -6.686403186572361E-096
   95.4393750000000        -3.576852814843348E-096
   95.6531250000000         2.768991293081010E-096
   95.8668750000000         1.292444161198430E-095
   96.0806250000000         2.681990434476446E-095
   96.2943750000000         4.330680560853755E-095
   96.5081250000000         5.971294724637811E-095
   96.7218750000000         7.150620945209093E-095
   96.9356250000000         7.223469842182699E-095
   97.1493750000000         5.395141654672151E-095
   97.3631250000000         8.341579259152324E-096
   97.5768750000000        -7.127238293466823E-095
   97.7906250000000        -1.869935892202208E-094
   98.0043750000000        -3.326439598669956E-094
   98.2181250000000        -4.897705692537902E-094
   98.4318750000000        -6.242519111104079E-094
   98.6456250000000        -6.848257751542166E-094
   98.8593750000000        -6.052283264753360E-094
   99.0731250000000        -3.117905298370347E-094
   99.2868750000000         2.618992832290747E-094
   99.5006250000000         1.152485531941503E-093
   99.7143750000000         2.337291070068494E-093
   99.9281250000000         3.700933096101199E-093
   100.141875000000         5.004458904386821E-093
   100.355625000000         5.866842749217377E-093
   100.569375000000         5.771833787548957E-093
   100.783125000000         4.114890137948673E-093
   100.996875000000         3.039048326938057E-094
   101.210625000000        -6.077888645618010E-093
   101.424375000000        -1.504939816899567E-092
   101.638125000000        -2.596941747125474E-092
   101.851875000000        -3.727766757307166E-092
   102.065625000000        -4.630881434422075E-092
   102.279375000000        -4.927449528119173E-092
   102.493125000000        -4.152499774006370E-092
   102.706875000000        -1.820024092171600E-092
   102.920625000000         2.465205338762113E-092
   103.134375000000         8.848506923021815E-092
   103.348125000000         1.703011366528079E-091
   103.561875000000         2.606157219683477E-091
   103.775625000000         3.418076049963037E-091
   103.989375000000         3.875194371959146E-091
   104.203125000000         3.639159865470870E-091
   104.416875000000         2.336318370317662E-091
   104.630625000000        -3.693309961279965E-092
   104.844375000000        -4.667601171896165E-091
   105.058125000000        -1.046366701758535E-090
   105.271875000000        -1.722643511362283E-090
   105.485625000000        -2.385403963270884E-090
   105.699375000000        -2.860091092545944E-090
   105.913125000000        -2.912233545647185E-090
   106.126875000000        -2.269671885355824E-090
   106.340625000000        -6.677476136654087E-091
   106.554375000000         2.079985639066038E-090
   106.768125000000         5.987824361685827E-090
   106.981875000000         1.079023213998027E-089
   107.195625000000         1.583899790752030E-089
   107.409375000000         2.003371246558654E-089
   107.623125000000         2.182271616757055E-089
   107.836875000000         1.931625766355019E-089
   108.050625000000         1.055055612242880E-089
   108.264375000000        -6.072950896459562E-090
   108.478125000000        -3.117775851211145E-089
   108.691875000000        -6.368107864787471E-089
   108.905625000000        -1.000491323730911E-088
   109.119375000000        -1.337131911037710E-088
   109.333125000000        -1.548829174480010E-088
   109.546875000000        -1.510342413815951E-088
   109.760625000000        -1.083456890586187E-088
   109.974375000000        -1.428528889991726E-089
   110.188125000000         1.386118857952183E-088
   110.401875000000         3.480001315281841E-088
   110.615625000000         5.965998015284488E-088
   110.829375000000         8.477072861312432E-088
   111.043125000000         1.042777147082140E-087
   111.256875000000         1.102837524019273E-087
   111.470625000000         9.355830806709774E-088
   111.684375000000         4.496796383233049E-088
   111.898125000000        -4.230350366481842E-088
   112.111875000000        -1.698258214210314E-087
   112.325625000000        -3.305770298249294E-087
   112.539375000000        -5.057379404088158E-087
   112.753125000000        -6.624585473674007E-087
   112.966875000000        -7.536628222968103E-087
   113.180625000000        -7.210712576037417E-087
   113.394375000000        -5.025192760438025E-087
   113.608125000000        -4.424074247225555E-088
   113.821875000000         6.820029332257423E-087
   114.035625000000         1.658258875201367E-086
   114.249375000000         2.799029622423122E-086
   114.463125000000         3.933784271087539E-086
   114.676875000000         4.799465801119408E-086
   114.890625000000         5.050141255579384E-086
   115.104375000000         4.290856505383002E-086
   115.318125000000         2.141005048953877E-086
   115.531875000000        -1.671384537672047E-086
   115.745625000000        -7.189342825388334E-086
   115.959375000000        -1.409406882387310E-085
   116.173125000000        -2.158287679831668E-085
   116.386875000000        -2.829133868252466E-085
   116.600625000000        -3.230057583914449E-085
   116.814375000000        -3.127296337337623E-085
   117.028125000000        -2.275325566328124E-085
   117.241875000000        -4.654287011005924E-086
   117.455625000000         2.408503557016185E-085
   117.669375000000         6.272668683242284E-085
   117.883125000000         1.079579998099775E-084
   118.096875000000         1.532848705104675E-084
   118.310625000000         1.888153846259696E-084
   118.524375000000         2.016824651349384E-084
   118.738125000000         1.773394608876461E-084
   118.951875000000         1.018885076059284E-084
   119.165625000000        -3.454558295424112E-085
   119.379375000000        -2.336073754873624E-084
   119.593125000000        -4.841707549171923E-084
   119.806875000000        -7.582943924987521E-084
   120.020625000000        -1.008806894849048E-083
   120.234375000000        -1.169866001310391E-083
   120.448125000000        -1.161855870960689E-083
   120.661875000000        -9.017168357315169E-084
   120.875625000000        -3.191591305432500E-084
   121.089375000000         6.218470065380091E-084
   121.303125000000         1.898360579407340E-083
   121.516875000000         3.404305254500244E-083
   121.730625000000         4.932346701543774E-083
   121.944375000000         6.168685650137613E-083
   122.158125000000         6.708196376051133E-083
   122.371875000000         6.096553708962860E-083
   122.585625000000         3.903383008200978E-083
   122.799375000000        -1.742771751336289E-084
   123.013125000000        -6.185791312490037E-083
   123.226875000000        -1.379416753676943E-082
   123.440625000000        -2.216204523050573E-082
   123.654375000000        -2.988986459689717E-082
   123.868125000000        -3.504443835223395E-082