  -1.60312500000000         0.000000000000000E+000
  -1.38937500000000         0.000000000000000E+000
  -1.17562500000000         0.000000000000000E+000
 -0.961875000000000         0.000000000000000E+000
 -0.748125000000000         0.000000000000000E+000
 -0.534375000000000         0.000000000000000E+000
 -0.320625000000000         0.000000000000000E+000
 -0.106875000000000         0.000000000000000E+000
  0.106875000000000         0.000000000000000E+000
  0.320625000000000         0.000000000000000E+000
  0.534375000000000         0.000000000000000E+000
  0.748125000000000         0.000000000000000E+000
  0.961875000000000         0.000000000000000E+000
   1.17562500000000         0.000000000000000E+000
   1.38937500000000         0.000000000000000E+000
   1.60312500000000         0.000000000000000E+000
   1.81687500000000         0.000000000000000E+000
   2.03062500000000         0.000000000000000E+000
   2.24437500000000         0.000000000000000E+000
   2.45812500000000         0.000000000000000E+000
   2.67187500000000         0.000000000000000E+000
   2.88562500000000         0.000000000000000E+000
   3.09937500000000         0.000000000000000E+000
   3.31312500000000         0.000000000000000E+000
   3.52687500000000         0.000000000000000E+000
   3.74062500000000         0.000000000000000E+000
   3.95437500000000         0.000000000000000E+000
   4.16812500000000         0.000000000000000E+000
   4.38187500000000         0.000000000000000E+000
   4.59562500000000         0.000000000000000E+000
   4.80937500000000         0.000000000000000E+000
   5.02312500000000         0.000000000000000E+000
   5.23687500000000         0.000000000000000E+000
   5.45062500000000         0.000000000000000E+000
   5.66437500000000         0.000000000000000E+000
   5.87812500000000         0.000000000000000E+000
   6.09187500000000         0.000000000000000E+000
   6.30562500000000         0.000000000000000E+000
   6.51937500000000         0.000000000000000E+000
   6.73312500000000         0.000000000000000E+000
   6.94687500000000         0.000000000000000E+000
   7.16062500000000         0.000000000000000E+000
   7.37437500000000         0.000000000000000E+000
   7.58812500000000         0.000000000000000E+000
   7.80187500000000         0.000000000000000E+000
   8.01562500000000         0.000000000000000E+000
   8.22937500000000         0.000000000000000E+000
   8.44312500000000         0.000000000000000E+000
   8.65687500000000         0.000000000000000E+000
   8.87062500000000         0.000000000000000E+000
   9.08437500000000         0.000000000000000E+000
   9.29812500000000         0.000000000000000E+000
   9.51187500000000         0.000000000000000E+000
   9.72562500000000         0.000000000000000E+000
   9.93937500000000         4.856264166954838E-223
   10.1531250000000        -6.452033817291736E-217
   10.3668750000000         1.309437074911131E-213
   10.5806250000000        -1.418817092075728E-211
   10.7943750000000         9.932051063485398E-209
   11.0081250000000         6.546493876072050E-207
   11.2218750000000         2.900336554013214E-205
   11.4356250000000         1.167931786745070E-203
   11.6493750000000         3.915955701109231E-202
   11.8631250000000         1.028839788618132E-200
   12.0768750000000         2.135438711131558E-199
   12.2906250000000         3.600579449691365E-198
   12.5043750000000         5.070676014559248E-197
   12.7181250000000         6.107262026964507E-196
   12.9318750000000         6.417661440116280E-195
   13.1456250000000         5.987605312296469E-194
   13.3593750000000         5.041460838625866E-193
   13.5731250000000         3.892795595228216E-192
   13.7868750000000         2.801298178516000E-191
   14.0006250000000         1.907657671693819E-190
   14.2143750000000         1.244789105486674E-189
   14.4281250000000         7.837505070889408E-189
   14.6418750000000         4.760950144398941E-188
   14.8556250000000         2.771441590453683E-187
   15.0693750000000         1.528409135033156E-186
   15.2831250000000         7.870175205546995E-186
   15.4968750000000         3.715992102527167E-185
   15.7106250000000         1.567017926922231E-184
   15.9243750000000         5.613421836425991E-184
   16.1381250000000         1.483853430444046E-183
   16.3518750000000         8.852163536922474E-184
   16.5656250000000        -2.236822849797105E-182
   16.7793750000000        -1.978119899071624E-181
   16.9931250000000        -1.150596038192963E-180
   17.2068750000000        -5.392899701083725E-180
   17.4206250000000        -2.125950449526569E-179
   17.6343750000000        -6.962899393769220E-179
   17.8481250000000        -1.731791798701683E-178
   18.0618750000000        -1.901405715004714E-178
   18.2756250000000         1.140681317382102E-177
   18.4893750000000         1.023891647071420E-176
   18.7031250000000         5.244098083320011E-176
   18.9168750000000         2.091537572695191E-175
   19.1306250000000         6.851736766497830E-175
   19.3443750000000         1.795474548184012E-174
   19.5581250000000         3.157829161487288E-174
   19.7718750000000        -8.174988315956929E-175
   19.9856250000000        -3.815317414133011E-173
   20.1993750000000        -2.097574112343306E-172
   20.4131250000000        -7.947463502988375E-172
   20.6268750000000        -2.318304577678381E-171
   20.8406250000000        -4.829032886105144E-171
   21.0543750000000        -3.040874265808329E-171
   21.2681250000000         3.406503706473830E-170
   21.4818750000000         2.306072595385701E-169
   21.6956250000000         9.847697059284484E-169
   21.9093750000000         3.340568021831658E-168
   22.1231250000000         9.376121314005756E-168
   22.3368750000000         2.101307135046938E-167
   22.5506250000000         3.030427032516680E-167
   22.7643750000000        -2.191463510274936E-167
   22.9781250000000        -3.827124033422046E-166
   23.1918750000000        -1.863990299209176E-165
   23.4056250000000        -6.707571519057560E-165
   23.6193750000000        -2.010732834965028E-164
   23.8331250000000        -5.145573911260378E-164
   24.0468750000000        -1.096738125091042E-163
   24.2606250000000        -1.721585947702987E-163
   24.4743750000000        -6.857878345677869E-164
   24.6881250000000         8.609608223996256E-163
   24.9018750000000         4.606464173217976E-162
   25.1156250000000         1.619677275105678E-161
   25.3293750000000         4.627626814611704E-161
   25.5431250000000         1.123354832955827E-160
   25.7568750000000         2.287915642422653E-160
   25.9706250000000         3.556681862957704E-160
   26.1843750000000         2.298438126171393E-160
   26.3981250000000        -1.080633947152627E-159
   26.6118750000000        -6.165469043861193E-159
   26.8256250000000        -2.107690336811520E-158
   27.0393750000000        -5.769350699192185E-158
   27.2531250000000        -1.341690144678417E-157
   27.4668750000000        -2.645853692361981E-157
   27.6806250000000        -4.139053290475111E-157
   27.8943750000000        -3.650519427667864E-157
   28.1081250000000         5.999184221038296E-157
   28.3218750000000         4.342248271492639E-156
   28.5356250000000         1.491791698470107E-155
   28.7493750000000         3.973867145641012E-155
   28.9631250000000         8.929113044717315E-155
   29.1768750000000         1.707647540276181E-154
   29.3906250000000         2.646132708817286E-154
   29.6043750000000         2.624977928883972E-154
   29.8181250000000        -1.677804562118950E-154
   30.0318750000000        -1.828335757716789E-153
   30.2456250000000        -6.346511702507085E-153
   30.4593750000000        -1.647728704249040E-152
   30.6731250000000        -3.576476431910293E-152
   30.8868750000000        -6.606720972493073E-152
   31.1006250000000        -9.984788060552889E-152
   31.3143750000000        -1.019040360716339E-151
   31.5281250000000         2.662091773785365E-152
   31.7418750000000         5.071878844775326E-151
   31.9556250000000         1.757602067853222E-150
   32.1693750000000         4.432732336227988E-150
   32.3831250000000         9.295916080422778E-150
   32.5968750000000         1.662213365182519E-149
   32.8106250000000         2.458998777318458E-149
   33.0243750000000         2.585503480920163E-149
   33.2381250000000         1.437194832949279E-150
   33.4518750000000        -8.826377342676469E-149
   33.6656250000000        -3.130737401498466E-148
   33.8793750000000        -7.752628156014804E-148
   34.0931250000000        -1.585464186458001E-147
   34.3068750000000        -2.776323389600198E-147
   34.5206250000000        -4.097005374805034E-147
   34.7343750000000        -4.616898988681662E-147
   34.9481250000000        -2.081724903419038E-147
   35.1618750000000         7.947706953903817E-147
   35.3756250000000         3.292335336296762E-146
   35.5893750000000         8.343397850242176E-146
   35.8031250000000         1.713032692688365E-145
   36.0168750000000         3.035179317725743E-145
   36.2306250000000         4.690666970807180E-145
   36.4443750000000         6.154044926359300E-145
   36.6581250000000         6.115885775631891E-145
   36.8718750000000         1.958304501032970E-145
   37.0856250000000        -1.095540061091564E-144
   37.2993750000000        -4.026634593192931E-144
   37.5131250000000        -9.811786904026777E-144
   37.7268750000000        -2.035842814310246E-143
   37.9406250000000        -3.862905279819602E-143
   38.1543750000000        -6.898417949171607E-143
   38.3681250000000        -1.167990549540185E-142
   38.5818750000000        -1.852134548107272E-142
   38.7956250000000        -2.639525084242527E-142
   39.0093750000000        -3.002983005771982E-142
   39.2231250000000        -1.362282094531867E-142
   39.4368750000000         6.074519215593433E-142
   39.6506250000000         2.708268888307862E-141
   39.8643750000000         7.540470478055953E-141
   40.0781250000000         1.712893271071739E-140
   40.2918750000000         3.363675118772635E-140
   40.5056250000000         5.743493275490112E-140
   40.7193750000000         8.233225682609177E-140
   40.9331250000000         8.607976301581108E-140
   41.1468750000000         1.460350112356841E-140
   41.3606250000000        -2.389775125282400E-139
   41.5743750000000        -8.521176828004263E-139
   41.7881250000000        -2.063361383767453E-138
   42.0018750000000        -4.084475462172162E-138
   42.2156250000000        -6.844752880298468E-138
   42.4293750000000        -9.439478391791784E-138
   42.6431250000000        -9.149651916589626E-138
   42.8568750000000        -3.000436508417318E-141
   43.0706250000000         2.881107145163372E-137
   43.2843750000000         9.358481648041486E-137
   43.4981250000000         2.132860516924270E-136
   43.7118750000000         3.986376656766448E-136
   43.9256250000000         6.258630439077777E-136
   44.1393750000000         7.862639017248011E-136
   44.3531250000000         6.053106888457911E-136
   44.5668750000000        -4.624016960419548E-136
   44.7806250000000        -3.323638375721284E-135
   44.9943750000000        -9.219659296387110E-135
   45.2081250000000        -1.937332258543256E-134
   45.4218750000000        -3.395745022785003E-134
   45.6356250000000        -4.988979644045293E-134
   45.8493750000000        -5.693404438600207E-134
   46.0631250000000        -3.191406509982007E-134
   46.2768750000000         6.805979142603439E-134
   46.4906250000000         3.100070693321645E-133
   46.7043750000000         7.793252669268662E-133
   46.9181250000000         1.549192977766596E-132
   47.1318750000000         2.601874953768648E-132
   47.3456250000000         3.671559931294961E-132
   47.5593750000000         3.980493361350376E-132
   47.7731250000000         1.866552591687642E-132
   47.9868750000000        -5.624649394667267E-132
   48.2006250000000        -2.295377923026079E-131
   48.4143750000000        -5.560780954343828E-131
   48.6281250000000        -1.080293622280031E-130
   48.8418750000000        -1.785918642337261E-130
   49.0556250000000        -2.499187235704525E-130
   49.2693750000000        -2.730850516898735E-130
   49.4831250000000        -1.458823539291120E-130
   49.6968750000000         3.103572194633621E-130
   49.9106250000000         1.362259054901058E-129
   50.1243750000000         3.336667524927056E-129
   50.3381250000000         6.505625622555417E-129
   50.5518750000000         1.081280664005885E-128
   50.7656250000000         1.535462696617533E-128
   50.9793750000000         1.754393532288504E-128
   51.1931250000000         1.196852696750652E-128
   51.4068750000000        -1.083022636730445E-128
   51.6206250000000        -6.501892258482345E-128
   51.8343750000000        -1.682551989040163E-127
   52.0481250000000        -3.363299247531883E-127
   52.2618750000000        -5.703575513238717E-127
   52.4756250000000        -8.325206533627672E-127
   52.6893750000000        -1.007031535071297E-126
   52.9031250000000        -8.466365797888838E-127
   53.1168750000000         8.591948107746265E-128
   53.3306250000000         2.454630904478559E-126
   53.5443750000000         7.110165355958459E-126
   53.7581250000000         1.487925338518541E-125
   53.9718750000000         2.604694180080268E-125
   54.1856250000000         3.936642144491408E-125
   54.3993750000000         5.045351741438564E-125
   54.6131250000000         4.955829289538911E-125
   54.8268750000000         1.904301783158054E-125
   55.0406250000000        -6.846175014318906E-125
   55.2543750000000        -2.492173093767745E-124
   55.4681250000000        -5.614272089271556E-124
   55.6818750000000        -1.027164714222852E-123
   55.8956250000000        -1.617024314964274E-123
   56.1093750000000        -2.191879895948484E-123
   56.3231250000000        -2.420381761369451E-123
   56.5368750000000        -1.681678681766123E-123
   56.7506250000000         1.016288161249419E-123
   56.9643750000000         7.038845865411024E-123
   57.1781250000000         1.793620076202188E-122
   57.3918750000000         3.490031913289214E-122
   57.6056250000000         5.766052752468835E-122
   57.8193750000000         8.261625165873902E-122
   58.0331250000000         1.001173843438037E-121
   58.2468750000000         9.110713625376846E-122
   58.4606250000000         2.394050581589030E-122
   58.6743750000000        -1.468263499465816E-121
   58.8881250000000        -4.764943745009973E-121
   59.1018750000000        -1.016303327322547E-120
   59.3156250000000        -1.783269964793269E-120
   59.5293750000000        -2.707209834343051E-120
   59.7431250000000        -3.550778815127643E-120
   59.9568750000000        -3.805773393456723E-120
   60.1706250000000        -2.584116859414212E-120
   60.3843750000000         1.452416898624259E-120
   60.5981250000000         1.004249946964633E-119
   60.8118750000000         2.502831218315045E-119
   61.0256250000000         4.763936871048924E-119
   61.2393750000000         7.716325339865535E-119
   61.4531250000000         1.088480259223854E-118
   61.6668750000000         1.310356142476319E-118
   61.8806250000000         1.218665931641431E-118
   62.0943750000000         4.649660582169645E-119
   62.3081250000000        -1.433320186002573E-118
   62.5218750000000        -5.043476966896737E-118
   62.7356250000000        -1.087170004532664E-117
   62.9493750000000        -1.906944592748111E-117
   63.1631250000000        -2.894334600030144E-117
   63.3768750000000        -3.824708146210317E-117
   63.5906250000000        -4.230099070062444E-117
   63.8043750000000        -3.311095515216320E-117
   64.0181250000000         1.143663421986770E-118
   64.2318750000000         7.561272962721305E-117
   64.4456250000000         2.063157145693809E-116
   64.6593750000000         4.044932120490919E-116
   64.8731250000000         6.664642945792330E-116
   65.0868750000000         9.580495340871602E-116
   65.3006250000000         1.193772778601722E-115
   65.5143750000000         1.213401251703439E-115
   65.7281250000000         7.622932429682668E-116
   65.9418750000000        -5.123544177318645E-116
   66.1556250000000        -3.030296662719199E-115
   66.3693750000000        -7.185977970526236E-115
   66.5831250000000        -1.316473384730558E-114
   66.7968750000000        -2.063974418124974E-114
   67.0106250000000        -2.833851724472758E-114
   67.2243750000000        -3.350606369307461E-114
   67.4381250000000        -3.136053936316672E-114
   67.6518750000000        -1.474153033347503E-114
   67.8656250000000         2.571093836012271E-114
   68.0793750000000         1.003543536337254E-113
   68.2931250000000         2.176966113278538E-113
   68.5068750000000         3.792500010092278E-113
   68.7206250000000         5.716097545452910E-113
   68.9343750000000         7.558136678053378E-113
   69.1481250000000         8.550913874256895E-113
   69.3618750000000         7.438209091384420E-113
   69.5756250000000         2.429136722345245E-113
   69.7893750000000        -8.702237866262218E-113
   70.0031250000000        -2.826078383930036E-112
   70.2168750000000        -5.788801243252786E-112
   70.4306250000000        -9.731185336195918E-112
   70.6443750000000        -1.425246125497659E-111
   70.8581250000000        -1.834608020392004E-111
   71.0718750000000        -2.014873066520456E-111
   71.2856250000000        -1.673820692624811E-111
   71.4993750000000        -4.095742049621047E-112
   71.7131250000000         2.259707334687957E-111
   71.9268750000000         6.810750780311814E-111
   72.1406250000000         1.355047867497174E-110
   72.3543750000000         2.235091297521678E-110
   72.5681250000000         3.227610435824227E-110
   72.7818750000000         4.112113582092916E-110
   72.9956250000000         4.492944940038514E-110
   73.2093750000000         3.762172281021912E-110
   73.4231250000000         1.095515634959618E-110
   73.6368750000000        -4.487310114395346E-110
   73.8506250000000        -1.395806308163264E-109
   74.0643750000000        -2.796754580649546E-109
   74.2781250000000        -4.634707903792399E-109
   74.4918750000000        -6.740710837983588E-109
   74.7056250000000        -8.706106478164117E-109
   74.9193750000000        -9.787841223484554E-109
   75.1331250000000        -8.828297376993001E-109
   75.3468750000000        -4.226146691503535E-109
   75.5606250000000         5.987634836260078E-109
   75.7743750000000         2.389644682155527E-108
   75.9881250000000         5.118152341088488E-108
   76.2018750000000         8.825423061988616E-108
   76.4156250000000         1.329700963453407E-107
   76.6293750000000         1.789162256793579E-107
   76.8431250000000         2.133790290686799E-107
   77.0568750000000         2.152911976866195E-107
   77.2706250000000         1.537429999366644E-107
   77.4843750000000        -1.197049167704671E-108
   77.6981250000000        -3.293262861110216E-107
   77.9118750000000        -8.446480633394178E-107
   78.1256250000000        -1.587983188363218E-106
   78.3393750000000        -2.548474034268508E-106
   78.5531250000000        -3.638627456005043E-106
   78.7668750000000        -4.647832171026703E-106
   78.9806250000000        -5.189272704173151E-106
   79.1943750000000        -4.650665109891478E-106
   79.4081250000000        -2.168405816029110E-106
   79.6218750000000         3.343392713478295E-106
   79.8356250000000         1.306421587748412E-105
   80.0493750000000         2.798250097544110E-105
   80.2631250000000         4.839468036039639E-105
   80.4768750000000         7.313999214440987E-105
   80.6906250000000         9.856425198656013E-105
   80.9043750000000         1.172899496714614E-104
   81.1181250000000         1.170108250148647E-104
   81.3318750000000         7.973365517850061E-105
   81.5456250000000        -1.784968100183082E-105
   81.7593750000000        -2.018958880584006E-104
   81.9731250000000        -4.956604543786653E-104
   82.1868750000000        -9.092355406917054E-104
   82.4006250000000        -1.423882682415981E-103
   82.6143750000000        -1.971019653197859E-103
   82.8281250000000        -2.407745902075389E-103
   83.0418750000000        -2.493688512113269E-103
   83.2556250000000        -1.877943124356780E-103
   83.4693750000000        -1.096475799783662E-104
   83.6831250000000         3.309616243786826E-103
   83.8968750000000         8.810477923295641E-103
   84.1106250000000         1.655771993094637E-102
   84.3243750000000         2.615870784218704E-102
   84.5381250000000         3.628796776663370E-102
   84.7518750000000         4.427299754362114E-102
   84.9656250000000         4.573847807969717E-102
   85.1793750000000         3.447253844171590E-102
   85.3931250000000         2.750809801437846E-103
   85.6068750000000        -5.758647365964411E-102
   85.8206250000000        -1.529917033825555E-101
   86.0343750000000        -2.847548794670308E-101
   86.2481250000000        -4.441888201187615E-101
   86.4618750000000        -6.067883019669365E-101
   86.6756250000000        -7.262932536146038E-101
   86.8893750000000        -7.303909204317955E-101
   87.1031250000000        -5.207280955770221E-101
   87.3168750000000         1.920819767556519E-102
   87.5306250000000         1.004255974795283E-100
   87.7443750000000         2.511988222577975E-100
   87.9581250000000         4.529227393878291E-100
   88.1718750000000         6.882159726263398E-100
   88.3856250000000         9.157627492207300E-100
   88.5993750000000         1.063181704189945E-099
   88.8131250000000         1.023318683273086E-099
   89.0268750000000         6.577487666305972E-100
   89.2406250000000        -1.878839143384860E-100
   89.4543750000000        -1.651920361773677E-099
   89.6681250000000        -3.804510221590099E-099
   89.8818750000000        -6.574649306252917E-099
   90.0956250000000        -9.661436066079841E-099
   90.3093750000000        -1.244286775895477E-098
   90.5231250000000        -1.390623315037740E-098
   90.7368750000000        -1.263603449377190E-098
   90.9506250000000        -6.905838315618033E-099
   91.1643750000000         5.074497560196772E-099
   91.3781250000000         2.471052589529840E-098
   91.5918750000000         5.235090744078681E-098
   91.8056250000000         8.641380665019330E-098
   92.0193750000000         1.224068221304345E-097
   92.2331250000000         1.520326948202947E-097
   92.4468750000000         1.626865835545767E-097
   92.6606250000000         1.377603734067222E-097
   92.8743750000000         5.824241735432955E-098
   93.0881250000000        -9.390817897023256E-098
   93.3018750000000        -3.302793244599065E-097
   93.5156250000000        -6.484183878602600E-097
   93.7293750000000        -1.022706981660333E-096
   93.9431250000000        -1.395062419407358E-096
   94.1568750000000        -1.667800301466925E-096
   94.3706250000000        -1.701992625546463E-096
   94.5843750000000        -1.325438995240043E-096
   94.7981250000000        -3.545843096946612E-097
   95.0118750000000         1.366063466018233E-096
   95.2256250000000         3.905678713593052E-096
   95.4393750000000         7.172689509525257E-096
   95.6531250000000         1.083271633893747E-095
   95.8668750000000         1.423484175553012E-095
   96.0806250000000         1.637018897376744E-095
   96.2943750000000         1.589369350338500E-095
   96.5081250000000         1.124328206033421E-095
   96.7218750000000         8.873666530009793E-097
   96.9356250000000        -1.628159627222513E-095
   97.1493750000000        -4.041536632476023E-095
   97.3631250000000        -7.008699039122675E-095
   97.5768750000000        -1.016743860194371E-094
   97.7906250000000        -1.289045069022020E-094
   98.0043750000000        -1.427633018953647E-094
   98.2181250000000        -1.320066996926205E-094
   98.4318750000000        -8.449705575788527E-095
   98.6456250000000         1.048270325108230E-095
   98.8593750000000         1.589352742150676E-094
   99.0731250000000         3.581080838865714E-094
   99.2868750000000         5.922448911771636E-094
   99.5006250000000         8.290121860221744E-094
   99.7143750000000         1.017795039250285E-093
   99.9281250000000         1.091244774181045E-093
   100.141875000000         9.714106863011303E-094
   100.355625000000         5.813873967166893E-094
   100.569375000000        -1.374235098639735E-094
   100.783125000000        -1.203616464735891E-093
   100.996875000000        -2.572452469122877E-093
   101.210625000000        -4.115429133663579E-093
   101.424375000000        -5.608719710548616E-093
   101.638125000000        -6.737072453753643E-093
   101.851875000000        -7.118993450635847E-093
   102.065625000000        -6.356391126804488E-093
   102.279375000000        -4.107130253458089E-093
   102.493125000000        -1.724151673244013E-094
   102.706875000000         5.416422926548115E-093
   102.920625000000         1.233354412668466E-092
   103.134375000000         1.994136458026553E-092
   103.348125000000         2.734183308329673E-092
   103.561875000000         3.350537264608634E-092
   103.775625000000         3.746440752653914E-092
   103.989375000000         3.852754958452201E-092
   104.203125000000         3.643628177223470E-092
   104.416875000000         3.135820738002728E-092
   104.630625000000         2.360399019798343E-092
   104.844375000000         1.298619959503157E-092
   105.058125000000        -2.176230769909672E-093
   105.271875000000        -2.625469655689577E-092
   105.485625000000        -6.734692030493975E-092
   105.699375000000        -1.375507967002120E-091
   105.913125000000        -2.516625190154923E-091
   106.126875000000        -4.233924763401075E-091
   106.340625000000        -6.583379568416502E-091
   106.554375000000        -9.434649519721185E-091
   106.768125000000        -1.233838572662622E-090
   106.981875000000        -1.438837637088722E-090
   107.195625000000        -1.411997413662230E-090
   107.409375000000        -9.506558239652848E-091
   107.623125000000         1.867964648123312E-091
   107.836875000000         2.237819434733811E-090
   108.050625000000         5.360244812211204E-090
   108.264375000000         9.522738907516063E-090
   108.478125000000         1.436832319100411E-089
   108.691875000000         1.907097465850259E-089
   108.905625000000         2.222148451778634E-089
   109.119375000000         2.179580217524578E-089
   109.333125000000         1.527285328074732E-089
   109.546875000000        -2.673599919994475E-092
   109.760625000000        -2.632188080048469E-089
   109.974375000000        -6.444986854085129E-089
   110.188125000000        -1.126876440442273E-088
   110.401875000000        -1.654598428443547E-088
   110.615625000000        -2.122036012819365E-088
   110.829375000000        -2.367955226098008E-088
   111.043125000000        -2.180612751643106E-088
   111.256875000000        -1.319397377542348E-088
   111.470625000000         4.419254731152188E-089
   111.684375000000         3.247714411628090E-088
   111.898125000000         7.070663021418422E-088
   112.111875000000         1.160869411715040E-087
   112.325625000000         1.618658085370418E-087
   112.539375000000         1.969040724218588E-087
   112.753125000000         2.057207547143105E-087
   112.966875000000         1.696626194294005E-087
   113.180625000000         6.959811452771745E-088
   113.394375000000        -1.096047190531529E-087
   113.608125000000        -3.728480673659553E-087
   113.821875000000        -7.073133104158798E-087
   114.035625000000        -1.074814133197477E-086
   114.249375000000        -1.405804242730557E-086
   114.463125000000        -1.597525688254128E-086
   114.676875000000        -1.519242965957863E-086
   114.890625000000        -1.027508491677245E-086
   115.104375000000         6.324238081650839E-089
   115.318125000000         1.655831109231656E-086
   115.531875000000         3.888820870789155E-086
   115.745625000000         6.512471460376718E-086
   115.959375000000         9.125252987676418E-086
   116.173125000000         1.109134242681668E-085
   116.386875000000         1.155691579077205E-085
   116.600625000000         9.528798443096159E-086
   116.814375000000         4.032707959093309E-086
   117.028125000000        -5.640969118375562E-086
   117.241875000000        -1.961248010204506E-085
   117.455625000000        -3.704167152764108E-085
   117.669375000000        -5.577303876658351E-085
   117.883125000000        -7.209116098665119E-085
   118.096875000000        -8.070826648512248E-085
   118.310625000000        -7.511962341101472E-085
   118.524375000000        -4.845198312888264E-085
   118.738125000000         5.115813861324000E-086
   118.951875000000         8.837177565835639E-085
   119.165625000000         1.986799816109251E-084
   119.379375000000         3.255121950818918E-084
   119.593125000000         4.484385693995102E-084
   119.806875000000         5.363069103492011E-084
   120.020625000000         5.484692863974827E-084
   120.234375000000         4.389155626231971E-084
   120.448125000000         1.639748262513082E-084
   120.661875000000        -3.062156146867207E-084
   120.875625000000        -9.730349494855258E-084
   121.089375000000        -1.793107274822417E-083
   121.303125000000        -2.663295533086433E-083
   121.516875000000        -3.411101204889009E-083
   121.730625000000        -3.795637248225031E-083
   121.944375000000        -3.524748662170433E-083
   122.158125000000        -2.293215858354373E-083
   122.371875000000         1.551249201253447E-084
   122.585625000000         3.942379111177437E-083
   122.799375000000         8.955452704336140E-083
   123.013125000000         1.474275942509012E-082
   123.226875000000         2.043073437465692E-082
   123.440625000000         2.468941807054962E-082
   123.654375000000         2.578104197170953E-082
   123.868125000000         2.172515835198619E-082