  -1.60312500000000         0.000000000000000E+000
  -1.38937500000000         0.000000000000000E+000
  -1.17562500000000         0.000000000000000E+000
 -0.961875000000000         0.000000000000000E+000
 -0.748125000000000         0.000000000000000E+000
 -0.534375000000000         0.000000000000000E+000
 -0.320625000000000         0.000000000000000E+000
 -0.106875000000000         0.000000000000000E+000
  0.106875000000000         0.000000000000000E+000
  0.320625000000000         0.000000000000000E+000
  0.534375000000000         0.000000000000000E+000
  0.748125000000000         0.000000000000000E+000
  0.961875000000000         0.000000000000000E+000
   1.17562500000000         0.000000000000000E+000
   1.38937500000000         0.000000000000000E+000
   1.60312500000000         0.000000000000000E+000
   1.81687500000000         0.000000000000000E+000
   2.03062500000000         0.000000000000000E+000
   2.24437500000000         0.000000000000000E+000
   2.45812500000000         0.000000000000000E+000
   2.67187500000000         0.000000000000000E+000
   2.88562500000000         0.000000000000000E+000
   3.09937500000000         0.000000000000000E+000
   3.31312500000000         0.000000000000000E+000
   3.52687500000000         0.000000000000000E+000
   3.74062500000000         0.000000000000000E+000
   3.95437500000000         0.000000000000000E+000
   4.16812500000000         0.000000000000000E+000
   4.38187500000000         0.000000000000000E+000
   4.59562500000000         0.000000000000000E+000
   4.80937500000000         0.000000000000000E+000
   5.02312500000000         0.000000000000000E+000
   5.23687500000000         0.000000000000000E+000
   5.45062500000000         0.000000000000000E+000
   5.66437500000000         0.000000000000000E+000
   5.87812500000000         0.000000000000000E+000
   6.09187500000000         0.000000000000000E+000
   6.30562500000000         0.000000000000000E+000
   6.51937500000000         0.000000000000000E+000
   6.73312500000000         0.000000000000000E+000
   6.94687500000000         0.000000000000000E+000
   7.16062500000000         0.000000000000000E+000
   7.37437500000000         0.000000000000000E+000
   7.58812500000000         0.000000000000000E+000
   7.80187500000000         0.000000000000000E+000
   8.01562500000000         0.000000000000000E+000
   8.22937500000000         0.000000000000000E+000
   8.44312500000000         0.000000000000000E+000
   8.65687500000000         0.000000000000000E+000
   8.87062500000000         0.000000000000000E+000
   9.08437500000000         0.000000000000000E+000
   9.29812500000000         0.000000000000000E+000
   9.51187500000000         0.000000000000000E+000
   9.72562500000000         0.000000000000000E+000
   9.93937500000000         0.000000000000000E+000
   10.1531250000000         0.000000000000000E+000
   10.3668750000000        -1.511731196286117E-231
   10.5806250000000         7.317194137828230E-226
   10.7943750000000        -3.019714617909498E-224
   11.0081250000000         5.412719945090586E-220
   11.2218750000000         1.182778724882779E-217
   11.4356250000000         8.971659622738352E-216
   11.6493750000000         3.324342944371066E-214
   11.8631250000000         6.720446274959072E-213
   12.0768750000000         5.251012582597384E-212
   12.2906250000000        -1.206898979922878E-210
   12.5043750000000        -5.423704157927131E-209
   12.7181250000000        -1.184522351195126E-207
   12.9318750000000        -1.871971546593891E-206
   13.1456250000000        -2.364095994592475E-205
   13.3593750000000        -2.487808073824454E-204
   13.5731250000000        -2.222481694705550E-203
   13.7868750000000        -1.688405438205520E-202
   14.0006250000000        -1.067134415056825E-201
   14.2143750000000        -5.162283773671266E-201
   14.4281250000000        -1.224084126196770E-200
   14.6418750000000         1.002943621310269E-199
   14.8556250000000         1.854584665164846E-198
   15.0693750000000         1.840791649075083E-197
   15.2831250000000         1.426672852093271E-196
   15.4968750000000         9.314929485602528E-196
   15.7106250000000         5.201284073866241E-195
   15.9243750000000         2.427991513129665E-194
   16.1381250000000         8.589445583345070E-194
   16.3518750000000         1.267505209558874E-193
   16.5656250000000        -1.279003586642796E-192
   16.7793750000000        -1.612705856999390E-191
   16.9931250000000        -1.199213241647586E-190
   17.2068750000000        -7.073440098912869E-190
   17.4206250000000        -3.529498026758203E-189
   17.6343750000000        -1.503285326694912E-188
   17.8481250000000        -5.286674543215593E-188
   18.0618750000000        -1.334203894019750E-187
   18.2756250000000        -5.104092351946802E-188
   18.4893750000000         2.115392613083841E-186
   18.7031250000000         1.758255879363383E-185
   18.9168750000000         9.880704725211361E-185
   19.1306250000000         4.531571087180088E-184
   19.3443750000000         1.772314652680942E-183
   19.5581250000000         5.887054140509914E-183
   19.7718750000000         1.565111068226814E-182
   19.9856250000000         2.528688182066443E-182
   20.1993750000000        -4.223514255620329E-182
   20.4131250000000        -6.220203051756335E-181
   20.6268750000000        -3.582518633152835E-180
   20.8406250000000        -1.561564187552390E-179
   21.0543750000000        -5.693446309055183E-179
   21.2681250000000        -1.765617196300445E-178
   21.4818750000000        -4.494814086767587E-178
   21.6956250000000        -7.947175485697650E-178
   21.9093750000000         7.856042527851006E-179
   22.1231250000000         9.012984118892490E-177
   22.3368750000000         5.314855060164531E-176
   22.5506250000000         2.224919812249150E-175
   22.7643750000000         7.721779310030506E-175
   22.9781250000000         2.304408913608272E-174
   23.1918750000000         5.862549458717769E-174
   23.4056250000000         1.187438197155552E-173
   23.6193750000000         1.371774386176236E-173
   23.8331250000000        -2.756986175106393E-173
   24.0468750000000        -2.636433635889102E-172
   24.2606250000000        -1.175055343939885E-171
   24.4743750000000        -4.057930905952513E-171
   24.6881250000000        -1.185684459868874E-170
   24.9018750000000        -2.974540166538065E-170
   25.1156250000000        -6.199325681970746E-170
   25.3293750000000        -9.252109239631195E-170
   25.5431250000000        -1.230571562035945E-170
   25.7568750000000         5.972128502546995E-169
   25.9706250000000         3.011025983135722E-168
   26.1843750000000         1.052323549135115E-167
   26.3981250000000         3.037298282888267E-167
   26.6118750000000         7.535559820046577E-167
   26.8256250000000         1.593794365405184E-166
   27.0393750000000         2.677342749748275E-166
   27.2531250000000         2.503545286668309E-166
   27.4668750000000        -4.788170365569462E-166
   27.6806250000000        -3.654113763279885E-165
   27.8943750000000        -1.357528987013503E-164
   28.1081250000000        -3.930087607195608E-164
   28.3218750000000        -9.635645709275599E-164
   28.5356250000000        -2.022897974206150E-163
   28.7493750000000        -3.489908322550382E-163
   28.9631250000000        -4.100573230921998E-163
   29.1768750000000         1.021661205168119E-163
   29.3906250000000         2.571076322313458E-162
   29.6043750000000         1.025626797655629E-161
   29.8181250000000         2.966114113451990E-161
   30.0318750000000         7.132233131434634E-161
   30.2456250000000         1.464804408819576E-160
   30.4593750000000         2.501830237649388E-160
   30.6731250000000         3.100788282123287E-160
   30.8868750000000         6.297580728928818E-161
   31.1006250000000        -1.194912326234400E-159
   31.3143750000000        -5.024986182900926E-159
   31.5281250000000        -1.435298001063003E-158
   31.7418750000000        -3.359904552915056E-158
   31.9556250000000        -6.701135591986620E-158
   32.1693750000000        -1.118558087160959E-157
   32.3831250000000        -1.399034332017207E-157
   32.5968750000000        -5.666283817697248E-158
   32.8106250000000         3.739722343416294E-157
   33.0243750000000         1.642784965983378E-156
   33.2381250000000         4.609322232755074E-156
   33.4518750000000         1.047381196182286E-155
   33.6656250000000         2.023715286117396E-155
   33.8793750000000         3.287957547659925E-155
   34.0931250000000         4.092595520844988E-155
   34.3068750000000         2.156412007880424E-155
   34.5206250000000        -7.823175492402561E-155
   34.7343750000000        -3.613721728062226E-154
   34.9481250000000        -9.955800012681354E-154
   35.1618750000000        -2.195375050776039E-153
   35.3756250000000        -4.108724819718492E-153
   35.5893750000000        -6.494802505557343E-153
   35.8031250000000        -8.023388460971475E-153
   36.0168750000000        -5.010056343959984E-153
   36.2306250000000         1.047244953904402E-152
   36.4443750000000         5.270746976753995E-152
   36.6581250000000         1.432010950056918E-151
   36.8718750000000         3.068452525227595E-151
   37.0856250000000         5.569325917872691E-151
   37.2993750000000         8.592091186441692E-151
   37.5131250000000         1.063545282883695E-150
   37.7268750000000         7.966413635584996E-151
   37.9406250000000        -6.717260262064813E-151
   38.1543750000000        -4.533245655020499E-150
   38.3681250000000        -1.238688675842873E-149
   38.5818750000000        -2.580077579655800E-149
   38.7956250000000        -4.519269813116126E-149
   39.0093750000000        -6.779124813456154E-149
   39.2231250000000        -8.481718662923713E-149
   39.4368750000000        -7.894900320859115E-149
   39.6506250000000        -2.471968084751100E-149
   39.8643750000000         1.036589647722693E-148
   40.0781250000000         3.120398675322902E-148
   40.2918750000000         5.533316770170331E-148
   40.5056250000000         6.984103951339344E-148
   40.7193750000000         5.673648657883679E-148
   40.9331250000000         1.507450513444867E-148
   41.1468750000000         2.587288855877436E-148
   41.3606250000000         3.949951817333689E-147
   41.5743750000000         1.911087815321032E-146
   41.7881250000000         6.224616037598524E-146
   42.0018750000000         1.624441662033615E-145
   42.2156250000000         3.618290308424248E-145
   42.4293750000000         7.034688959075406E-145
   42.6431250000000         1.188309158042871E-144
   42.8568750000000         1.668194048589943E-144
   43.0706250000000         1.623249539577419E-144
   43.2843750000000        -2.449593225788264E-145
   43.4981250000000        -6.669150863103137E-144
   43.7118750000000        -2.271581624532153E-143
   43.9256250000000        -5.669393311542198E-143
   44.1393750000000        -1.202745195609179E-142
   44.3531250000000        -2.258359436307209E-142
   44.5668750000000        -3.768380330266032E-142
   44.7806250000000        -5.433922017937696E-142
   44.9943750000000        -6.101516463788096E-142
   45.2081250000000        -2.786454638396365E-142
   45.4218750000000         1.093814352131964E-141
   45.6356250000000         4.719426198456282E-141
   45.8493750000000         1.261154198932110E-140
   46.0631250000000         2.762238258361503E-140
   46.2768750000000         5.279904651726413E-140
   46.4906250000000         8.907132808858942E-140
   46.7043750000000         1.295543236700382E-139
   46.9181250000000         1.479314030287443E-139
   47.1318750000000         7.802208939120863E-140
   47.3456250000000        -2.169445613566244E-139
   47.5593750000000        -9.810362302083101E-139
   47.7731250000000        -2.589483823073639E-138
   47.9868750000000        -5.511703177113542E-138
   48.2006250000000        -1.011565035904211E-137
   48.4143750000000        -1.614430572224164E-137
   48.6281250000000        -2.161706911257148E-137
   48.8418750000000        -2.087447149937913E-137
   49.0556250000000        -1.608678682334005E-138
   49.2693750000000         5.878115814807809E-137
   49.4831250000000         1.959636611512486E-136
   49.6968750000000         4.566864856928904E-136
   49.9106250000000         8.842598551887192E-136
   50.1243750000000         1.478417752625814E-135
   50.3381250000000         2.110948481275258E-135
   50.5518750000000         2.376564012158200E-135
   50.7656250000000         1.368196796916470E-135
   50.9793750000000        -2.598534752616301E-135
   51.1931250000000        -1.220445457343455E-134
   51.4068750000000        -3.102761065563717E-134
   51.6206250000000        -6.261796875224036E-134
   51.8343750000000        -1.079131854453711E-133
   52.0481250000000        -1.598457355581602E-133
   52.2618750000000        -1.939161282448022E-133
   52.4756250000000        -1.541413349939482E-133
   52.6893750000000         6.408167243485540E-134
   52.9031250000000         6.279176008826443E-133
   53.1168750000000         1.762965950521634E-132
   53.3306250000000         3.702963873335692E-132
   53.5443750000000         6.548315489410890E-132
   53.7581250000000         9.972788002664253E-132
   53.9718750000000         1.271544604559361E-131
   54.1856250000000         1.182928865537776E-131
   54.3993750000000         1.766633754910554E-132
   54.6131250000000        -2.638501365748915E-131
   54.8268750000000        -8.479024800136940E-131
   55.0406250000000        -1.865302197867510E-130
   55.2543750000000        -3.389267145551177E-130
   55.4681250000000        -5.297183257295701E-130
   55.6818750000000        -7.032187111991518E-130
   55.8956250000000        -7.251612913262291E-130
   56.1093750000000        -3.397232008312723E-130
   56.3231250000000         8.677043768026178E-130
   56.5368750000000         3.470978785011094E-129
   56.7506250000000         8.110122011096780E-129
   56.9643750000000         1.521636258485002E-128
   57.1781250000000         2.443923556576964E-128
   57.3918750000000         3.365734884206342E-128
   57.6056250000000         3.751641382304376E-128
   57.8193750000000         2.562380630929227E-128
   58.0331250000000        -1.908562754895232E-128
   58.2468750000000        -1.206381234259791E-127
   58.4606250000000        -3.068264826943153E-127
   58.6743750000000        -5.992255455946335E-127
   58.8881250000000        -9.920829327831672E-127
   59.1018750000000        -1.415628344185254E-126
   59.3156250000000        -1.681477333775768E-126
   59.5293750000000        -1.414215191624472E-126
   59.7431250000000         1.351943940770994E-128
   59.9568750000000         3.502634191196233E-126
   60.1706250000000         1.013339812563529E-125
   60.3843750000000         2.084344683866507E-125
   60.5981250000000         3.573079339567189E-125
   60.8118750000000         5.282828344559549E-125
   61.0256250000000         6.626075981559236E-125
   61.2393750000000         6.389499747419871E-125
   61.4531250000000         2.500326802052548E-125
   61.6668750000000        -8.084205093646158E-125
   61.8806250000000        -2.914166840331882E-124
   62.0943750000000        -6.425849079795367E-124
   62.3081250000000        -1.147572952585126E-123
   62.5218750000000        -1.759929564864094E-123
   62.7356250000000        -2.317079549667805E-123
   62.9493750000000        -2.466946106110403E-123
   63.1631250000000        -1.591698912433664E-123
   63.3768750000000         1.237664117173329E-123
   63.5906250000000         7.213719319283007E-123
   63.8043750000000         1.755508856952179E-122
   64.0181250000000         3.294988448958363E-122
   64.2318750000000         5.254005993565820E-122
   64.4456250000000         7.234865761627467E-122
   64.6593750000000         8.319330685843412E-122
   64.8731250000000         6.842654354876844E-122
   65.0868750000000         2.349706794754342E-123
   65.3006250000000        -1.491172122243463E-121
   65.5143750000000        -4.230234235213060E-121
   65.7281250000000        -8.458871601129039E-121
   65.9418750000000        -1.408396179589021E-120
   66.1556250000000        -2.025488517844010E-120
   66.3693750000000        -2.482242021159758E-120
   66.5831250000000        -2.372951789943167E-120
   66.7968750000000        -1.052692508401515E-120
   67.0106250000000         2.361922484512588E-120
   67.2243750000000         8.884460715086434E-120
   67.4381250000000         1.936340593266959E-119
   67.6518750000000         3.390966130177779E-119
   67.8656250000000         5.097286686268606E-119
   68.0793750000000         6.606005267560882E-119
   68.2931250000000         7.023820071981341E-119
   68.5068750000000         4.881890649535576E-119
   68.7206250000000        -1.899850163698701E-119
   68.9343750000000        -1.582736738879787E-118
   69.1481250000000        -3.925304698422897E-118
   69.3618750000000        -7.320037562148324E-118
   69.5756250000000        -1.154155296271913E-117
   69.7893750000000        -1.575945647909692E-117
   70.0031250000000        -1.820217194574357E-117
   70.2168750000000        -1.583596075880972E-117
   70.4306250000000        -4.208584371150065E-118
   70.6443750000000         2.229664127868928E-117
   70.8581250000000         6.945012488445952E-117
   71.0718750000000         1.409938298175038E-116
   71.2856250000000         2.348982868222347E-116
   71.4993750000000         3.378785140176428E-116
   71.7131250000000         4.184923284135031E-116
   71.9268750000000         4.200532754771811E-116
   72.1406250000000         2.559695345127168E-116
   72.3543750000000        -1.880818549365062E-116
   72.5681250000000        -1.038787683658293E-115
   72.7818750000000        -2.398784223308404E-115
   72.9956250000000        -4.281341690900183E-115
   73.2093750000000        -6.511319168533913E-115
   73.4231250000000        -8.595534020110275E-115
   73.6368750000000        -9.580581218737019E-115
   73.8506250000000        -7.939278338578108E-115
   74.0643750000000        -1.557852396413070E-115
   74.2781250000000         1.206908828616259E-114
   74.4918750000000         3.529890063680947E-114
   74.7056250000000         6.931097136934093E-114
   74.9193750000000         1.124773356156723E-113
   75.1331250000000         1.581370400808687E-113
   75.3468750000000         1.919986066105179E-113
   75.5606250000000         1.897500676496447E-113
   75.7743750000000         1.159460828510739E-113
   75.9881250000000        -7.417980186635578E-114
   76.2018750000000        -4.277845178731475E-113
   76.4156250000000        -9.798864246030907E-113
   76.6293750000000        -1.729074497194434E-112
   76.8431250000000        -2.602668608169126E-112
   77.0568750000000        -3.413490411860892E-112
   77.2706250000000        -3.815361266975746E-112
   77.4843750000000        -3.271563809377674E-112
   77.6981250000000        -1.059340697999649E-112
   77.9118750000000         3.657378561894498E-112
   78.1256250000000         1.164826580487338E-111
   78.3393750000000         2.329165335753120E-111
   78.5531250000000         3.807993767435373E-111
   78.7668750000000         5.396539284437018E-111
   78.9806250000000         6.661872586920516E-111
   79.1943750000000         6.876702450831793E-111
   79.4081250000000         4.990172583849685E-111
   79.6218750000000        -3.213215961657233E-112
   79.8356250000000        -1.046790294785139E-110
   80.0493750000000        -2.656373402244003E-110
   80.2631250000000        -4.879672318978978E-110
   80.4768750000000        -7.553265300263555E-110
   80.6906250000000        -1.022048557467152E-109
   80.9043750000000        -1.201531463981722E-109
   81.1181250000000        -1.157344125808856E-109
   81.3318750000000        -7.022231484076672E-110
   81.5456250000000         3.878410077267484E-110
   81.7593750000000         2.335691461320644E-109
   81.9731250000000         5.292351078721032E-109
   82.1868750000000         9.227098537811555E-109
   82.4006250000000         1.377813240011423E-108
   82.6143750000000         1.807551354296749E-108
   82.8281250000000         2.056638817364025E-108
   83.0418750000000         1.889727246678813E-108
   83.2556250000000         9.937512132813227E-109
   83.4693750000000        -9.942902790349633E-109
   83.6831250000000        -4.420790477762458E-108
   83.8968750000000        -9.497125489813728E-108
   84.1106250000000        -1.612051643947314E-107
   84.3243750000000        -2.363567615263512E-107
   84.5381250000000        -3.055736716457845E-107
   84.7518750000000        -3.430234301364322E-107
   84.9656250000000        -3.101717391990174E-107
   85.1793750000000        -1.563332081027793E-107
   85.3931250000000         1.767465735280124E-107
   85.6068750000000         7.442077263812556E-107
   85.8206250000000         1.579246682701119E-106
   86.0343750000000         2.664732450671584E-106
   86.2481250000000         3.895440672184031E-106
   86.4618750000000         5.033943428629597E-106
   86.6756250000000         5.667604627465155E-106
   86.8893750000000         5.180123431404667E-106
   87.1031250000000         2.758246419583971E-106
   87.3168750000000        -2.538446420445199E-106
   87.5306250000000        -1.161142327391984E-105
   87.7443750000000        -2.502729040336217E-105
   87.9581250000000        -4.256806164543208E-105
   88.1718750000000        -6.262813198308593E-105
   88.3856250000000        -8.150389819213729E-105
   88.5993750000000        -9.269274067652339E-105
   88.8131250000000        -8.641499103225972E-105
   89.0268750000000        -4.968918708565987E-105
   89.2406250000000         3.259046593919626E-105
   89.4543750000000         1.750387704971845E-104
   89.6681250000000         3.870892162371848E-104
   89.8818750000000         6.658489482141992E-104
   90.0956250000000         9.865244898015546E-104
   90.3093750000000         1.291186742498732E-103
   90.5231250000000         1.477789550683419E-103
   90.7368750000000         1.392902625169482E-103
   90.9506250000000         8.334415361423178E-104
   91.1643750000000        -4.355407314762447E-104
   91.3781250000000        -2.638765446552561E-103
   91.5918750000000        -5.916416257747805E-103
   91.8056250000000        -1.021261557658685E-102
   92.0193750000000        -1.512859013943781E-102
   92.2331250000000        -1.975449579845537E-102
   92.4468750000000        -2.251180901017100E-102
   92.6606250000000        -2.106148623557511E-102
   92.8743750000000        -1.235919185677430E-102
   93.0881250000000         7.037697769398011E-103
   93.3018750000000         4.029509553742695E-102
   93.5156250000000         8.915653953780625E-102
   93.7293750000000         1.522791833015339E-101
   93.9431250000000         2.231174842226943E-101
   94.1568750000000         2.876068424220062E-101
   94.3706250000000         3.221613795614754E-101
   94.5843750000000         2.928210693453455E-101
   94.7981250000000         1.567160978944989E-101
   95.0118750000000        -1.327279640102769E-101
   95.2256250000000        -6.153779302914539E-101
   95.4393750000000        -1.307658550143147E-100
   95.6531250000000        -2.179332586746513E-100
   95.8668750000000        -3.125378015050326E-100
   96.0806250000000        -3.937196361696430E-100
   96.2943750000000        -4.280877644189823E-100
   96.5081250000000        -3.694218395370079E-100
   96.7218750000000        -1.617863074341372E-100
   96.9356250000000         2.521970498184041E-100
   97.1493750000000         9.163025632840769E-100
   97.3631250000000         1.837955669645985E-099
   97.5768750000000         2.958344672493462E-099
   97.7906250000000         4.118386678647365E-099
   98.0043750000000         5.026979744723884E-099
   98.2181250000000         5.242170149575976E-099
   98.4318750000000         4.180204659068793E-099
   98.6456250000000         1.170804839228415E-099
   98.8593750000000        -4.422275321122285E-099
   99.0731250000000        -1.300041987650331E-098
   99.2868750000000        -2.444531636803754E-098
   99.5006250000000        -3.776693776183930E-098
   99.7143750000000        -5.073207347158658E-098
   99.9281250000000        -5.956134610325618E-098
   100.141875000000        -5.882773198463776E-098
   100.355625000000        -4.173061728758251E-098
   100.569375000000        -9.421371259966571E-100
   100.783125000000         6.979237895921438E-098
   100.996875000000         1.731933339007994E-097
   101.210625000000         3.051765971751932E-097
   101.424375000000         4.510814587972804E-097
   101.638125000000         5.820576206111180E-097
   101.851875000000         6.526953209310876E-097
   102.065625000000         6.014100721157278E-097
   102.279375000000         3.554123647344734E-097
   102.493125000000        -1.578582366834184E-097
   102.706875000000        -9.913757699763640E-097
   102.920625000000        -2.150889681979235E-096
   103.134375000000        -3.560602755889383E-096
   103.348125000000        -5.026632572820992E-096
   103.561875000000        -6.206370343515239E-096
   103.775625000000        -6.595832118751075E-096
   103.989375000000        -5.550585144308927E-096
   104.203125000000        -2.357571900781611E-096
   104.416875000000         3.626487188521521E-096
   104.630625000000         1.276128659115654E-095
   104.844375000000         2.483864669374441E-095
   105.058125000000         3.875429084783457E-095
   105.271875000000         5.219130801304727E-095
   105.485625000000         6.140477906979056E-095
   105.699375000000         6.123003628406369E-095
   105.913125000000         4.546002382627518E-095
   106.126875000000         7.737753116506420E-096
   106.340625000000        -5.692686427349201E-095
   106.554375000000        -1.499951690587806E-094
   106.768125000000        -2.667236220101416E-094
   106.981875000000        -3.933197898582998E-094
   107.195625000000        -5.045429221761650E-094
   107.409375000000        -5.626423621975677E-094
   107.623125000000        -5.187603372633300E-094
   107.836875000000        -3.180220263345553E-094
   108.050625000000         9.061598130793662E-095
   108.264375000000         7.392058432028777E-094
   108.478125000000         1.620768275167371E-093
   108.691875000000         2.666297049773841E-093
   108.905625000000         3.722680000865547E-093
   109.119375000000         4.537601191254291E-093
   109.333125000000         4.759531123472989E-093
   109.546875000000         3.962199635516031E-093
   109.760625000000         1.702692748919556E-093
   109.974375000000        -2.380364105148510E-093
   110.188125000000        -8.427998795509343E-093
   110.401875000000        -1.619060696469901E-092
   110.615625000000        -2.484866742019682E-092
   110.829375000000        -3.286284106681909E-092
   111.043125000000        -3.790794215980018E-092
   111.256875000000        -3.695773692710841E-092
   111.470625000000        -2.659109977557286E-092
   111.684375000000        -3.578536210813737E-093
   111.898125000000         3.422473428654076E-092
   112.111875000000         8.671171698815332E-092
   112.325625000000         1.502009947842151E-091
   112.539375000000         2.161848457427149E-091
   112.753125000000         2.704914123980729E-091
   112.966875000000         2.933070368705897E-091
   113.180625000000         2.605604137597724E-091
   113.394375000000         1.471373785748426E-091
   113.608125000000        -6.776965914146515E-092
   113.821875000000        -3.932074241330531E-091
   114.035625000000        -8.174528511490118E-091
   114.249375000000        -1.298689726413077E-090
   114.463125000000        -1.757402871638984E-090
   114.676875000000        -2.073284408289692E-090
   114.890625000000        -2.089981008525164E-090
   115.104375000000        -1.631059345106577E-090
   115.318125000000        -5.298407701901281E-091
   115.531875000000         1.326011699904666E-090
   115.745625000000         3.937251095815134E-090
   115.959375000000         7.129416318013918E-090
   116.173125000000         1.049412555806962E-089
   116.386875000000         1.335182106437327E-089
   116.600625000000         1.475674672914648E-089
   116.814375000000         1.356669075483028E-089
   117.028125000000         8.597466463311842E-090
   117.241875000000        -1.126559259029348E-090
   117.455625000000        -1.603069975483887E-089
   117.669375000000        -3.558567550112755E-089
   117.883125000000        -5.789999355209722E-089
   118.096875000000        -7.940154556572929E-089
   118.310625000000        -9.473121514829918E-089
   118.524375000000        -9.698954476443745E-089
   118.738125000000        -7.847302657797200E-089
   118.951875000000        -3.199800637203831E-089
   119.165625000000         4.717204245844674E-089
   119.379375000000         1.589106106111487E-088
   119.593125000000         2.956129934728423E-088
   119.806875000000         4.398735213946649E-088
   120.020625000000         5.631448705172508E-088
   120.234375000000         6.262150926744801E-088
   120.448125000000         5.823703692674949E-088
   120.661875000000         3.839621783546397E-088
   120.875625000000        -7.295971877054374E-090
   121.089375000000        -6.066544764729571E-088
   121.303125000000        -1.390585202628416E-087
   121.516875000000        -2.281444872809571E-087
   121.730625000000        -3.136236200546455E-087
   121.944375000000        -3.744179102078197E-087
   122.158125000000        -3.838291296270513E-087
   122.371875000000        -3.125740808142579E-087
   122.585625000000        -1.339988202081033E-087
   122.799375000000         1.685603316557655E-087
   123.013125000000         5.928020972651290E-087
   123.226875000000         1.108046325889847E-086
   123.440625000000         1.647265096886770E-086
   123.654375000000         2.103096640102409E-086
   123.868125000000         2.330800992521844E-086