  -1.60312500000000         0.000000000000000E+000
  -1.38937500000000         0.000000000000000E+000
  -1.17562500000000         0.000000000000000E+000
 -0.961875000000000         0.000000000000000E+000
 -0.748125000000000         0.000000000000000E+000
 -0.534375000000000         0.000000000000000E+000
 -0.320625000000000         0.000000000000000E+000
 -0.106875000000000         0.000000000000000E+000
  0.106875000000000         0.000000000000000E+000
  0.320625000000000         0.000000000000000E+000
  0.534375000000000         0.000000000000000E+000
  0.748125000000000         0.000000000000000E+000
  0.961875000000000         0.000000000000000E+000
   1.17562500000000         0.000000000000000E+000
   1.38937500000000         0.000000000000000E+000
   1.60312500000000         0.000000000000000E+000
   1.81687500000000         0.000000000000000E+000
   2.03062500000000         0.000000000000000E+000
   2.24437500000000         0.000000000000000E+000
   2.45812500000000         0.000000000000000E+000
   2.67187500000000         0.000000000000000E+000
   2.88562500000000         0.000000000000000E+000
   3.09937500000000         0.000000000000000E+000
   3.31312500000000         0.000000000000000E+000
   3.52687500000000         0.000000000000000E+000
   3.74062500000000         0.000000000000000E+000
   3.95437500000000         0.000000000000000E+000
   4.16812500000000         0.000000000000000E+000
   4.38187500000000         0.000000000000000E+000
   4.59562500000000         0.000000000000000E+000
   4.80937500000000         0.000000000000000E+000
   5.02312500000000         0.000000000000000E+000
   5.23687500000000         0.000000000000000E+000
   5.45062500000000         0.000000000000000E+000
   5.66437500000000         0.000000000000000E+000
   5.87812500000000         0.000000000000000E+000
   6.09187500000000         0.000000000000000E+000
   6.30562500000000         0.000000000000000E+000
   6.51937500000000         0.000000000000000E+000
   6.73312500000000         0.000000000000000E+000
   6.94687500000000         0.000000000000000E+000
   7.16062500000000         0.000000000000000E+000
   7.37437500000000         0.000000000000000E+000
   7.58812500000000         0.000000000000000E+000
   7.80187500000000         0.000000000000000E+000
   8.01562500000000         0.000000000000000E+000
   8.22937500000000         0.000000000000000E+000
   8.44312500000000         0.000000000000000E+000
   8.65687500000000         0.000000000000000E+000
   8.87062500000000         0.000000000000000E+000
   9.08437500000000         0.000000000000000E+000
   9.29812500000000         0.000000000000000E+000
   9.51187500000000         0.000000000000000E+000
   9.72562500000000         0.000000000000000E+000
   9.93937500000000         0.000000000000000E+000
   10.1531250000000         0.000000000000000E+000
   10.3668750000000         0.000000000000000E+000
   10.5806250000000        -6.462650864123150E-232
   10.7943750000000         3.128100493921569E-226
   11.0081250000000        -1.290928063782820E-224
   11.2218750000000         2.313940904626719E-220
   11.4356250000000         5.056377757945817E-218
   11.6493750000000         3.835615882811107E-216
   11.8631250000000         1.421662246494425E-214
   12.0768750000000         2.876826398427815E-213
   12.2906250000000         2.259024501525325E-212
   12.5043750000000        -5.130724875186026E-211
   12.7181250000000        -2.316374503012322E-209
   12.9318750000000        -5.068963776234351E-208
   13.1456250000000        -8.025842106719006E-207
   13.3593750000000        -1.015720001464517E-205
   13.5731250000000        -1.071563793666673E-204
   13.7868750000000        -9.602681245012677E-204
   14.0006250000000        -7.325089627695265E-203
   14.2143750000000        -4.658026436818052E-202
   14.4281250000000        -2.280127209521419E-201
   14.6418750000000        -5.698762283172992E-201
   14.8556250000000         4.059571260149255E-200
   15.0693750000000         7.871361820747986E-199
   15.2831250000000         7.909980012397474E-198
   15.4968750000000         6.177740060906211E-197
   15.7106250000000         4.061232155219054E-196
   15.9243750000000         2.285326342186880E-195
   16.1381250000000         1.078578693415122E-194
   16.3518750000000         3.900520621098706E-194
   16.5656250000000         6.497163464279304E-194
   16.7793750000000        -5.077688270788084E-193
   16.9931250000000        -6.829345904029600E-192
   17.2068750000000        -5.177413490751315E-191
   17.4206250000000        -3.092189101325547E-190
   17.6343750000000        -1.560634541346645E-189
   17.8481250000000        -6.735763681753303E-189
   18.0618750000000        -2.416116821359330E-188
   18.2756250000000        -6.377298015109763E-188
   18.4893750000000        -4.598116301816586E-188
   18.7031250000000         8.405573619422441E-187
   18.9168750000000         7.470562721260295E-186
   19.1306250000000         4.308057006222081E-185
   19.3443750000000         2.011952266982090E-184
   19.5581250000000         8.007450840833233E-184
   19.7718750000000         2.717910871766196E-183
   19.9856250000000         7.491594900752950E-183
   20.1993750000000         1.352805285010024E-182
   20.4131250000000        -1.056392854202396E-182
   20.6268750000000        -2.523856276124831E-181
   20.8406250000000        -1.542090644214860E-180
   21.0543750000000        -6.928072529398950E-180
   21.2681250000000        -2.588157361542577E-179
   21.4818750000000        -8.240820767124295E-179
   21.6956250000000        -2.180348758247400E-178
   21.9093750000000        -4.221499596848174E-178
   22.1231250000000        -1.844502940181769E-178
   22.3368750000000         3.430900751141721E-177
   22.5506250000000         2.253655508818519E-176
   22.7643750000000         9.854622272479286E-176
   22.9781250000000         3.526426205919892E-175
   23.1918750000000         1.083681033292329E-174
   23.4056250000000         2.858882514193835E-174
   23.6193750000000         6.159979326132312E-174
   23.8331250000000         8.723218015097241E-174
   24.0468750000000        -5.626136572447522E-174
   24.2606250000000        -1.039843199191619E-172
   24.4743750000000        -5.079622961067479E-172
   24.6881250000000        -1.838749782213860E-171
   24.9018750000000        -5.576763362046183E-171
   25.1156250000000        -1.455490899416409E-170
   25.3293750000000        -3.207888065247112E-170
   25.5431250000000        -5.410767599358743E-170
   25.7568750000000        -3.733957408017478E-170
   25.9706250000000         2.012008174902965E-169
   26.1843750000000         1.249874033710346E-168
   26.3981250000000         4.699883990042911E-168
   26.6118750000000         1.423432419305769E-167
   26.8256250000000         3.691440222074203E-167
   27.0393750000000         8.236903331412933E-167
   27.2531250000000         1.513708047724808E-166
   27.4668750000000         1.893955943191995E-166
   27.6806250000000        -5.332347835561373E-167
   27.8943750000000        -1.372738039482951E-165
   28.1081250000000        -5.856759897838335E-165
   28.3218750000000        -1.817386256024417E-164
   28.5356250000000        -4.704914530499151E-164
   28.7493750000000        -1.046527509575571E-163
   28.9631250000000        -1.962427260940203E-163
   29.1768750000000        -2.799522565794725E-163
   29.3906250000000        -1.525667095730832E-163
   29.6043750000000         8.191828712095309E-163
   29.8181250000000         4.231987850404731E-162
   30.0318750000000         1.349932070621679E-161
   30.2456250000000         3.472228448728778E-161
   30.4593750000000         7.611970918325366E-161
   30.6731250000000         1.416755271467991E-160
   30.8868750000000         2.086784082440242E-160
   31.1006250000000         1.685976847629697E-160
   31.3143750000000        -3.021466112211817E-160
   31.5281250000000        -1.979583908427175E-159
   31.7418750000000        -6.438045565765518E-159
   31.9556250000000        -1.634317587213904E-158
   32.1693750000000        -3.508540022150832E-158
   32.3831250000000        -6.416153409827002E-158
   32.5968750000000        -9.489411791524390E-158
   32.8106250000000        -8.838489741892577E-158
   33.0243750000000         6.497901226580265E-158
   33.2381250000000         6.139056755389680E-157
   33.4518750000000         2.035464266768597E-156
   33.6656250000000         5.091460289218239E-156
   33.8793750000000         1.068684711492046E-155
   34.0931250000000         1.914747880546441E-155
   34.3068750000000         2.818269296653278E-155
   34.5206250000000         2.836614013915322E-155
   34.7343750000000        -5.261382263488162E-156
   34.9481250000000        -1.261204637355069E-154
   35.1618750000000        -4.308718328056159E-154
   35.3756250000000        -1.064643297942263E-153
   35.5893750000000        -2.187351693235271E-153
   35.8031250000000        -3.841171369068027E-153
   36.0168750000000        -5.617350260300575E-153
   36.2306250000000        -5.982970456110919E-153
   36.4443750000000        -1.140378082359259E-153
   36.6581250000000         1.654947286951240E-152
   36.8718750000000         6.007809003257397E-152
   37.0856250000000         1.477258183229921E-151
   37.2993750000000         2.981667730216316E-151
   37.5131250000000         5.150377165433744E-151
   37.7268750000000         7.528323814544113E-151
   37.9406250000000         8.556018994646331E-151
   38.1543750000000         4.656695052511405E-151
   38.3681250000000        -1.082360618056630E-150
   38.5818750000000        -4.829724583977141E-150
   38.7956250000000        -1.211219227108517E-149
   39.0093750000000        -2.414960303504858E-149
   39.2231250000000        -4.109295084861022E-149
   39.4368750000000        -6.040895031904745E-149
   39.6506250000000        -7.484364972028295E-149
   39.8643750000000        -7.097661388135839E-149
   40.0781250000000        -3.052944228013781E-149
   40.2918750000000         6.242042948869564E-149
   40.5056250000000         2.060198496446439E-148
   40.7193750000000         3.609908734084527E-148
   40.9331250000000         4.485683297691710E-148
   41.1468750000000         4.254343828582206E-148
   41.3606250000000         5.591749283579316E-148
   41.5743750000000         2.114038784768372E-147
   41.7881250000000         8.729075338855344E-147
   42.0018750000000         2.872427234550206E-146
   42.2156250000000         7.817395639079238E-146
   42.4293750000000         1.834061830306387E-145
   42.6431250000000         3.789069093912659E-145
   42.8568750000000         6.914083480939661E-145
   43.0706250000000         1.092059865163467E-144
   43.2843750000000         1.385347526263312E-144
   43.4981250000000         9.873397547610187E-145
   43.7118750000000        -1.465714467713279E-144
   43.9256250000000        -8.723671690113936E-144
   44.1393750000000        -2.570237087455617E-143
   44.3531250000000        -6.014102880240634E-143
   44.5668750000000        -1.222472367766894E-142
   44.7806250000000        -2.212392879212791E-142
   44.9943750000000        -3.545474030435258E-142
   45.2081250000000        -4.820791167482201E-142
   45.4218750000000        -4.736683388349703E-142
   45.6356250000000        -1.447348121180567E-143
   45.8493750000000         1.543886361005090E-141
   46.0631250000000         5.376960719222965E-141
   46.2768750000000         1.335245491550051E-140
   46.4906250000000         2.794855310535337E-140
   46.7043750000000         5.143044767337248E-140
   46.9181250000000         8.333302647429470E-140
   47.1318750000000         1.146711224681606E-139
   47.3456250000000         1.166874696890364E-139
   47.5593750000000         2.192732248820370E-140
   47.7731250000000        -3.027055187250162E-139
   47.9868750000000        -1.085077011875777E-138
   48.2006250000000        -2.658958626941055E-138
   48.4143750000000        -5.409517540366276E-138
   48.6281250000000        -9.560649323199354E-138
   48.8418750000000        -1.465081458599058E-137
   49.0556250000000        -1.848448588918393E-137
   49.2693750000000        -1.533852472268837E-137
   49.4831250000000         6.644459219119444E-138
   49.6968750000000         6.843594041947042E-137
   49.9106250000000         2.018779318528300E-136
   50.1243750000000         4.464570285126478E-136
   50.3381250000000         8.339015211003653E-136
   50.5518750000000         1.348887504257821E-135
   50.7656250000000         1.849882636297996E-135
   50.9793750000000         1.933791634939612E-135
   51.1931250000000         7.390090295545278E-136
   51.4068750000000        -3.283612695203658E-135
   51.6206250000000        -1.252529452573036E-134
   51.8343750000000        -3.005279433678640E-134
   52.0481250000000        -5.865818130362651E-134
   52.2618750000000        -9.838684628789988E-134
   52.4756250000000        -1.415573261282794E-133
   52.6893750000000        -1.642822669978127E-133
   52.9031250000000        -1.141624111623787E-133
   53.1168750000000         1.041525073795177E-133
   53.3306250000000         6.395055326856200E-133
   53.5443750000000         1.687169563230526E-132
   53.7581250000000         3.438910404408776E-132
   53.9718750000000         5.950536434369494E-132
   54.1856250000000         8.874763588900040E-132
   54.3993750000000         1.100755733454348E-131
   54.6131250000000         9.629999519124302E-132
   54.8268750000000        -2.720360040331266E-133
   55.0406250000000        -2.661783150146111E-131
   55.2543750000000        -8.001370496286918E-131
   55.4681250000000        -1.715090019737739E-130
   55.6818750000000        -3.064682892122604E-130
   55.8956250000000        -4.721350010114114E-130
   56.1093750000000        -6.164747412542233E-130
   56.3231250000000        -6.173666693667801E-130
   56.5368750000000        -2.455311201711043E-130
   56.7506250000000         8.664767612254621E-130
   56.9643750000000         3.221546039572768E-129
   57.1781250000000         7.371471766248847E-129
   57.3918750000000         1.366931924393929E-128
   57.6056250000000         2.175998839623095E-128
   57.8193750000000         2.970758615329049E-128
   58.0331250000000         3.271416559345341E-128
   58.2468750000000         2.154848037611338E-128
   58.4606250000000        -1.885863217115264E-128
   58.6743750000000        -1.096198409757064E-127
   58.8881250000000        -2.750275529128585E-127
   59.1018750000000        -5.337352947405102E-127
   59.3156250000000        -8.802086700520544E-127
   59.5293750000000        -1.252566854929651E-126
   59.7431250000000        -1.484785664471516E-126
   59.9568750000000        -1.246787294582856E-126
   60.1706250000000         1.259045226487325E-128
   60.3843750000000         3.085240404126230E-126
   60.5981250000000         8.923163975794188E-126
   60.8118750000000         1.836015458077596E-125
   61.0256250000000         3.150725514878626E-125
   61.2393750000000         4.668662940194169E-125
   61.4531250000000         5.882236656900621E-125
   61.6668750000000         5.737552648071633E-125
   61.8806250000000         2.426238979366887E-125
   62.0943750000000        -6.720510594347162E-125
   62.3081250000000        -2.504426583675831E-124
   62.5218750000000        -5.577925431736129E-124
   62.7356250000000        -1.002812547346983E-123
   62.9493750000000        -1.548344050656599E-123
   63.1631250000000        -2.057432007709180E-123
   63.3768750000000        -2.228795335721990E-123
   63.5906250000000        -1.528330597617582E-123
   63.8043750000000         8.550696732714929E-124
   64.0181250000000         5.976469765852981E-123
   64.2318750000000         1.494114529256849E-122
   64.4456250000000         2.843734538834685E-122
   64.6593750000000         4.587019642352591E-122
   64.8731250000000         6.400248407032743E-122
   65.0868750000000         7.512254379062440E-122
   65.3006250000000         6.500698372508493E-122
   65.5143750000000         1.137493556471637E-122
   65.7281250000000        -1.158355298302734E-121
   65.9418750000000        -3.502418253835501E-121
   66.1556250000000        -7.179248966045800E-121
   66.3693750000000        -1.216138166761864E-120
   66.5831250000000        -1.779083360650376E-120
   66.7968750000000        -2.230575056962568E-120
   67.0106250000000        -2.229109407992024E-120
   67.2243750000000        -1.220853194833437E-120
   67.4381250000000         1.568997547707427E-120
   67.6518750000000         7.057002841382812E-120
   67.8656250000000         1.606537775421743E-119
   68.0793750000000         2.884790342518110E-119
   68.2931250000000         4.430605027304018E-119
   68.5068750000000         5.887473423290132E-119
   68.7206250000000         6.517613279980478E-119
   68.9343750000000         5.075287478308937E-119
   69.1481250000000        -2.485862787306110E-120
   69.3618750000000        -1.170539010744894E-118
   69.5756250000000        -3.154174685691469E-118
   69.7893750000000        -6.104552902307320E-118
   70.0031250000000        -9.891342330505402E-118
   70.2168750000000        -1.388598140911269E-117
   70.4306250000000        -1.666121555489656E-117
   70.6443750000000        -1.568515122777935E-117
   70.8581250000000        -7.129401408256893E-118
   71.0718750000000         1.400477716032709E-117
   71.2856250000000         5.314546083872595E-117
   71.4993750000000         1.144237947768324E-116
   71.7131250000000         1.975885255812682E-116
   71.9268750000000         2.933292651736050E-116
   72.1406250000000         3.771613008477632E-116
   72.3543750000000         4.027562411777914E-116
   72.5681250000000         2.967563078624068E-116
   72.7818750000000        -4.132549358612874E-117
   72.9956250000000        -7.287239476019356E-116
   73.2093750000000        -1.871599066445956E-115
   73.4231250000000        -3.512312892150183E-115
   73.6368750000000        -5.546189860043100E-115
   73.8506250000000        -7.608011363160258E-115
   74.0643750000000        -8.940231349785240E-115
   74.2781250000000        -8.273993262626848E-115
   74.4918750000000        -3.780696107450733E-115
   74.7056250000000         6.816286759609201E-115
   74.9193750000000         2.584974415294252E-114
   75.1331250000000         5.490034773530909E-114
   75.3468750000000         9.345332878751388E-114
   75.5606250000000         1.369797520613055E-113
   75.7743750000000         1.745714827077370E-113
   75.9881250000000         1.865467024801396E-113
   76.2018750000000         1.428596174098699E-113
   76.4156250000000         3.668821089369013E-115
   76.6293750000000        -2.760418291079513E-113
   76.8431250000000        -7.355105264612511E-113
   77.0568750000000        -1.388682659100253E-112
   77.2706250000000        -2.194777677531782E-112
   77.4843750000000        -3.019749600732383E-112
   77.6981250000000        -3.593371206040737E-112
   77.9118750000000        -3.472617749127234E-112
   78.1256250000000        -2.029841870830840E-112
   78.3393750000000         1.507015882456134E-112
   78.5531250000000         7.927339939513748E-112
   78.7668750000000         1.778618923824235E-111
   78.9806250000000         3.099754538048199E-111
   79.1943750000000         4.626569454732756E-111
   79.4081250000000         6.039544835778791E-111
   79.6218750000000         6.759868234328496E-111
   79.8356250000000         5.902179853417945E-111
   80.0493750000000         2.284839724122028E-111
   80.2631250000000        -5.453816441175168E-111
   80.4768750000000        -1.857575943951309E-110
   80.6906250000000        -3.774402559980186E-110
   80.9043750000000        -6.226833527123383E-110
   81.1181250000000        -8.910949568502044E-110
   81.3318750000000        -1.117447966495624E-109
   81.5456250000000        -1.191295352794482E-109
   81.7593750000000        -9.516459356924391E-110
   81.9731250000000        -1.927872530799070E-110
   82.1868750000000         1.310834150460801E-109
   82.4006250000000         3.751797371834531E-109
   82.6143750000000         7.200985751509634E-109
   82.8281250000000         1.147907941145313E-108
   83.0418750000000         1.599311669574084E-108
   83.2556250000000         1.955766339100506E-108
   83.4693750000000         2.024140313251850E-108
   83.6831250000000         1.530707244813059E-108
   83.8968750000000         1.342523840083993E-109
   84.1106250000000        -2.529313902082307E-108
   84.3243750000000        -6.757268393866364E-108
   84.5381250000000        -1.263356545733382E-107
   84.7518750000000        -1.982054285672365E-107
   84.9656250000000        -2.729781709566629E-107
   85.1793750000000        -3.308038470748165E-107
   85.3931250000000        -3.398106174206012E-107
   85.6068750000000        -2.552446868915912E-107
   85.8206250000000        -2.166181439261432E-108
   86.0343750000000         4.198832699631368E-107
   86.2481250000000         1.117511308269487E-106
   86.4618750000000         2.085184157321810E-106
   86.6756250000000         3.269522124008641E-106
   86.8893750000000         4.508085135563163E-106
   87.1031250000000         5.484024890934136E-106
   87.3168750000000         5.687235479935312E-106
   87.5306250000000         4.398839046193814E-106
   87.7443750000000         7.233520303345790E-107
   87.9581250000000        -6.300327601243516E-106
   88.1718750000000        -1.747449432308763E-105
   88.3856250000000        -3.307385402401275E-105
   88.5993750000000        -5.231741080022632E-105
   88.8131250000000        -7.270000066322647E-105
   89.0268750000000        -8.925981946651733E-105
   89.2406250000000        -9.394212814234607E-105
   89.4543750000000        -7.532739527751093E-105
   89.6681250000000        -1.911305375479970E-105
   89.8818750000000         9.015324466388557E-105
   90.0956250000000         2.655373716067704E-104
   90.3093750000000         5.118924640540501E-104
   90.5231250000000         8.175197040249781E-104
   90.7368750000000         1.143647496971211E-103
   90.9506250000000         1.412985576284931E-103
   91.1643750000000         1.499943753672053E-103
   91.3781250000000         1.226791913578837E-103
   91.5918750000000         3.718715252708328E-104
   91.8056250000000        -1.302476036608349E-103
   92.0193750000000        -3.994021633720046E-103
   92.2331250000000        -7.769948321218014E-103
   92.4468750000000        -1.243906858755972E-102
   92.6606250000000        -1.739374667306612E-102
   92.8743750000000        -2.144285395326807E-102
   93.0881250000000        -2.267730119183713E-102
   93.3018750000000        -1.843423815685043E-102
   93.5156250000000        -5.451147849587107E-103
   93.7293750000000         1.968018249556175E-102
   93.9431250000000         5.964820301181860E-102
   94.1568750000000         1.150629070007636E-101
   94.3706250000000         1.826001281472262E-101
   94.5843750000000         2.527868967632943E-101
   94.7981250000000         3.077811352923614E-101
   95.0118750000000         3.197830286131926E-101
   95.2256250000000         2.510399306779680E-101
   95.4393750000000         5.670896341359603E-102
   95.6531250000000        -3.079840995082273E-101
   95.8668750000000        -8.749557174205380E-101
   96.0806250000000        -1.644083200942242E-100
   96.2943750000000        -2.558107162045762E-100
   96.5081250000000        -3.474158393833391E-100
   96.7218750000000        -4.137385526066470E-100
   96.9356250000000        -4.165794858114326E-100
   97.1493750000000        -3.059243138092792E-100
   97.3631250000000        -2.486014000748992E-101
   97.5768750000000         4.798017349643793E-100
   97.7906250000000         1.239832207483465E-099
   98.0043750000000         2.240412040086127E-099
   98.2181250000000         3.388866048352925E-099
   98.4318750000000         4.481439779029856E-099
   98.6456250000000         5.175903540104833E-099
   98.8593750000000         4.981958847800004E-099
   99.0731250000000         3.285380840325057E-099
   99.2868750000000        -5.757206494051610E-100
   99.5006250000000        -7.164991907010992E-099
   99.7143750000000        -1.672108654259146E-098
   99.9281250000000        -2.885295331611425E-098
   100.141875000000        -4.218356200173347E-098
   100.355625000000        -5.400180873954691E-098
   100.569375000000        -6.002340089217499E-098
   100.783125000000        -5.440457236091048E-098
   100.996875000000        -3.018715888711086E-098
   101.210625000000         1.963557788168124E-098
   101.424375000000         1.002758364052842E-097
   101.638125000000         2.124729015175186E-097
   101.851875000000         3.491054692165371E-097
   102.065625000000         4.915001512155585E-097
   102.279375000000         6.062082750460107E-097
   102.493125000000         6.434389371395459E-097
   102.706875000000         5.387238788638495E-097
   102.920625000000         2.196257954746503E-097
   103.134375000000        -3.807814601822734E-097
   103.348125000000        -1.302531882668061E-096
   103.561875000000        -2.529666885063247E-096
   103.775625000000        -3.955755204520825E-096
   103.989375000000        -5.349385115829330E-096
   104.203125000000        -6.328630353712891E-096
   104.416875000000        -6.357247103413469E-096
   104.630625000000        -4.778307080619941E-096
   104.844375000000        -9.017970856940502E-097
   105.058125000000         5.840214380955797E-096
   105.271875000000         1.566566225175522E-095
   105.485625000000         2.815199855653351E-095
   105.699375000000         4.191620530409069E-095
   105.913125000000         5.432783906797073E-095
   106.126875000000         6.135036548982332E-095
   106.340625000000         5.763572852527724E-095
   106.554375000000         3.701413101290550E-095
   106.768125000000        -6.487206247351461E-096
   106.981875000000        -7.701021739643004E-095
   107.195625000000        -1.746314164117746E-094
   107.409375000000        -2.927023166267406E-094
   107.623125000000        -4.151610262512347E-094
   107.836875000000        -5.144723608068141E-094
   108.050625000000        -5.511154425092571E-094
   108.264375000000        -4.757340287976711E-094
   108.478125000000        -2.351049445400270E-094
   108.691875000000         2.171444088363797E-094
   108.905625000000         9.047370442382896E-094
   109.119375000000         1.808590109206401E-093
   109.333125000000         2.844561553499500E-093
   109.546875000000         3.843289664491104E-093
   109.760625000000         4.538401897682601E-093
   109.974375000000         4.571190814654213E-093
   110.188125000000         3.520796242731613E-093
   110.401875000000         9.682213295739686E-094
   110.615625000000        -3.400688234677211E-093
   110.829375000000        -9.654583992560170E-093
   111.043125000000        -1.744955279074237E-092
   111.256875000000        -2.586022926587475E-092
   111.470625000000        -3.324898532708121E-092
   111.684375000000        -3.722792441993214E-092
   111.898125000000        -3.477880955720409E-092
   112.111875000000        -2.259685051243597E-092
   112.325625000000         2.290449455231459E-093
   112.539375000000         4.161407475781596E-092
   112.753125000000         9.470947101024209E-092
   112.966875000000         1.572491535579921E-091
   113.180625000000         2.200982292724191E-091
   113.394375000000         2.686387304402947E-091
   113.608125000000         2.829994586131643E-091
   113.821875000000         2.396672011573184E-091
   114.035625000000         1.149032847962842E-091
   114.249375000000        -1.097938927088841E-091
   114.463125000000        -4.402865732453059E-091
   114.676875000000        -8.610836203345498E-091
   114.890625000000        -1.326615657789149E-090
   115.104375000000        -1.754550501479058E-090
   115.318125000000        -2.023893527822211E-090
   115.531875000000        -1.981057430735337E-090
   115.745625000000        -1.457023526112967E-090
   115.959375000000        -2.978825872743681E-091
   116.173125000000         1.590801949837982E-090
   116.386875000000         4.188356088800392E-090
   116.600625000000         7.298705454857552E-090
   116.814375000000         1.049686531551052E-089
   117.028125000000         1.309846575254750E-089
   117.241875000000         1.417228222857633E-089
   117.455625000000         1.261686166931245E-089
   117.669375000000         7.319158083382708E-090
   117.883125000000        -2.596014607419576E-090
   118.096875000000        -1.743308916013885E-089
   118.310625000000        -3.654017533676884E-089
   118.524375000000        -5.793068363603673E-089
   118.738125000000        -7.800320572356584E-089
   118.951875000000        -9.147790249811975E-089
   119.165625000000        -9.168235344761221E-089
   119.379375000000        -7.131185434713378E-089
   119.593125000000        -2.374806741134614E-089
   119.806875000000         5.506270036250626E-089
   120.020625000000         1.642978629848730E-088
   120.234375000000         2.958071325086310E-088
   120.448125000000         4.320048151032132E-088
   120.661875000000         5.447704653704847E-088
   120.875625000000         5.961486463498215E-088
   121.089375000000         5.416514373930440E-088
   121.303125000000         3.368038576576325E-088
   121.516875000000        -5.282373673060363E-089
   121.730625000000        -6.385138254684595E-088
   121.944375000000        -1.393564712464213E-087
   122.158125000000        -2.239150391606888E-087
   122.371875000000        -3.034434241619857E-087
   122.585625000000        -3.575404587087841E-087
   122.799375000000        -3.607279198009499E-087
   123.013125000000        -2.854809169259443E-087
   123.226875000000        -1.073050232201073E-087
   123.440625000000         1.882088873919651E-087
   123.654375000000         5.969008056989870E-087
   123.868125000000         1.087282701035745E-086