  -1.60312500000000         0.000000000000000E+000
  -1.38937500000000         0.000000000000000E+000
  -1.17562500000000         0.000000000000000E+000
 -0.961875000000000         0.000000000000000E+000
 -0.748125000000000         0.000000000000000E+000
 -0.534375000000000         0.000000000000000E+000
 -0.320625000000000         0.000000000000000E+000
 -0.106875000000000         0.000000000000000E+000
  0.106875000000000         0.000000000000000E+000
  0.320625000000000         0.000000000000000E+000
  0.534375000000000         0.000000000000000E+000
  0.748125000000000         0.000000000000000E+000
  0.961875000000000         0.000000000000000E+000
   1.17562500000000         0.000000000000000E+000
   1.38937500000000         0.000000000000000E+000
   1.60312500000000         0.000000000000000E+000
   1.81687500000000         0.000000000000000E+000
   2.03062500000000         0.000000000000000E+000
   2.24437500000000         0.000000000000000E+000
   2.45812500000000         0.000000000000000E+000
   2.67187500000000         0.000000000000000E+000
   2.88562500000000         0.000000000000000E+000
   3.09937500000000         0.000000000000000E+000
   3.31312500000000         0.000000000000000E+000
   3.52687500000000         0.000000000000000E+000
   3.74062500000000         0.000000000000000E+000
   3.95437500000000         0.000000000000000E+000
   4.16812500000000         0.000000000000000E+000
   4.38187500000000         0.000000000000000E+000
   4.59562500000000         0.000000000000000E+000
   4.80937500000000         0.000000000000000E+000
   5.02312500000000         0.000000000000000E+000
   5.23687500000000         0.000000000000000E+000
   5.45062500000000         0.000000000000000E+000
   5.66437500000000         0.000000000000000E+000
   5.87812500000000         0.000000000000000E+000
   6.09187500000000         0.000000000000000E+000
   6.30562500000000         0.000000000000000E+000
   6.51937500000000         0.000000000000000E+000
   6.73312500000000         0.000000000000000E+000
   6.94687500000000         0.000000000000000E+000
   7.16062500000000         0.000000000000000E+000
   7.37437500000000         0.000000000000000E+000
   7.58812500000000         0.000000000000000E+000
   7.80187500000000         0.000000000000000E+000
   8.01562500000000         0.000000000000000E+000
   8.22937500000000         0.000000000000000E+000
   8.44312500000000         0.000000000000000E+000
   8.65687500000000         0.000000000000000E+000
   8.87062500000000         0.000000000000000E+000
   9.08437500000000         0.000000000000000E+000
   9.29812500000000         0.000000000000000E+000
   9.51187500000000         0.000000000000000E+000
   9.72562500000000         0.000000000000000E+000
   9.93937500000000         0.000000000000000E+000
   10.1531250000000         0.000000000000000E+000
   10.3668750000000        -1.044642102926070E-229
   10.5806250000000         7.095602176664918E-223
   10.7943750000000        -5.423067909437790E-221
   11.0081250000000         9.726248158240492E-217
   11.2218750000000         9.289927207798271E-215
   11.4356250000000         4.322016689160938E-213
   11.6493750000000         1.306078311563162E-211
   11.8631250000000         2.860888702606263E-210
   12.0768750000000         4.762574673896822E-209
   12.2906250000000         6.067557788105729E-208
   12.5043750000000         5.618259067453854E-207
   12.7181250000000         2.832037094227200E-206
   12.9318750000000        -1.705096638381046E-205
   13.1456250000000        -6.385766635063010E-204
   13.3593750000000        -9.436635580511867E-203
   13.5731250000000        -9.875200205463911E-202
   13.7868750000000        -7.920859092546152E-201
   14.0006250000000        -4.683308032643536E-200
   14.2143750000000        -1.462975257917584E-199
   14.4281250000000         8.464990511794842E-199
   14.6418750000000         1.973478547782937E-197
   14.8556250000000         2.131930176893095E-196
   15.0693750000000         1.738337227574254E-195
   15.2831250000000         1.173780879647943E-194
   15.4968750000000         6.733491632598058E-194
   15.7106250000000         3.258551926640523E-193
   15.9243750000000         1.262570575611554E-192
   16.1381250000000         3.144963395168414E-192
   16.3518750000000        -3.610353009605838E-192
   16.5656250000000        -1.108302468882976E-190
   16.7793750000000        -8.975359358144487E-190
   16.9931250000000        -5.277490864427404E-189
   17.2068750000000        -2.538472950418093E-188
   17.4206250000000        -1.018149043507236E-187
   17.6343750000000        -3.266302886763184E-187
   17.8481250000000        -6.792214695322446E-187
   18.0618750000000         5.877294895100848E-187
   18.2756250000000         1.607932998424636E-185
   18.4893750000000         1.094439733102806E-184
   18.7031250000000         5.400941679764638E-184
   18.9168750000000         2.175599819647158E-183
   19.1306250000000         7.238628382241796E-183
   19.3443750000000         1.858424262839775E-182
   19.5581250000000         2.464054641823731E-182
   19.7718750000000        -9.068413825530077E-182
   19.9856250000000        -9.420924339216695E-181
   20.1993750000000        -5.052501858418437E-180
   20.4131250000000        -2.100992803541435E-179
   20.6268750000000        -7.282469718022423E-179
   20.8406250000000        -2.098359801512288E-178
   21.0543750000000        -4.616889997331960E-178
   21.2681250000000        -4.556926940562091E-178
   21.4818750000000         2.395583850295525E-177
   21.6956250000000         1.963591089509872E-176
   21.9093750000000         9.278455100037381E-176
   22.1231250000000         3.480655465295350E-175
   22.3368750000000         1.106186679732315E-174
   22.5506250000000         2.987714531757706E-174
   22.7643750000000         6.498346971518733E-174
   22.9781250000000         8.822935829594283E-174
   23.1918750000000        -9.926703737575541E-174
   23.4056250000000        -1.331267735339055E-172
   23.6193750000000        -6.393486123339199E-172
   23.8331250000000        -2.315939363301854E-171
   24.0468750000000        -7.040428524744798E-171
   24.2606250000000        -1.833456327989723E-170
   24.4743750000000        -3.978938114798381E-170
   24.6881250000000        -6.315312072819410E-170
   24.9018750000000        -2.098770826022634E-170
   25.1156250000000         3.601052222938676E-169
   25.3293750000000         1.940313874187006E-168
   25.5431250000000         6.990281549546446E-168
   25.7568750000000         2.055207293124983E-167
   25.9706250000000         5.143008759571900E-167
   26.1843750000000         1.080396380023053E-166
   26.3981250000000         1.730002781756873E-166
   26.6118750000000         1.128375436231072E-166
   26.8256250000000        -5.758402250931937E-166
   27.0393750000000        -3.363846834191290E-165
   27.2531250000000        -1.185052311531077E-164
   27.4668750000000        -3.341795943269307E-164
   27.6806250000000        -7.983286293561230E-164
   27.8943750000000        -1.605378305411268E-163
   28.1081250000000        -2.503616520861454E-163
   28.3218750000000        -1.879372948985615E-163
   28.5356250000000         5.820563470020145E-163
   28.7493750000000         3.556956093164934E-162
   28.9631250000000         1.212248604475516E-161
   29.1768750000000         3.266012935789786E-161
   29.3906250000000         7.430419818149909E-161
   29.6043750000000         1.423880390074523E-160
   29.8181250000000         2.129547066465763E-160
   30.0318750000000         1.616571675053234E-160
   30.2456250000000        -3.990882292952350E-160
   30.4593750000000        -2.431944126815439E-159
   30.6731250000000        -7.946709006772252E-159
   30.8868750000000        -2.041467822233329E-158
   31.1006250000000        -4.422976919144164E-158
   31.3143750000000        -8.073723711745436E-158
   31.5281250000000        -1.152800438211985E-157
   31.7418750000000        -8.492648150037401E-158
   31.9556250000000         1.883607279390206E-157
   32.1693750000000         1.112487524435737E-156
   32.3831250000000         3.473842384344406E-156
   32.5968750000000         8.511652766265764E-156
   32.8106250000000         1.757569642518850E-155
   33.0243750000000         3.054646624707523E-155
   33.2381250000000         4.138948843909583E-155
   33.4518750000000         2.818134670209549E-155
   33.6656250000000        -6.562315119750554E-155
   33.8793750000000        -3.599405970541987E-154
   34.0931250000000        -1.068846758392867E-153
   34.3068750000000        -2.500056920194706E-153
   34.5206250000000        -4.934689020902921E-153
   34.7343750000000        -8.199358822511859E-153
   34.9481250000000        -1.059664178954078E-152
   35.1618750000000        -6.713779436162597E-153
   35.3756250000000         1.635014793315171E-152
   35.5893750000000         8.420394382561358E-152
   35.8031250000000         2.397197273028407E-151
   36.0168750000000         5.401202211302473E-151
   36.2306250000000         1.030643789523492E-150
   36.4443750000000         1.663890205783962E-150
   36.6581250000000         2.114595722166310E-150
   36.8718750000000         1.424887932241654E-150
   37.0856250000000        -2.569341206284258E-150
   37.2993750000000        -1.397909257090869E-149
   37.5131250000000        -3.943147091051830E-149
   37.7268750000000        -8.750614050263128E-149
   37.9406250000000        -1.649415775930174E-148
   38.1543750000000        -2.657611390890230E-148
   38.3681250000000        -3.473190586031404E-148
   38.5818750000000        -2.857543811882021E-148
   38.7956250000000         1.948425632936263E-148
   39.0093750000000         1.614540794123820E-147
   39.2231250000000         4.816531097095673E-147
   39.4368750000000         1.093546251553793E-146
   39.6506250000000         2.104236407911027E-146
   39.8643750000000         3.507060718332338E-146
   40.0781250000000         4.938436283301287E-146
   40.2918750000000         5.211776739107416E-146
   40.5056250000000         1.539748481989579E-146
   40.7193750000000        -1.157665879924912E-145
   40.9331250000000        -4.358682692471076E-145
   41.1468750000000        -1.085095094236748E-144
   41.3606250000000        -2.230963238866717E-144
   41.5743750000000        -3.987894889827843E-144
   41.7881250000000        -6.207851211129097E-144
   42.0018750000000        -8.037877535207626E-144
   42.2156250000000        -7.109671619379769E-144
   42.4293750000000         1.757240582017078E-144
   42.6431250000000         2.830337474412442E-143
   42.8568750000000         8.853191065458468E-143
   43.0706250000000         2.048251982290212E-142
   43.2843750000000         4.009329780027730E-142
   43.4981250000000         6.849814961001380E-142
   43.7118750000000         1.009069877378657E-141
   43.9256250000000         1.189387705596851E-141
   44.1393750000000         7.700192062372370E-142
   44.3531250000000        -1.174365197241357E-141
   44.5668750000000        -6.260018367678679E-141
   44.7806250000000        -1.690459356646268E-140
   44.9943750000000        -3.600150547759595E-140
   45.2081250000000        -6.552199219092287E-140
   45.4218750000000        -1.029875194116603E-139
   45.6356250000000        -1.343496218847498E-139
   45.8493750000000        -1.217907156359002E-139
   46.0631250000000         1.389665839755414E-140
   46.2768750000000         4.129907530393049E-139
   46.4906250000000         1.286893170329575E-138
   46.7043750000000         2.891531224141264E-138
   46.9181250000000         5.413323013612495E-138
   47.1318750000000         8.687202924724567E-138
   47.3456250000000         1.164239175782166E-137
   47.5593750000000         1.138332650202838E-137
   47.7731250000000         1.918261410669567E-138
   47.9868750000000        -2.715942833202597E-137
   48.2006250000000        -9.112655969254886E-137
   48.4143750000000        -2.077718672357415E-136
   48.6281250000000        -3.887835965506460E-136
   48.8418750000000        -6.197871246636991E-136
   49.0556250000000        -8.230359161946393E-136
   49.2693750000000        -7.986196130597645E-136
   49.4831250000000        -1.482347417044258E-136
   49.6968750000000         1.794655843945194E-135
   49.9106250000000         5.966842491359442E-135
   50.1243750000000         1.338828586038590E-134
   50.3381250000000         2.458614969387740E-134
   50.5518750000000         3.835577058520918E-134
   50.7656250000000         4.957276371050391E-134
   50.9793750000000         4.593644688058404E-134
   51.1931250000000         4.055158230104603E-135
   51.4068750000000        -1.135689406718926E-133
   51.6206250000000        -3.570779157870152E-133
   51.8343750000000        -7.767517417381719E-133
   52.0481250000000        -1.389320709022256E-132
   52.2618750000000        -2.110219619671793E-132
   52.4756250000000        -2.640156785923231E-132
   52.6893750000000        -2.305287749708207E-132
   52.9031250000000         1.205715036225815E-133
   53.1168750000000         6.525333044309137E-132
   53.3306250000000         1.931759119171318E-131
   53.5443750000000         4.072044805647770E-131
   53.7581250000000         7.104120416230961E-131
   53.9718750000000         1.053743354495630E-130
   54.1856250000000         1.283199598666144E-130
   54.3993750000000         1.068811390085530E-130
   54.6131250000000        -1.690844478010700E-131
   54.8268750000000        -3.294828856865713E-130
   55.0406250000000        -9.371565591071942E-130
   55.2543750000000        -1.931897942266654E-129
   55.4681250000000        -3.312576246734553E-129
   55.6818750000000        -4.840664500740668E-129
   55.8956250000000        -5.816573161424604E-129
   56.1093750000000        -4.789046643199102E-129
   56.3231250000000         7.315426325252855E-130
   56.5368750000000         1.438091802451060E-128
   56.7506250000000         4.053712353359656E-128
   56.9643750000000         8.287466367630013E-128
   57.1781250000000         1.411614013840567E-127
   57.3918750000000         2.055370985784690E-127
   57.6056250000000         2.478327219951327E-127
   57.8193750000000         2.105251051997909E-127
   58.0331250000000        -3.878996159499799E-129
   58.2468750000000        -5.364311940367580E-127
   58.4606250000000        -1.556116567875352E-126
   58.6743750000000        -3.206010868865095E-126
   58.8881250000000        -5.486164156035396E-126
   59.1018750000000        -8.047253026932305E-126
   59.3156250000000        -9.880984909977791E-126
   59.5293750000000        -8.929470388658463E-126
   59.7431250000000        -1.710542348836311E-126
   59.9568750000000         1.681742460010911E-125
   60.1706250000000         5.274524777361109E-125
   60.3843750000000         1.114329874187235E-124
   60.5981250000000         1.936475617123975E-124
   60.8118750000000         2.887850210379569E-124
   61.0256250000000         3.647299536881044E-124
   61.2393750000000         3.550400569539989E-124
   61.4531250000000         1.464476068651354E-124
   61.6668750000000        -4.264834955468691E-124
   61.8806250000000        -1.567229657352484E-123
   62.0943750000000        -3.464907463727374E-123
   62.3081250000000        -6.179240309827770E-123
   62.5218750000000        -9.437873813977169E-123
   62.7356250000000        -1.233194253790219E-122
   62.9493750000000        -1.292781485429455E-122
   63.1631250000000        -7.877409862759705E-123
   63.3768750000000         7.783687108002900E-123
   63.5906250000000         4.030996131996327E-122
   63.8043750000000         9.587279918727556E-122
   64.0181250000000         1.774672988686435E-121
   64.2318750000000         2.793993928201696E-121
   64.4456250000000         3.789264374130056E-121
   64.6593750000000         4.254383607657819E-121
   64.8731250000000         3.292057313625971E-121
   65.0868750000000        -4.556841963818889E-122
   65.3006250000000        -8.748272100416005E-121
   65.5143750000000        -2.342767123006230E-120
   65.7281250000000        -4.566858787116898E-120
   65.9418750000000        -7.461636415644465E-120
   66.1556250000000        -1.052909603902692E-119
   66.3693750000000        -1.258217647479152E-119
   66.5831250000000        -1.144566599008090E-119
   66.7968750000000        -3.741694007003481E-120
   67.0106250000000         1.504397637390737E-119
   67.2243750000000         4.991213377012123E-119
   67.4381250000000         1.047166891474203E-118
   67.6518750000000         1.791123829322751E-118
   67.8656250000000         2.637620737746598E-118
   68.0793750000000         3.338653083398642E-118
   68.2931250000000         3.418639759656384E-118
   68.5068750000000         2.115104062952706E-118
   68.7206250000000        -1.626152349940267E-118
   68.9343750000000        -9.037424292681503E-118
   69.1481250000000        -2.121107996255746E-117
   69.3618750000000        -3.848071952824443E-117
   69.5756250000000        -5.942317111287452E-117
   69.7893750000000        -7.947340789860710E-117
   70.0031250000000        -8.929534622027249E-117
   70.2168750000000        -7.330833828323770E-117
   70.4306250000000        -9.141866847642787E-118
   70.6443750000000         1.307469344123819E-116
   70.8581250000000         3.735971813240576E-116
   71.0718750000000         7.350392140761689E-116
   71.2856250000000         1.200208737500162E-115
   71.4993750000000         1.696671914394169E-115
   71.7131250000000         2.061140548961110E-115
   71.9268750000000         2.006478400182551E-115
   72.1406250000000         1.102200829164040E-115
   72.3543750000000        -1.209796349201048E-115
   72.5681250000000        -5.533581415542300E-115
   72.7818750000000        -1.233451114097757E-114
   72.9956250000000        -2.161565029076395E-114
   73.2093750000000        -3.243544214464491E-114
   73.4231250000000        -4.228653286785334E-114
   73.6368750000000        -4.642794474484079E-114
   73.8506250000000        -3.737312055766021E-114
   74.0643750000000        -4.881564616514950E-115
   74.2781250000000         6.303717916526764E-114
   74.4918750000000         1.774650595756884E-113
   74.7056250000000         3.435900764931412E-113
   74.9193750000000         5.529051926825130E-113
   75.1331250000000         7.726416624234418E-113
   75.3468750000000         9.335290462405008E-113
   75.5606250000000         9.186308979932258E-113
   75.7743750000000         5.582755790353773E-113
   75.9881250000000        -3.612308687248493E-113
   76.2018750000000        -2.064916487444694E-112
   76.4156250000000        -4.720963525931488E-112
   76.6293750000000        -8.326943452025582E-112
   76.8431250000000        -1.254660550289767E-111
   77.0568750000000        -1.650671969834381E-111
   77.2706250000000        -1.858599623893099E-111
   77.4843750000000        -1.626057517461328E-111
   77.6981250000000        -6.111184567783565E-112
   77.9118750000000         1.586035918208948E-111
   78.1256250000000         5.342542908360075E-111
   78.3393750000000         1.086518835025729E-110
   78.5531250000000         1.796308683352281E-110
   78.7668750000000         2.574295434398609E-110
   78.9806250000000         3.225653268198172E-110
   79.1943750000000         3.417185444948143E-110
   79.4081250000000         2.659654528256796E-110
   79.6218750000000         3.246879277756855E-111
   79.8356250000000        -4.278202965994079E-110
   80.0493750000000        -1.173544859581039E-109
   80.2631250000000        -2.224762330531352E-109
   80.4768750000000        -3.521866650719461E-109
   80.6906250000000        -4.873145628325263E-109
   80.9043750000000        -5.897391186756483E-109
   81.1181250000000        -5.975112741780619E-109
   81.3318750000000        -4.231034365447284E-109
   81.5456250000000         4.193809493407337E-110
   81.7593750000000         9.117889439685562E-109
   81.9731250000000         2.276073964697540E-108
   82.1868750000000         4.150690148529488E-108
   82.4006250000000         6.408306006347268E-108
   82.6143750000000         8.692024679655428E-108
   82.8281250000000         1.032374922869997E-107
   83.0418750000000         1.023026760383037E-107
   83.2556250000000         6.924498002805353E-108
   83.4693750000000        -1.405051282273140E-108
   83.6831250000000        -1.663033314818850E-107
   83.8968750000000        -4.017413683327698E-107
   84.1106250000000        -7.219549082416810E-107
   84.3243750000000        -1.104502888826059E-106
   84.5381250000000        -1.488863333319157E-106
   84.7518750000000        -1.761609889368460E-106
   84.9656250000000        -1.744534494830377E-106
   85.1793750000000        -1.191750924068827E-106
   85.3931250000000         1.956672197780280E-107
   85.6068750000000         2.726804012294426E-106
   85.8206250000000         6.638216297648250E-106
   86.0343750000000         1.196172332119228E-105
   86.2481250000000         1.833922942176488E-105
   86.4618750000000         2.479383251103235E-105
   86.6756250000000         2.948733361145899E-105
   86.8893750000000         2.952412996261890E-105
   87.1031250000000         2.089921270949862E-105
   87.3168750000000        -1.270874058626968E-106
   87.5306250000000        -4.206008974867540E-105
   87.7443750000000        -1.054004228436029E-104
   87.9581250000000        -1.919481608424641E-104
   88.1718750000000        -2.960962700370438E-104
   88.3856250000000        -4.022893402646551E-104
   88.5993750000000        -4.811389304484675E-104
   88.8131250000000        -4.863215123909133E-104
   89.0268750000000        -3.538450687703241E-104
   89.2406250000000        -5.913888688914730E-106
   89.4543750000000         6.378559840217873E-104
   89.6681250000000         1.638976159767051E-103
   89.8818750000000         3.006090765626921E-103
   90.0956250000000         4.647959984918300E-103
   90.3093750000000         6.316404134888064E-103
   90.5231250000000         7.547683672184394E-103
   90.7368750000000         7.618356588299757E-103
   90.9506250000000         5.540754017882318E-103
   91.1643750000000         1.323945428787175E-104
   91.3781250000000        -9.799769241281875E-103
   91.5918750000000        -2.511954229475860E-102
   91.8056250000000        -4.583780599732038E-102
   92.0193750000000        -7.040770785204992E-102
   92.2331250000000        -9.489718350249271E-102
   92.4468750000000        -1.121812263835756E-101
   92.6606250000000        -1.114065549501085E-101
   92.8743750000000        -7.810646448381576E-102
   93.0881250000000         4.541317993383346E-103
   93.3018750000000         1.527581674868556E-101
   93.5156250000000         3.770037654995744E-101
   93.7293750000000         6.743432126697911E-101
   93.9431250000000         1.018580172548977E-100
   94.1568750000000         1.349232258560069E-100
   94.3706250000000         1.561612603050544E-100
   94.5843750000000         1.501747610738738E-100
   94.7981250000000         9.713968219027505E-101
   95.0118750000000        -2.503448193405398E-101
   95.2256250000000        -2.362091064651364E-100
   95.4393750000000        -5.466515671308939E-100
   95.6531250000000        -9.466743790801651E-100
   95.8668750000000        -1.393908681165215E-099
   96.0806250000000        -1.800000035380470E-099
   96.2943750000000        -2.020047024632505E-099
   96.5081250000000        -1.849857933977215E-099
   96.7218750000000        -1.037746516442895E-099
   96.9356250000000         6.814251201569831E-100
   97.1493750000000         3.522694314038417E-099
   97.3631250000000         7.553498665222034E-099
   97.5768750000000         1.256397164550122E-098
   97.7906250000000         1.791706204737743E-098
   98.0043750000000         2.240505389696959E-098
   98.2181250000000         2.415694030711809E-098
   98.4318750000000         2.065976637620407E-098
   98.6456250000000         8.971883635599787E-099
   98.8593750000000        -1.378985472714632E-098
   99.0731250000000        -4.962250320599802E-098
   99.2868750000000        -9.844772289678934E-098
   99.5006250000000        -1.566230056578447E-097
   99.7143750000000        -2.153422075799722E-097
   99.9281250000000        -2.592797569312596E-097
   100.141875000000        -2.660200324692157E-097
   100.355625000000        -2.069863466922558E-097
   100.569375000000        -5.068566287274290E-098
   100.783125000000         2.309620868203961E-097
   100.996875000000         6.527290544180340E-097
   101.210625000000         1.202756606429133E-096
   101.424375000000         1.826955500527767E-096
   101.638125000000         2.413689221430468E-096
   101.851875000000         2.783001502808618E-096
   102.065625000000         2.686387951622722E-096
   102.279375000000         1.824451025469894E-096
   102.493125000000        -1.099116998507882E-097
   102.706875000000        -3.356636471110190E-096
   102.920625000000        -7.979932566806756E-096
   103.134375000000        -1.373150092745805E-095
   103.348125000000        -1.990208602197196E-095
   103.561875000000        -2.519211597321195E-095
   103.775625000000        -2.764786412743478E-095
   103.989375000000        -2.472360394756278E-095
   104.203125000000        -1.353787773458105E-095
   104.416875000000         8.612957937843038E-096
   104.630625000000         4.344532972707429E-095
   104.844375000000         9.059533097708898E-095
   105.058125000000         1.463348892316143E-094
   105.271875000000         2.022999942070676E-094
   105.485625000000         2.445630063304880E-094
   105.699375000000         2.535091945381762E-094
   105.913125000000         2.050711231615001E-094
   106.126875000000         7.388714743638269E-095
   106.340625000000        -1.611729281717690E-094
   106.554375000000        -5.089864105725037E-094
   106.768125000000        -9.560793869846013E-094
   106.981875000000        -1.455660047153532E-093
   107.195625000000        -1.917977389954839E-093
   107.409375000000        -2.205254355745347E-093
   107.623125000000        -2.135348184340952E-093
   107.836875000000        -1.498721125380731E-093
   108.050625000000        -9.285842468717216E-095
   108.264375000000         2.223485316535040E-093
   108.478125000000         5.457268534595332E-093
   108.691875000000         9.395733473310750E-093
   108.905625000000         1.352192022076975E-092
   109.119375000000         1.695246896773944E-092
   109.333125000000         1.842666929787626E-092
   109.546875000000         1.638084145557649E-092
   109.760625000000         9.141997180783221E-093
   109.974375000000        -4.733825940705923E-093
   110.188125000000        -2.597310925410882E-092
   110.401875000000        -5.397412924567362E-092
   110.615625000000        -8.614832346649636E-092
   110.829375000000        -1.173443443315218E-091
   111.043125000000        -1.395434525396885E-091
   111.256875000000        -1.420617092191050E-091
   111.470625000000        -1.125119488806447E-091
   111.684375000000        -3.874521304516753E-092
   111.898125000000         8.811465070165127E-092
   112.111875000000         2.696251858146523E-091
   112.325625000000         4.953408790549760E-091
   112.539375000000         7.382334993894008E-091
   112.753125000000         9.513692667047667E-091
   112.966875000000         1.067364995581703E-090
   113.180625000000         1.002365957699954E-090
   113.394375000000         6.662203297247732E-091
   113.608125000000        -1.998082182036273E-092
   113.821875000000        -1.098903327427369E-090
   114.035625000000        -2.546126239669927E-090
   114.249375000000        -4.237376137044738E-090
   114.463125000000        -5.920448517741023E-090
   114.676875000000        -7.201075840320311E-090
   114.890625000000        -7.553966540943432E-090
   115.104375000000        -6.370667746353121E-090
   115.318125000000        -3.053832073649846E-090
   115.531875000000         2.838017011771995E-090
   115.745625000000         1.140064301869225E-089
   115.959375000000         2.216815588146601E-089
   116.173125000000         3.390661387202749E-089
   116.386875000000         4.447039484040671E-089
   116.600625000000         5.078946981590823E-089
   116.814375000000         4.906297803455863E-089
   117.028125000000         3.522823067197224E-089
   117.241875000000         5.748494309752226E-090
   117.455625000000        -4.128705330769735E-089
   117.669375000000        -1.048335381705856E-088
   117.883125000000        -1.795110969754129E-088
   118.096875000000        -2.544660011090374E-088
   118.310625000000        -3.128642910083143E-088
   118.524375000000        -3.324771210680655E-088
   118.738125000000        -2.878146678448196E-088
   118.951875000000        -1.541568287276491E-088
   119.165625000000         8.641800661041634E-089
   119.379375000000         4.373074002095399E-088
   119.593125000000         8.788127434039751E-088
   119.806875000000         1.360218251407436E-087
   120.020625000000         1.794668935539039E-087
   120.234375000000         2.059501098728765E-087
   120.448125000000         2.004848152191626E-087
   120.661875000000         1.472961094566670E-087
   120.875625000000         3.295428903817630E-088
   121.089375000000        -1.493639336664114E-087
   121.303125000000        -3.948538342470915E-087
   121.516875000000        -6.820327857512842E-087
   121.730625000000        -9.687841398560010E-087
   121.944375000000        -1.190957211831857E-086
   122.158125000000        -1.265173529232356E-086
   122.371875000000        -1.097403412268194E-086
   122.585625000000        -5.983944859961680E-087
   122.799375000000         2.939414060062546E-087
   123.013125000000         1.586579180028872E-086
   123.226875000000         3.201230429004278E-086
   123.440625000000         4.947577113362592E-086
   123.654375000000         6.507591913147878E-086
   123.868125000000         7.440133206731984E-086