  -1.60312500000000         0.000000000000000E+000
  -1.38937500000000         0.000000000000000E+000
  -1.17562500000000         0.000000000000000E+000
 -0.961875000000000         0.000000000000000E+000
 -0.748125000000000         0.000000000000000E+000
 -0.534375000000000         0.000000000000000E+000
 -0.320625000000000         0.000000000000000E+000
 -0.106875000000000         0.000000000000000E+000
  0.106875000000000         0.000000000000000E+000
  0.320625000000000         0.000000000000000E+000
  0.534375000000000         0.000000000000000E+000
  0.748125000000000         0.000000000000000E+000
  0.961875000000000         0.000000000000000E+000
   1.17562500000000         0.000000000000000E+000
   1.38937500000000         0.000000000000000E+000
   1.60312500000000         0.000000000000000E+000
   1.81687500000000         0.000000000000000E+000
   2.03062500000000         0.000000000000000E+000
   2.24437500000000         0.000000000000000E+000
   2.45812500000000         0.000000000000000E+000
   2.67187500000000         0.000000000000000E+000
   2.88562500000000         0.000000000000000E+000
   3.09937500000000         0.000000000000000E+000
   3.31312500000000         0.000000000000000E+000
   3.52687500000000         0.000000000000000E+000
   3.74062500000000         0.000000000000000E+000
   3.95437500000000         0.000000000000000E+000
   4.16812500000000         0.000000000000000E+000
   4.38187500000000         0.000000000000000E+000
   4.59562500000000         0.000000000000000E+000
   4.80937500000000         0.000000000000000E+000
   5.02312500000000         0.000000000000000E+000
   5.23687500000000         0.000000000000000E+000
   5.45062500000000         0.000000000000000E+000
   5.66437500000000         0.000000000000000E+000
   5.87812500000000         0.000000000000000E+000
   6.09187500000000         0.000000000000000E+000
   6.30562500000000         0.000000000000000E+000
   6.51937500000000         0.000000000000000E+000
   6.73312500000000         0.000000000000000E+000
   6.94687500000000         0.000000000000000E+000
   7.16062500000000         0.000000000000000E+000
   7.37437500000000         0.000000000000000E+000
   7.58812500000000         0.000000000000000E+000
   7.80187500000000         0.000000000000000E+000
   8.01562500000000         0.000000000000000E+000
   8.22937500000000         0.000000000000000E+000
   8.44312500000000         0.000000000000000E+000
   8.65687500000000         0.000000000000000E+000
   8.87062500000000         0.000000000000000E+000
   9.08437500000000         0.000000000000000E+000
   9.29812500000000         0.000000000000000E+000
   9.51187500000000         0.000000000000000E+000
   9.72562500000000         0.000000000000000E+000
   9.93937500000000         0.000000000000000E+000
   10.1531250000000         0.000000000000000E+000
   10.3668750000000         0.000000000000000E+000
   10.5806250000000         1.833310319011189E-231
   10.7943750000000        -7.835662903385021E-224
   11.0081250000000         6.788412488147568E-222
   11.2218750000000        -8.157233939486563E-218
   11.4356250000000        -8.288660198746636E-216
   11.6493750000000        -3.818052500597128E-214
   11.8631250000000        -1.073241967712094E-212
   12.0768750000000        -2.029694788981284E-211
   12.2906250000000        -2.550433175402285E-210
   12.5043750000000        -1.534797816221979E-209
   12.7181250000000         1.819297187414631E-208
   12.9318750000000         7.278365022388339E-207
   13.1456250000000         1.342333275455827E-205
   13.3593750000000         1.826386001345594E-204
   13.5731250000000         2.021001136607377E-203
   13.7868750000000         1.878254863805703E-202
   14.0006250000000         1.469614613249034E-201
   14.2143750000000         9.384047801357098E-201
   14.4281250000000         4.319667026648711E-200
   14.6418750000000         4.995716786662973E-200
   14.8556250000000        -1.734910521531591E-198
   15.0693750000000        -2.575686581416973E-197
   15.2831250000000        -2.483889172135914E-196
   15.4968750000000        -1.941872223868862E-195
   15.7106250000000        -1.306843183750334E-194
   15.9243750000000        -7.728683793341247E-194
   16.1381250000000        -4.024427570890169E-193
   16.3518750000000        -1.815549505214131E-192
   16.5656250000000        -6.736815882462275E-192
   16.7793750000000        -1.703043404070642E-191
   16.9931250000000         7.284526893036129E-192
   17.2068750000000         4.559865264447111E-190
   17.4206250000000         3.790690109045128E-189
   17.6343750000000         2.251373575568786E-188
   17.8481250000000         1.101171547639973E-187
   18.0618750000000         4.576584705029438E-187
   18.2756250000000         1.589875597058852E-186
   18.4893750000000         4.199904492633183E-186
   18.7031250000000         4.688986339239641E-186
   18.9168750000000        -3.479543922912836E-185
   19.1306250000000        -3.330878494281411E-184
   19.3443750000000        -1.881965619980506E-183
   19.5581250000000        -8.455384616333571E-183
   19.7718750000000        -3.213814687945006E-182
   19.9856250000000        -1.035756536117130E-181
   20.1993750000000        -2.681122774271011E-181
   20.4131250000000        -4.319819533770075E-181
   20.6268750000000         5.770527560485867E-181
   20.8406250000000         9.129191615531119E-180
   21.0543750000000         5.168193532457140E-179
   21.2681250000000         2.203464353724652E-178
   21.4818750000000         7.877580092417713E-178
   21.6956250000000         2.414136705916818E-177
   21.9093750000000         6.193434395637308E-177
   22.1231250000000         1.186531555651217E-176
   22.3368750000000         7.123317248101369E-177
   22.5506250000000        -7.603812197863272E-176
   22.7643750000000        -5.071236523850251E-175
   22.9781250000000        -2.171471231188056E-174
   23.1918750000000        -7.558927482336169E-174
   23.4056250000000        -2.257338123190368E-173
   23.6193750000000        -5.800211105848119E-173
   23.8331250000000        -1.227753756949240E-172
   24.0468750000000        -1.780202314039913E-172
   24.2606250000000         4.456801717844853E-173
   24.4743750000000         1.611400718675601E-171
   24.6881250000000         7.884124113283891E-171
   24.9018750000000         2.780888225205892E-170
   25.1156250000000         8.142710863702301E-170
   25.3293750000000         2.038514571651538E-169
   25.5431250000000         4.272891302703599E-169
   25.7568750000000         6.706655959070358E-169
   25.9706250000000         3.426944700167927E-169
   26.1843750000000        -2.786286038131191E-168
   26.3981250000000        -1.525989112381888E-167
   26.6118750000000        -5.312803688646983E-167
   26.8256250000000        -1.491131202394330E-166
   27.0393750000000        -3.537043673178922E-166
   27.2531250000000        -6.982167632804434E-166
   27.4668750000000        -1.027092882875099E-165
   27.6806250000000        -4.797641666750406E-166
   27.8943750000000         3.803895092933868E-165
   28.1081250000000         1.936455809726757E-164
   28.3218750000000         6.277358551727035E-164
   28.5356250000000         1.636108088012339E-163
   28.7493750000000         3.581411571168304E-163
   28.9631250000000         6.423378686850790E-163
   29.1768750000000         8.105991865030865E-163
   29.3906250000000         3.321404243298256E-164
   29.6043750000000        -4.055708028584035E-162
   29.8181250000000        -1.695655658156723E-161
   30.0318750000000        -4.926942123607639E-161
   30.2456250000000        -1.168205556562403E-160
   30.4593750000000        -2.317677294909327E-160
   30.6731250000000        -3.668438665329093E-160
   30.8868750000000        -3.563953629381547E-160
   31.1006250000000         3.251323964216289E-160
   31.3143750000000         2.971797818185590E-159
   31.5281250000000         1.022396872092992E-158
   31.7418750000000         2.646147815868072E-158
   31.9556250000000         5.674679857805970E-158
   32.1693750000000         1.010707153895986E-157
   32.3831250000000         1.371166458391486E-157
   32.5968750000000         7.994413282940727E-158
   32.8106250000000        -2.961053083216913E-157
   33.0243750000000        -1.479523843093238E-156
   33.2381250000000        -4.350342891792403E-156
   33.4518750000000        -1.015263822785717E-155
   33.6656250000000        -1.986707082632765E-155
   33.8793750000000        -3.201949909077301E-155
   34.0931250000000        -3.718956197087964E-155
   34.3068750000000        -6.733370450953506E-156
   34.5206250000000         1.264762152185782E-154
   34.7343750000000         4.936125396667403E-154
   34.9481250000000         1.307473578664474E-153
   35.1618750000000         2.827860748411757E-153
   35.3756250000000         5.172204257869171E-153
   35.5893750000000         7.774682221197621E-153
   35.8031250000000         8.180859324318274E-153
   36.0168750000000        -1.998350714109082E-154
   36.2306250000000        -3.157242194139233E-152
   36.4443750000000        -1.117790890003906E-151
   36.6581250000000        -2.798497527735326E-151
   36.8718750000000        -5.791527491930046E-151
   37.0856250000000        -1.021528684257049E-150
   37.2993750000000        -1.495060095627690E-150
   37.5131250000000        -1.572413615327842E-150
   37.7268750000000        -1.729699266000480E-151
   37.9406250000000         4.935351922885391E-150
   38.1543750000000         1.768764524628621E-149
   38.3681250000000         4.392381760645476E-149
   38.5818750000000         9.024479359216966E-149
   38.7956250000000         1.595120544501338E-148
   39.0093750000000         2.395068304061700E-148
   39.2231250000000         2.796104577370051E-148
   39.4368750000000         1.495381096804885E-148
   39.6506250000000        -4.233925872404018E-148
   39.8643750000000        -1.931299131815270E-147
   40.0781250000000        -5.142287877312184E-147
   40.2918750000000        -1.104365191699633E-146
   40.5056250000000        -2.047272009766383E-146
   40.7193750000000        -3.306597775134865E-146
   40.9331250000000        -4.492386571657584E-146
   41.1468750000000        -4.414951592678731E-146
   41.3606250000000        -3.362509431498445E-147
   41.5743750000000         1.311341441333820E-145
   41.7881250000000         4.517227985842857E-145
   42.0018750000000         1.096232029884582E-144
   42.2156250000000         2.230866582024027E-144
   42.4293750000000         3.971046829672166E-144
   42.6431250000000         6.170439533470172E-144
   42.8568750000000         7.967833915198142E-144
   43.0706250000000         6.947385364367206E-144
   43.2843750000000        -2.214760068283327E-144
   43.4981250000000        -2.957566025322801E-143
   43.7118750000000        -9.167531579053301E-143
   43.9256250000000        -2.115281813032330E-142
   44.1393750000000        -4.130331924992319E-142
   44.3531250000000        -7.025328692704177E-142
   44.5668750000000        -1.025697135552040E-141
   44.7806250000000        -1.183821737074990E-141
   44.9943750000000        -6.945080644056997E-142
   45.2081250000000         1.402849420204353E-141
   45.4218750000000         6.749168271557866E-141
   45.6356250000000         1.772333660401258E-140
   45.8493750000000         3.701199002644807E-140
   46.0631250000000         6.605198029232413E-140
   46.2768750000000         1.013381484782087E-139
   46.4906250000000         1.273040248037485E-139
   46.7043750000000         1.046715069484642E-139
   46.9181250000000        -4.540369085338330E-140
   47.1318750000000        -4.571271831530158E-139
   47.3456250000000        -1.323386516557746E-138
   47.5593750000000        -2.860149526217742E-138
   47.7731250000000        -5.185309297093548E-138
   47.9868750000000        -8.042914486958922E-138
   48.2006250000000        -1.029181293430779E-137
   48.4143750000000        -9.104506412759356E-138
   48.6281250000000         1.062136861231748E-138
   48.8418750000000         2.938242589150758E-137
   49.0556250000000         8.858764384031385E-137
   49.2693750000000         1.921742261591263E-136
   49.4831250000000         3.460491788327775E-136
   49.6968750000000         5.307179368797939E-136
   49.9106250000000         6.699998046454985E-136
   50.1243750000000         5.847573372203892E-136
   50.3381250000000        -6.199767851924100E-137
   50.5518750000000        -1.805302144363491E-135
   50.7656250000000        -5.350677914574201E-135
   50.9793750000000        -1.138202118602549E-134
   51.1931250000000        -2.005680244970695E-134
   51.4068750000000        -3.000344380349629E-134
   51.6206250000000        -3.666178325675512E-134
   51.8343750000000        -2.998310061891446E-134
   52.0481250000000         8.040175156097612E-135
   52.2618750000000         1.046591047928446E-133
   52.4756250000000         2.936730464353168E-133
   52.6893750000000         6.040160461177598E-133
   52.9031250000000         1.032882840879548E-132
   53.1168750000000         1.495786588429039E-132
   53.3306250000000         1.748575184865650E-132
   53.5443750000000         1.286429867743297E-132
   53.7581250000000        -7.525069906991160E-133
   53.9718750000000        -5.610430721339353E-132
   54.1856250000000        -1.472987137215370E-131
   54.3993750000000        -2.916326297449145E-131
   54.6131250000000        -4.829720107306930E-131
   54.8268750000000        -6.761369601301659E-131
   55.0406250000000        -7.537416478674928E-131
   55.2543750000000        -4.859576556705245E-131
   55.4681250000000         5.031224680636326E-131
   55.6818750000000         2.731955610745233E-130
   55.8956250000000         6.766203931480690E-130
   56.1093750000000         1.294921717351530E-129
   56.3231250000000         2.085565884303325E-129
   56.5368750000000         2.837563723162179E-129
   56.7506250000000         3.041621295189483E-129
   56.9643750000000         1.741221727266090E-129
   57.1781250000000        -2.576565914132728E-129
   57.3918750000000        -1.192798685113367E-128
   57.6056250000000        -2.840813506062513E-128
   57.8193750000000        -5.309322549121239E-128
   58.0331250000000        -8.391220637622191E-128
   58.2468750000000        -1.121971817035220E-127
   58.4606250000000        -1.179490067935636E-127
   58.6743750000000        -6.462933295203342E-128
   58.8881250000000         1.042815859657704E-127
   59.1018750000000         4.625075691900917E-127
   59.3156250000000         1.084636687895135E-126
   59.5293750000000         2.005947615561027E-126
   59.7431250000000         3.146702761522927E-126
   59.9568750000000         4.192138036065984E-126
   60.1706250000000         4.431113391663493E-126
   60.3843750000000         2.582763874725004E-126
   60.5981250000000        -3.312477686696910E-126
   60.8118750000000        -1.579016638121571E-125
   61.0256250000000        -3.741015700278941E-125
   61.2393750000000        -6.943112507645740E-125
   61.4531250000000        -1.093502589039925E-124
   61.6668750000000        -1.470496698097774E-124
   61.8806250000000        -1.596646081975636E-124
   62.0943750000000        -1.061010662010622E-124
   62.3081250000000         7.645279270190024E-125
   62.5218750000000         4.695797819878003E-124
   62.7356250000000         1.157199957475621E-123
   62.9493750000000         2.186117204427338E-123
   63.1631250000000         3.493064425578888E-123
   63.3768750000000         4.790795462504056E-123
   63.5906250000000         5.416391560601066E-123
   63.8043750000000         4.167643072884358E-123
   64.0181250000000        -8.075925794310036E-124
   64.2318750000000        -1.194703033555979E-122
   64.4456250000000        -3.184215140174979E-122
   64.6593750000000        -6.217993001086450E-122
   64.8731250000000        -1.017728662029069E-121
   65.0868750000000        -1.434687540367353E-121
   65.3006250000000        -1.700018894433948E-121
   65.5143750000000        -1.494222644347536E-121
   65.7281250000000        -3.172268198351481E-122
   65.9418750000000         2.502837875212768E-121
   66.1556250000000         7.710194254104737E-121
   66.3693750000000         1.586627998937914E-120
   66.5831250000000         2.686643554314464E-120
   66.7968750000000         3.917248298945329E-120
   67.0106250000000         4.876678980766362E-120
   67.2243750000000         4.796541050838191E-120
   67.4381250000000         2.445422787973253E-120
   67.6518750000000        -3.875750576260130E-120
   67.8656250000000        -1.613618803036798E-119
   68.0793750000000        -3.602493900162158E-119
   68.2931250000000        -6.387640296721525E-119
   68.5068750000000        -9.692983387105454E-119
   68.7206250000000        -1.269058357733014E-118
   68.9343750000000        -1.371572134278405E-118
   69.1481250000000        -1.001271780454889E-118
   69.3618750000000         2.345097392302841E-119
   69.5756250000000         2.812958145830874E-118
   69.7893750000000         7.190483310011588E-118
   70.0031250000000         1.358707392356346E-117
   70.2168750000000         2.162669811598080E-117
   70.4306250000000         2.982250090826683E-117
   70.6443750000000         3.494701632492961E-117
   70.8581250000000         3.141876383057731E-117
   71.0718750000000         1.097328049712574E-117
   71.2856250000000        -3.693739438240221E-117
   71.4993750000000        -1.233861219989676E-116
   71.7131250000000        -2.560880544274354E-116
   71.9268750000000        -4.326559431649508E-116
   72.1406250000000        -6.306021489571843E-116
   72.3543750000000        -7.945621798877066E-116
   72.5681250000000        -8.228032219386156E-116
   72.7818750000000        -5.575257329326425E-116
   72.9956250000000         2.132925619729114E-116
   73.2093750000000         1.731147866112188E-115
   73.4231250000000         4.205007532691621E-115
   73.6368750000000         7.697114003596832E-115
   73.8506250000000         1.194611222056788E-114
   74.0643750000000         1.612993357419248E-114
   74.2781250000000         1.859591331404678E-114
   74.4918750000000         1.662560522030997E-114
   74.7056250000000         6.356781153666462E-115
   74.9193750000000        -1.695015488261069E-114
   75.1331250000000        -5.805370681429717E-114
   75.3468750000000        -1.200032603341389E-113
   75.5606250000000        -2.013051406219320E-113
   75.7743750000000        -2.919128471407336E-113
   75.9881250000000        -3.683249364568431E-113
   76.2018750000000        -3.886687487492524E-113
   76.4156250000000        -2.895054589739627E-113
   76.6293750000000         1.283882959945588E-114
   76.8431250000000         6.125021478069818E-113
   77.0568750000000         1.591160582549173E-112
   77.2706250000000         2.977304086318812E-112
   77.4843750000000         4.684811291422995E-112
   77.6981250000000         6.432290052533975E-112
   77.9118750000000         7.652608369930050E-112
   78.1256250000000         7.414218145323212E-112
   78.3393750000000         4.392068319688015E-112
   78.5531250000000        -3.055612193626246E-112
   78.7668750000000        -1.663165975688800E-111
   78.9806250000000        -3.758462326880538E-111
   79.1943750000000        -6.586460764891453E-111
   79.4081250000000        -9.892630512691993E-111
   79.6218750000000        -1.302490615840054E-110
   79.8356250000000        -1.477998023176296E-110
   80.0493750000000        -1.328880401124946E-110
   80.2631250000000        -6.014147791431712E-111
   80.4768750000000         1.003735594251010E-110
   80.6906250000000         3.776298433160514E-110
   80.9043750000000         7.894174400049392E-110
   81.1181250000000         1.326458299281443E-109
   81.3318750000000         1.930825312752082E-109
   81.5456250000000         2.470398628757781E-109
   81.7593750000000         2.713869170529939E-109
   81.9731250000000         2.314613198523227E-109
   82.1868750000000         8.163398145567872E-110
   82.4006250000000        -2.301986002586235E-109
   82.6143750000000        -7.521207096463866E-109
   82.8281250000000        -1.509658718266644E-108
   83.0418750000000        -2.477833970164404E-108
   83.2556250000000        -3.544130429738492E-108
   83.4693750000000        -4.465751694308216E-108
   83.6831250000000        -4.829215227054302E-108
   83.8968750000000        -4.026618238811355E-108
   84.1106250000000        -1.270311069174492E-108
   84.3243750000000         4.325029034074537E-108
   84.5381250000000         1.355911478411250E-107
   84.7518750000000         2.682891216700914E-107
   84.9656250000000         4.365694804089494E-107
   85.1793750000000         6.207278494652025E-107
   85.3931250000000         7.790599392020920E-107
   85.6068750000000         8.412574138787890E-107
   85.8206250000000         7.046470583443271E-107
   86.0343750000000         2.368509553061654E-107
   86.2481250000000        -7.103869001975437E-107
   86.4618750000000        -2.270703176231523E-106
   86.6756250000000        -4.510669739510951E-106
   86.8893750000000        -7.352115803923125E-106
   87.1031250000000        -1.047061501644994E-105
   87.3168750000000        -1.317981887898856E-105
   87.5306250000000        -1.432382670612105E-105
   87.7443750000000        -1.221640965289421E-105
   87.9581250000000        -4.685222993555226E-106
   88.1718750000000         1.070231277566801E-105
   88.3856250000000         3.614319793777347E-105
   88.5993750000000         7.274962827171760E-105
   88.8131250000000         1.192965760103065E-104
   89.0268750000000         1.705935815599604E-104
   89.2406250000000         2.156428103970495E-104
   89.4543750000000         2.359461794973341E-104
   89.6681250000000         2.045873737516453E-104
   89.8818750000000         8.701412266335911E-105
   90.0956250000000        -1.552762353336958E-104
   90.3093750000000        -5.567902692579149E-104
   90.5231250000000        -1.134591355523803E-103
   90.7368750000000        -1.868696254705439E-103
   90.9506250000000        -2.676926071584345E-103
   91.1643750000000        -3.386964582175053E-103
   91.3781250000000        -3.711488540731171E-103
   91.5918750000000        -3.236198122912624E-103
   91.8056250000000        -1.434923209381906E-103
   92.0193750000000         2.270255262892853E-103
   92.2331250000000         8.384341356053882E-103
   92.4468750000000         1.713352905694579E-102
   92.6606250000000         2.817143807888228E-102
   92.8743750000000         4.021102925288555E-102
   93.0881250000000         5.062838466345026E-102
   93.3018750000000         5.513014905159558E-102
   93.5156250000000         4.763215625834458E-102
   93.7293750000000         2.055448807878537E-102
   93.9431250000000        -3.421727219545865E-102
   94.1568750000000        -1.234470074328504E-101
   94.3706250000000        -2.495420170928861E-101
   94.5843750000000        -4.063938317679714E-101
   94.7981250000000        -5.743387978259440E-101
   95.0118750000000        -7.149785620173272E-101
   95.2256250000000        -7.672229619277341E-101
   95.4393750000000        -6.466381279866678E-101
   95.6531250000000        -2.508709410136492E-101
   95.8668750000000         5.256440355160788E-101
   96.0806250000000         1.764627345964644E-100
   96.2943750000000         3.482593491544161E-100
   96.5081250000000         5.575755494804631E-100
   96.7218750000000         7.756061554616948E-100
   96.9356250000000         9.489439303155776E-100
   97.1493750000000         9.955148744601984E-100
   97.3631250000000         8.053611752800379E-100
   97.5768750000000         2.497304658162363E-100
   97.7906250000000        -7.977684824851537E-100
   98.0043750000000        -2.424701160194056E-099
   98.2181250000000        -4.626594945286337E-099
   98.4318750000000        -7.239084544943843E-099
   98.6456250000000        -9.863113592426315E-099
   98.8593750000000        -1.179849798428797E-098
   99.0731250000000        -1.201016298629044E-098
   99.2868750000000        -9.160321217381117E-099
   99.5006250000000        -1.746270051193326E-099
   99.7143750000000         1.161624726072141E-098
   99.9281250000000         3.173457544299168E-098
   100.141875000000         5.820197390389969E-098
   100.355625000000         8.862373830280010E-098
   100.569375000000         1.178156267591299E-097
   100.783125000000         1.371691900124583E-097
   100.996875000000         1.344729303914883E-097
   101.210625000000         9.456211502084641E-098
   101.424375000000         1.213690414180271E-099
   101.638125000000        -1.593339123588827E-097
   101.851875000000        -3.930197205313564E-097
   102.065625000000        -6.908767892132850E-097
   102.279375000000        -1.020882889877892E-096
   102.493125000000        -1.320139738889991E-096
   102.706875000000        -1.489656869192806E-096
   102.920625000000        -1.394908265636945E-096
   103.134375000000        -8.760047789789872E-097
   103.348125000000         2.285423527974566E-097
   103.561875000000         2.041306032538431E-096
   103.775625000000         4.587706344752605E-096
   103.989375000000         7.723011222334440E-096
   104.203125000000         1.105334999575725E-095
   104.416875000000         1.386697870120133E-095
   104.630625000000         1.510031945954511E-095
   104.844375000000         1.337080891787744E-095
   105.058125000000         7.112886417827167E-096
   105.271875000000        -5.148702728484508E-096
   105.485625000000        -2.436642512448885E-095
   105.699375000000        -5.038243503471493E-095
   105.913125000000        -8.123217380797770E-095
   106.126875000000        -1.124430893625230E-094
   106.340625000000        -1.365017040893858E-094
   106.554375000000        -1.427327467917877E-094
   106.768125000000        -1.178887970672376E-094
   106.981875000000        -4.776391004301269E-095
   107.195625000000         7.990928670190150E-095
   107.409375000000         2.711731009145387E-094
   107.623125000000         5.203411564878423E-094
   107.836875000000         8.038623699291201E-094
   108.050625000000         1.074666082032239E-093
   108.264375000000         1.258688900299472E-093
   108.478125000000         1.255819673075524E-093
   108.691875000000         9.478187734357855E-094
   108.905625000000         2.156572727316265E-094
   109.119375000000        -1.032060206457067E-093
   109.333125000000        -2.819602280381381E-093
   109.546875000000        -5.056274625994129E-093
   109.760625000000        -7.486692678509190E-093
   109.974375000000        -9.650058634938042E-093
   110.188125000000        -1.086385500348976E-092
   110.401875000000        -1.025089918673179E-092
   110.615625000000        -6.829791024234837E-093
   110.829375000000         3.143209703459518E-094
   111.043125000000         1.177081299473718E-092
   111.256875000000         2.746512511681700E-092
   111.470625000000         4.627370271089533E-092
   111.684375000000         6.565626376985292E-092
   111.898125000000         8.140350431133338E-092
   112.111875000000         8.762942940075345E-092
   112.325625000000         7.715614954941710E-092
   112.539375000000         4.243338456363086E-092
   112.753125000000        -2.290790816519165E-092
   112.966875000000        -1.218601002912623E-091
   113.180625000000        -2.513414509326226E-091
   113.394375000000        -3.993371811331459E-091
   113.608125000000        -5.424569286505468E-091
   113.821875000000        -6.447253865427238E-091
   114.035625000000        -6.586077991484704E-091
   114.249375000000        -5.293278074733887E-091
   114.463125000000        -2.033743184365408E-091
   114.676875000000         3.583700134019780E-091
   114.890625000000         1.163278073873012E-090
   115.104375000000         2.167019355180612E-090
   115.318125000000         3.254137188414758E-090
   115.531875000000         4.223973567587990E-090
   115.745625000000         4.788244115560443E-090
   115.959375000000         4.587433138526095E-090
   116.173125000000         3.232868368039649E-090
   116.386875000000         3.792569722369609E-091
   116.600625000000        -4.171889131846358E-090
   116.814375000000        -1.034440104999812E-089
   117.028125000000        -1.765088008268997E-089
   117.241875000000        -2.507387594346317E-089
   117.455625000000        -3.100192802080503E-089
   117.669375000000        -3.326556937693112E-089
   117.883125000000        -2.932042041213514E-089
   118.096875000000        -1.661681589302694E-089
   118.310625000000         6.825551363138763E-090
   118.524375000000         4.165618334233651E-089
   118.738125000000         8.631635139716525E-089
   118.951875000000         1.361816635239828E-088
   119.165625000000         1.829301779416255E-088
   119.379375000000         2.144021313159844E-088
   119.593125000000         2.152500639698066E-088
   119.806875000000         1.686605534327962E-088
   120.020625000000         5.933780730120885E-089
   120.234375000000        -1.222437575583746E-088
   120.448125000000        -3.745939486635378E-088
   120.661875000000        -6.796166479450625E-088
   120.875625000000        -9.977484285624055E-088
   121.089375000000        -1.265308559138422E-087
   121.303125000000        -1.395835702977258E-087
   121.516875000000        -1.287234721077678E-087
   121.730625000000        -8.362200967214953E-088
   121.944375000000         3.930696127138752E-089
   122.158125000000         1.370751882670302E-087
   122.371875000000         3.105015161367838E-087
   122.585625000000         5.071650779832992E-087
   122.799375000000         6.958825720267795E-087
   123.013125000000         8.308056520074219E-087
   123.226875000000         8.538737988820925E-087
   123.440625000000         7.012604470346042E-087
   123.654375000000         3.144675447344488E-087
   123.868125000000        -3.439673818026668E-087