  -1.60312500000000         0.000000000000000E+000
  -1.38937500000000         0.000000000000000E+000
  -1.17562500000000         0.000000000000000E+000
 -0.961875000000000         0.000000000000000E+000
 -0.748125000000000         0.000000000000000E+000
 -0.534375000000000         0.000000000000000E+000
 -0.320625000000000         0.000000000000000E+000
 -0.106875000000000         0.000000000000000E+000
  0.106875000000000         0.000000000000000E+000
  0.320625000000000         0.000000000000000E+000
  0.534375000000000         0.000000000000000E+000
  0.748125000000000         0.000000000000000E+000
  0.961875000000000         0.000000000000000E+000
   1.17562500000000         0.000000000000000E+000
   1.38937500000000         0.000000000000000E+000
   1.60312500000000         0.000000000000000E+000
   1.81687500000000         0.000000000000000E+000
   2.03062500000000         0.000000000000000E+000
   2.24437500000000         0.000000000000000E+000
   2.45812500000000         0.000000000000000E+000
   2.67187500000000         0.000000000000000E+000
   2.88562500000000         0.000000000000000E+000
   3.09937500000000         0.000000000000000E+000
   3.31312500000000         0.000000000000000E+000
   3.52687500000000         0.000000000000000E+000
   3.74062500000000         0.000000000000000E+000
   3.95437500000000         0.000000000000000E+000
   4.16812500000000         0.000000000000000E+000
   4.38187500000000         0.000000000000000E+000
   4.59562500000000         0.000000000000000E+000
   4.80937500000000         0.000000000000000E+000
   5.02312500000000         0.000000000000000E+000
   5.23687500000000         0.000000000000000E+000
   5.45062500000000         0.000000000000000E+000
   5.66437500000000         0.000000000000000E+000
   5.87812500000000         0.000000000000000E+000
   6.09187500000000         0.000000000000000E+000
   6.30562500000000         0.000000000000000E+000
   6.51937500000000         0.000000000000000E+000
   6.73312500000000         0.000000000000000E+000
   6.94687500000000         0.000000000000000E+000
   7.16062500000000         0.000000000000000E+000
   7.37437500000000         0.000000000000000E+000
   7.58812500000000         0.000000000000000E+000
   7.80187500000000         0.000000000000000E+000
   8.01562500000000         0.000000000000000E+000
   8.22937500000000         0.000000000000000E+000
   8.44312500000000         0.000000000000000E+000
   8.65687500000000         0.000000000000000E+000
   8.87062500000000         0.000000000000000E+000
   9.08437500000000         0.000000000000000E+000
   9.29812500000000         0.000000000000000E+000
   9.51187500000000         0.000000000000000E+000
   9.72562500000000         0.000000000000000E+000
   9.93937500000000         0.000000000000000E+000
   10.1531250000000         0.000000000000000E+000
   10.3668750000000         0.000000000000000E+000
   10.5806250000000        -4.772871833072062E-231
   10.7943750000000         3.241913158673429E-224
   11.0081250000000        -2.412910618614135E-222
   11.2218750000000         4.443345775886714E-218
   11.4356250000000         4.333349976603809E-216
   11.6493750000000         2.060911571325658E-214
   11.8631250000000         6.375198324978906E-213
   12.0768750000000         1.432556282317467E-211
   12.2906250000000         2.456111777504405E-210
   12.5043750000000         3.249107062708950E-209
   12.7181250000000         3.192190191507654E-208
   12.9318750000000         1.899878165679091E-207
   13.1456250000000        -4.309889375745725E-207
   13.3593750000000        -3.022793478169790E-205
   13.5731250000000        -4.911759134535516E-204
   13.7868750000000        -5.464010285999939E-203
   14.0006250000000        -4.662650727184976E-202
   14.2143750000000        -3.017649576679023E-201
   14.4281250000000        -1.225323088013455E-200
   14.6418750000000         1.718693587194006E-200
   14.8556250000000         9.482909497446530E-199
   15.0693750000000         1.161998407338783E-197
   15.2831250000000         1.017146754337478E-196
   15.4968750000000         7.280988465095061E-196
   15.7106250000000         4.430952218035259E-195
   15.9243750000000         2.302182385313843E-194
   16.1381250000000         9.929836142801888E-194
   16.3518750000000         3.192653281249613E-193
   16.5656250000000         3.742786505189582E-193
   16.7793750000000        -4.634438104056899E-192
   16.9931250000000        -5.065073032605508E-191
   17.2068750000000        -3.377906324960559E-190
   17.4206250000000        -1.784735027528172E-189
   17.6343750000000        -7.883506950872025E-189
   17.8481250000000        -2.890571054794123E-188
   18.0618750000000        -8.096090631781106E-188
   18.2756250000000        -1.061632927083613E-187
   18.4893750000000         6.032838335094444E-187
   18.7031250000000         6.313123496548990E-186
   18.9168750000000         3.669935935615068E-185
   19.1306250000000         1.664867113506000E-184
   19.3443750000000         6.270002079155688E-184
   19.5581250000000         1.936610327444566E-183
   19.7718750000000         4.372023912310558E-183
   19.9856250000000         2.664164236671464E-183
   20.1993750000000        -4.208701553319186E-182
   20.4131250000000        -3.176822684937012E-181
   20.6268750000000        -1.553201436584759E-180
   20.8406250000000        -6.116012745686654E-180
   21.0543750000000        -2.026603326666680E-179
   21.2681250000000        -5.551019135201943E-179
   21.4818750000000        -1.115745214168995E-178
   21.6956250000000        -5.818687122163658E-179
   21.9093750000000         8.923471391042230E-178
   22.1231250000000         6.082120299120596E-177
   22.3368750000000         2.717468196862155E-176
   22.5506250000000         9.880787598507972E-176
   22.7643750000000         3.069469459751739E-175
   22.9781250000000         8.119893968936732E-175
   23.1918750000000         1.720143514363995E-174
   23.4056250000000         2.174755844349245E-174
   23.6193750000000        -3.453069302079447E-174
   23.8331250000000        -3.829213315672088E-173
   24.0468750000000        -1.789442953274709E-172
   24.2606250000000        -6.412670363920688E-172
   24.4743750000000        -1.941278785062096E-171
   24.6881250000000        -5.059230055838676E-171
   24.9018750000000        -1.106258820663576E-170
   25.1156250000000        -1.802485507186610E-170
   25.3293750000000        -8.534251929135539E-171
   25.5431250000000         8.960747308094222E-170
   25.7568750000000         5.071286087008445E-169
   25.9706250000000         1.863654688981178E-168
   26.1843750000000         5.569973255802792E-168
   26.3981250000000         1.421252159578910E-167
   26.6118750000000         3.075929045786178E-167
   26.8256250000000         5.246150090287706E-167
   27.0393750000000         4.785411131359541E-167
   27.2531250000000        -1.104442865234793E-166
   27.4668750000000        -8.101819756336822E-166
   27.6806250000000        -3.036754901886663E-165
   27.8943750000000        -8.910816492358765E-165
   28.1081250000000        -2.211970105603882E-164
   28.3218750000000        -4.676737478948600E-164
   28.5356250000000        -8.000172733563454E-164
   28.7493750000000        -8.664247106508624E-164
   28.9631250000000         6.923077445583040E-164
   29.1768750000000         7.789690425309431E-163
   29.3906250000000         2.980918002097136E-162
   29.6043750000000         8.577756116390226E-162
   29.8181250000000         2.068017024414724E-161
   30.0318750000000         4.251228527354884E-161
   30.2456250000000         7.173036473267413E-161
   30.4593750000000         8.271447714051510E-161
   30.6731250000000        -1.741465765822240E-161
   30.8868750000000        -4.806214769366902E-160
   31.1006250000000        -1.876555805432732E-159
   31.3143750000000        -5.293306822877125E-159
   31.5281250000000        -1.239886651305821E-158
   31.7418750000000        -2.477146333038877E-158
   31.9556250000000        -4.102427146889502E-158
   32.1693750000000        -4.867105453604986E-158
   32.3831250000000        -5.489325568790040E-159
   32.5968750000000         1.964090052119303E-157
   32.8106250000000         7.871967712088649E-157
   33.0243750000000         2.181001629657263E-156
   33.2381250000000         4.970445893622422E-156
   33.4518750000000         9.650937081724457E-156
   33.6656250000000         1.561900758063270E-155
   33.8793750000000         1.858881782303116E-155
   34.0931250000000         5.113279630333023E-156
   34.3068750000000        -5.719686490949920E-155
   34.5206250000000        -2.337322663296648E-154
   34.7343750000000        -6.357289828439276E-154
   34.9481250000000        -1.412346717059861E-153
   35.1618750000000        -2.673115080288235E-153
   35.3756250000000        -4.240629731786657E-153
   35.5893750000000        -5.061121452483064E-153
   35.8031250000000        -2.034413920984525E-153
   36.0168750000000         1.194486321373646E-152
   36.2306250000000         5.060172688919113E-152
   36.4443750000000         1.363477390794214E-151
   36.6581250000000         2.981153348748531E-151
   36.8718750000000         5.564968267825738E-151
   37.0856250000000         8.799801124819791E-151
   37.2993750000000         1.086072607223638E-150
   37.5131250000000         6.534734677997638E-151
   37.7268750000000        -1.580712610521713E-150
   37.9406250000000        -7.812972211401690E-150
   38.1543750000000        -2.158125785977764E-149
   38.3681250000000        -4.749192080206314E-149
   38.5818750000000        -8.927126592030871E-149
   38.7956250000000        -1.441064608203109E-148
   39.0093750000000        -1.900394816683302E-148
   39.2231250000000        -1.622056472648269E-148
   39.4368750000000         8.569097746707413E-149
   39.6506250000000         8.332186325377947E-148
   39.8643750000000         2.542152175166739E-147
   40.0781250000000         5.853428881307495E-147
   40.2918750000000         1.142103082744845E-146
   40.5056250000000         1.936984470528065E-146
   40.7193750000000         2.802215522939188E-146
   40.9331250000000         3.138519887930243E-146
   41.1468750000000         1.483382993381506E-146
   41.3606250000000        -5.129451659069849E-146
   41.5743750000000        -2.193534819709959E-145
   41.7881250000000        -5.696156262160682E-145
   42.0018750000000        -1.203508672437118E-144
   42.2156250000000        -2.204644807731615E-144
   42.4293750000000        -3.530615173998430E-144
   42.6431250000000        -4.776298865485932E-144
   42.8568750000000        -4.728827899328211E-144
   43.0706250000000        -6.364169340287548E-145
   43.2843750000000         1.281426531473134E-143
   43.4981250000000         4.458319945377125E-143
   43.7118750000000         1.076482959794739E-142
   43.9256250000000         2.168168491995972E-142
   44.1393750000000         3.803274116374668E-142
   44.3531250000000         5.790194297153097E-142
   44.5668750000000         7.240558028985676E-142
   44.7806250000000         5.830778056298064E-142
   44.9943750000000        -3.302552236341659E-142
   45.2081250000000        -2.888463286758111E-141
   45.4218750000000        -8.440309746217647E-141
   45.6356250000000        -1.869755941679648E-140
   45.8493750000000        -3.509311735851903E-140
   46.0631250000000        -5.705317891884994E-140
   46.2768750000000        -7.837831518511385E-140
   46.4906250000000        -8.083429112384289E-140
   46.7043750000000        -2.449332457256088E-140
   46.9181250000000         1.639589927992128E-139
   47.1318750000000         5.997409636726161E-139
   47.3456250000000         1.432433091923943E-138
   47.5593750000000         2.797055184847868E-138
   47.7731250000000         4.681770793780874E-138
   47.9868750000000         6.654129968197299E-138
   48.2006250000000         7.385600324087522E-138
   48.4143750000000         3.953583598774899E-138
   48.6281250000000        -8.971334954413217E-138
   48.8418750000000        -3.965941154937857E-137
   49.0556250000000        -9.866498081979895E-137
   49.2693750000000        -1.952742895049810E-136
   49.4831250000000        -3.283717796049764E-136
   49.6968750000000        -4.682419760833767E-136
   49.9106250000000        -5.261160295417749E-136
   50.1243750000000        -3.113706434847958E-136
   50.3381250000000         5.150729720152209E-136
   50.5518750000000         2.464834717513158E-135
   50.7656250000000         6.167035662514379E-135
   50.9793750000000         1.213416970698254E-134
   51.1931250000000         2.020009694400563E-134
   51.4068750000000         2.845130055885137E-134
   51.6206250000000         3.151364574528022E-134
   51.8343750000000         1.826143571994639E-134
   52.0481250000000        -3.047983318064662E-134
   52.2618750000000        -1.426978627883018E-133
   52.4756250000000        -3.513298484878677E-133
   52.6893750000000        -6.805881225892791E-133
   52.9031250000000        -1.115172832767593E-132
   53.1168750000000        -1.544248743981176E-132
   53.3306250000000        -1.675188305900004E-132
   53.5443750000000        -9.235252365111992E-133
   53.7581250000000         1.688616929158019E-132
   53.9718750000000         7.546565111874260E-132
   54.1856250000000         1.821896789284155E-131
   54.3993750000000         3.475418934015207E-131
   54.6131250000000         5.617270982769557E-131
   54.8268750000000         7.681869932490295E-131
   55.0406250000000         8.241092466529624E-131
   55.2543750000000         4.518534540435600E-131
   55.4681250000000        -8.030683968442682E-131
   55.6818750000000        -3.571475279462800E-130
   55.8956250000000        -8.551536391240049E-130
   56.1093750000000        -1.618913525009881E-129
   56.3231250000000        -2.601480462292296E-129
   56.5368750000000        -3.550623902515848E-129
   56.7506250000000        -3.842716680310160E-129
   56.9643750000000        -2.282706287407757E-129
   57.1781250000000         3.063769793867601E-129
   57.3918750000000         1.485977796556671E-128
   57.6056250000000         3.604658348028615E-128
   57.8193750000000         6.855663371978632E-128
   58.0331250000000         1.106853786485789E-127
   58.2468750000000         1.526368958794027E-127
   58.4606250000000         1.700793747589315E-127
   58.6743750000000         1.164243465115178E-127
   58.8881250000000        -8.371031269915244E-128
   59.1018750000000        -5.345026689201836E-127
   59.3156250000000        -1.352966471642039E-126
   59.5293750000000        -2.622883211477426E-126
   59.7431250000000        -4.300779081992131E-126
   59.9568750000000        -6.056828028791712E-126
   60.1706250000000        -7.044504611947872E-126
   60.3843750000000        -5.622300272997529E-126
   60.5981250000000         8.911727926885826E-127
   60.8118750000000         1.625222140842503E-125
   61.0256250000000         4.480758689942850E-125
   61.2393750000000         9.002712204010985E-125
   61.4531250000000         1.514681045329660E-124
   61.6668750000000         2.196001408888588E-124
   61.8806250000000         2.682465461614922E-124
   62.0943750000000         2.452876976674943E-124
   62.3081250000000         6.402047550654008E-125
   62.5218750000000        -3.995704433726545E-124
   62.7356250000000        -1.294368968805765E-123
   62.9493750000000        -2.752602387599498E-123
   63.1631250000000        -4.801495547259521E-123
   63.3768750000000        -7.210300178477290E-123
   63.5906250000000        -9.263475442937071E-123
   63.8043750000000        -9.474926365276467E-123
   64.0181250000000        -5.306038973498481E-123
   64.2318750000000         6.971162927995136E-123
   64.4456250000000         3.201386115051153E-122
   64.6593750000000         7.436935305489309E-122
   64.8731250000000         1.361627248142000E-121
   65.0868750000000         2.129971978090908E-121
   65.3006250000000         2.877496924311061E-121
   65.5143750000000         3.225321519768302E-121
   65.7281250000000         2.502757780165774E-121
   65.9418750000000        -3.063609249693334E-122
   66.1556250000000        -6.524631355571002E-121
   66.3693750000000        -1.755354705612870E-120
   66.5831250000000        -3.433114123011419E-120
   66.7968750000000        -5.633815289184900E-120
   67.0106250000000        -8.005470946700237E-120
   67.2243750000000        -9.689781427419600E-120
   67.4381250000000        -9.093653308807532E-120
   67.6518750000000        -3.713117834945906E-120
   67.8656250000000         9.850894497232366E-120
   68.0793750000000         3.546594870323068E-119
   68.2931250000000         7.633499584855080E-119
   68.5068750000000         1.328234875582635E-118
   68.7206250000000         1.989756914406012E-118
   68.9343750000000         2.576981576878446E-118
   69.1481250000000         2.751294796003537E-118
   69.3618750000000         1.956493657026843E-118
   69.5756250000000        -5.964554815207812E-119
   69.7893750000000        -5.864393598992723E-118
   70.0031250000000        -1.476339721703212E-117
   70.2168750000000        -2.774222148948868E-117
   70.4306250000000        -4.407043501153923E-117
   70.6443750000000        -6.081633185935840E-117
   70.8581250000000        -7.158852384912688E-117
   71.0718750000000        -6.529141087155664E-117
   71.2856250000000        -2.541104530210946E-117
   71.4993750000000         6.930573228802870E-117
   71.7131250000000         2.415418590169167E-116
   71.9268750000000         5.079495651085731E-116
   72.1406250000000         8.660313882310700E-116
   72.3543750000000         1.274471733924795E-115
   72.5681250000000         1.627637618607601E-115
   72.7818750000000         1.727979356146856E-115
   72.9956250000000         1.264768843259041E-115
   73.2093750000000        -1.860404667416306E-116
   73.4231250000000        -3.118794720104118E-115
   73.6368750000000        -7.983581016574260E-115
   73.8506250000000        -1.496961658223798E-114
   74.0643750000000        -2.366319498888067E-114
   74.2781250000000        -3.257980750638510E-114
   74.4918750000000        -3.861631040518392E-114
   74.7056250000000        -3.654460110546290E-114
   74.9193750000000        -1.877458332646696E-114
   75.1331250000000         2.425715435757485E-114
   75.3468750000000         1.025901652461852E-113
   75.5606250000000         2.235752430740431E-113
   75.7743750000000         3.865317054147448E-113
   75.9881250000000         5.749952555782175E-113
   76.2018750000000         7.469545060035910E-113
   76.4156250000000         8.245696579768237E-113
   76.6293750000000         6.864884123535522E-113
   76.8431250000000         1.679569269167184E-113
   77.0568750000000        -9.238172015048509E-113
   77.2706250000000        -2.769767877894031E-112
   77.4843750000000        -5.464895298068494E-112
   77.6981250000000        -8.902953153681812E-112
   77.9118750000000        -1.262022530296163E-111
   78.1256250000000        -1.561285251029851E-111
   78.3393750000000        -1.616452194914544E-111
   78.5531250000000        -1.175198869190060E-111
   78.7668750000000         8.677105356417477E-113
   78.9806250000000         2.524912426275436E-111
   79.1943750000000         6.436824536727052E-111
   79.4081250000000         1.191001664086193E-110
   79.6218750000000         1.859837996469613E-110
   79.8356250000000         2.543509015878172E-110
   80.0493750000000         3.031712952585742E-110
   80.2631250000000         2.983735244933795E-110
   80.4768750000000         1.919284485608921E-110
   80.6906250000000        -7.542741289298236E-111
   80.9043750000000        -5.654327295310115E-110
   81.1181250000000        -1.324884320687707E-109
   81.3318750000000        -2.357333211348164E-109
   81.5456250000000        -3.583094095571188E-109
   81.7593750000000        -4.789693857388475E-109
   81.9731250000000        -5.579705798727879E-109
   82.1868750000000        -5.329800883790396E-109
   82.4006250000000        -3.183484552709933E-109
   82.6143750000000         1.890726714801787E-109
   82.8281250000000         1.093624257071670E-108
   83.0418750000000         2.469858266407560E-108
   83.2556250000000         4.313503611686582E-108
   83.4693750000000         6.473522778996903E-108
   83.6831250000000         8.569346470455741E-108
   83.8968750000000         9.905345831311172E-108
   84.1106250000000         9.405826543507459E-108
   84.3243750000000         5.607762963220155E-108
   84.5381250000000        -3.236670768967584E-108
   84.7518750000000        -1.888358149015305E-107
   84.9656250000000        -4.257912264493589E-107
   85.1793750000000        -7.424527835648982E-107
   85.3931250000000        -1.113564323134651E-106
   85.6068750000000        -1.475736010870764E-106
   85.8206250000000        -1.713322579663907E-106
   86.0343750000000        -1.647615269145279E-106
   86.2481250000000        -1.035388034196991E-106
   86.4618750000000         4.147414000041518E-107
   86.6756250000000         2.997677797416382E-106
   86.8893750000000         6.927862823160914E-106
   87.1031250000000         1.220697766802566E-105
   87.3168750000000         1.844095794857549E-105
   87.5306250000000         2.461687318483107E-105
   87.7443750000000         2.887110235180383E-105
   87.9581250000000         2.830968501194878E-105
   88.1718750000000         1.897833615460235E-105
   88.3856250000000        -3.881373690483462E-106
   88.5993750000000        -4.512130634600487E-105
   88.8131250000000        -1.083440256659695E-104
   89.0268750000000        -1.937863189606570E-104
   89.2406250000000        -2.953954617177086E-104
   89.4543750000000        -3.972748045046863E-104
   89.6681250000000        -4.700111053716933E-104
   89.8818750000000        -4.678641220390937E-104
   90.0956250000000        -3.283716698350926E-104
   90.3093750000000         2.348171661733950E-105
   90.5231250000000         6.639256863639307E-104
   90.7368750000000         1.649216247139185E-103
   90.9506250000000         2.982582378224553E-103
   91.1643750000000         4.569100365930072E-103
   91.3781250000000         6.161667336179835E-103
   91.5918750000000         7.306492037079095E-103
   91.8056250000000         7.303628400101733E-103
   92.0193750000000         5.206478380049929E-103
   92.2331250000000        -1.075338045359249E-104
   92.4468750000000        -9.757309337241134E-103
   92.6606250000000        -2.453253993351217E-102
   92.8743750000000        -4.439783158180841E-102
   93.0881250000000        -6.783173436755971E-102
   93.3018750000000        -9.105814859167896E-102
   93.5156250000000        -1.073051853541058E-101
   93.7293750000000        -1.063272735118873E-101
   93.9431250000000        -7.453925247954782E-102
   94.1568750000000         3.786741717642595E-103
   94.3706250000000         1.437578929032002E-101
   94.5843750000000         3.550776599103217E-101
   94.7981250000000         6.350108673637109E-101
   95.0118750000000         9.593262849253165E-101
   95.2256250000000         1.272203682389521E-100
   95.4393750000000         1.477159353570178E-100
   95.6531250000000         1.432355048587171E-100
   95.8668750000000         9.550240948747400E-101
   96.0806250000000        -1.591706673681908E-101
   96.2943750000000        -2.095768570776127E-100
   96.5081250000000        -4.955307021797800E-100
   96.7218750000000        -8.660028220435527E-100
   96.9356250000000        -1.283888607356242E-099
   97.1493750000000        -1.670640717765010E-099
   97.3631250000000        -1.896444227491282E-099
   97.5768750000000        -1.777135464608557E-099
   97.7906250000000        -1.083790615966299E-099
   98.0043750000000         4.281680003749633E-100
   98.2181250000000         2.963792524530736E-099
   98.4318750000000         6.603125004187196E-099
   98.6456250000000         1.118638284104145E-098
   98.8593750000000         1.617955763006534E-098
   99.0731250000000         2.054268688459473E-098
   99.2868750000000         2.263861048873882E-098
   99.5006250000000         2.023654992846882E-098
   99.7143750000000         1.067853107375970E-098
   99.9281250000000        -8.718271361958737E-099
   100.141875000000        -3.996132281709429E-098
   100.355625000000        -8.335858016196788E-098
   100.569375000000        -1.362128496375106E-097
   100.783125000000        -1.913828995319000E-097
   100.996875000000        -2.360005082064219E-097
   101.210625000000        -2.507955383180724E-097
   101.424375000000        -2.106377466662943E-097
   101.638125000000        -8.700807096618425E-098
   101.851875000000         1.469008024274388E-097
   102.065625000000         5.079624054204786E-097
   102.279375000000         9.917625554344559E-097
   102.493125000000         1.558920162379316E-096
   102.706875000000         2.121056006800213E-096
   102.920625000000         2.529830277702777E-096
   103.134375000000         2.574008910814722E-096
   103.348125000000         1.990808139833227E-096
   103.561875000000         4.982997167134807E-097
   103.775625000000        -2.145212867613595E-096
   103.989375000000        -6.051930444050550E-096
   104.203125000000        -1.108824630647294E-095
   104.416875000000        -1.674309511082797E-095
   104.630625000000        -2.200442594165102E-095
   104.844375000000        -2.528078038724065E-095
   105.058125000000        -2.441791909360989E-095
   105.271875000000        -1.686915389994532E-095
   105.485625000000        -7.749162720441878E-098
   105.699375000000         2.788802512695805E-095
   105.913125000000         6.743613931469992E-095
   106.126875000000         1.163537608655127E-094
   106.340625000000         1.686472169134932E-094
   106.554375000000         2.135768329729256E-094
   106.768125000000         2.352513371080603E-094
   106.981875000000         2.132434703762938E-094
   107.195625000000         1.247278607713767E-094
   107.409375000000        -5.141833767677380E-095
   107.623125000000        -3.283205402129708E-094
   107.836875000000        -7.027847994027829E-094
   108.050625000000        -1.145724221760186E-093
   108.264375000000        -1.592906258486772E-093
   108.478125000000        -1.938499335618357E-093
   108.691875000000        -2.034754929593532E-093
   108.905625000000        -1.701728269673270E-093
   109.119375000000        -7.508977516662465E-094
   109.333125000000         9.744751805371357E-094
   109.546875000000         3.541745357958016E-093
   109.760625000000         6.857440824445322E-093
   109.974375000000         1.059082557150026E-092
   110.188125000000         1.410792624928616E-092
   110.401875000000         1.643833991504175E-092
   110.615625000000         1.630272621630869E-092
   110.829375000000         1.223107638244465E-092
   111.043125000000         2.798073466396203E-093
   111.256875000000        -1.301053897420386E-092
   111.470625000000        -3.530981772617244E-092
   111.684375000000        -6.274966194254558E-092
   111.898125000000        -9.195973861931522E-092
   112.111875000000        -1.171439395130114E-091
   112.325625000000        -1.300092184404479E-091
   112.539375000000        -1.202428369859366E-091
   112.753125000000        -7.674725903822934E-092
   112.966875000000         1.021548879653122E-092
   113.180625000000         1.459451426247364E-091
   113.394375000000         3.274719573421672E-091
   113.608125000000         5.394377543431635E-091
   113.821875000000         7.504906463272082E-091
   114.035625000000         9.113356755029657E-091
   114.249375000000         9.558505837815540E-091
   114.463125000000         8.067637488986965E-091
   114.676875000000         3.871771716607374E-091
   114.890625000000        -3.614198097128562E-091
   115.104375000000        -1.455150440498523E-090
   115.318125000000        -2.839950908114052E-090
   115.531875000000        -4.364278100207074E-090
   115.745625000000        -5.758938955673180E-090
   115.959375000000        -6.632715119718067E-090
   116.173125000000        -6.493649024184912E-090
   116.386875000000        -4.805421528289327E-090
   116.600625000000        -1.085383383130724E-090
   116.814375000000         4.955178022788777E-090
   117.028125000000         1.323738089856535E-089
   117.241875000000         2.312912860727808E-089
   117.455625000000         3.328351963178997E-089
   117.669375000000         4.155154389728565E-089
   117.883125000000         4.502982208520931E-089
   118.096875000000         4.030640654397976E-089
   118.310625000000         2.395667797395435E-089
   118.524375000000        -6.687526741968131E-090
   118.738125000000        -5.252229942218951E-089
   118.951875000000        -1.115070544499896E-088
   119.165625000000        -1.775350904603290E-088
   119.379375000000        -2.396147687655197E-088
   119.593125000000        -2.817142819308242E-088
   119.806875000000        -2.836616647369481E-088
   120.020625000000        -2.234619508408768E-088
   120.234375000000        -8.126549578215414E-089
   120.448125000000         1.550276336952058E-088
   120.661875000000         4.829203957010584E-088
   120.875625000000         8.781113692166358E-088
   121.089375000000         1.288358848447297E-087
   121.303125000000         1.630363346672652E-087
   121.516875000000         1.791962829785207E-087
   121.730625000000         1.641947927145367E-087
   121.944375000000         1.049304633356631E-087
   122.158125000000        -8.747584529421850E-089
   122.371875000000        -1.802302248449495E-087
   122.585625000000        -4.018521982513120E-087
   122.799375000000        -6.508142547280089E-087
   123.013125000000        -8.863464039343481E-087
   123.226875000000        -1.049389237823149E-086
   123.440625000000        -1.066170854564272E-086
   123.654375000000        -8.569023113494023E-087
   123.868125000000        -3.503079944902246E-087