  -1.60312500000000         0.000000000000000E+000
  -1.38937500000000         0.000000000000000E+000
  -1.17562500000000         0.000000000000000E+000
 -0.961875000000000         0.000000000000000E+000
 -0.748125000000000         0.000000000000000E+000
 -0.534375000000000         0.000000000000000E+000
 -0.320625000000000         0.000000000000000E+000
 -0.106875000000000         0.000000000000000E+000
  0.106875000000000         0.000000000000000E+000
  0.320625000000000         0.000000000000000E+000
  0.534375000000000         0.000000000000000E+000
  0.748125000000000         0.000000000000000E+000
  0.961875000000000         0.000000000000000E+000
   1.17562500000000         0.000000000000000E+000
   1.38937500000000         0.000000000000000E+000
   1.60312500000000         0.000000000000000E+000
   1.81687500000000         0.000000000000000E+000
   2.03062500000000         0.000000000000000E+000
   2.24437500000000         0.000000000000000E+000
   2.45812500000000         0.000000000000000E+000
   2.67187500000000         0.000000000000000E+000
   2.88562500000000         0.000000000000000E+000
   3.09937500000000         0.000000000000000E+000
   3.31312500000000         0.000000000000000E+000
   3.52687500000000         0.000000000000000E+000
   3.74062500000000         0.000000000000000E+000
   3.95437500000000         0.000000000000000E+000
   4.16812500000000         0.000000000000000E+000
   4.38187500000000         0.000000000000000E+000
   4.59562500000000         0.000000000000000E+000
   4.80937500000000         0.000000000000000E+000
   5.02312500000000         0.000000000000000E+000
   5.23687500000000         0.000000000000000E+000
   5.45062500000000         0.000000000000000E+000
   5.66437500000000         0.000000000000000E+000
   5.87812500000000         0.000000000000000E+000
   6.09187500000000         0.000000000000000E+000
   6.30562500000000         0.000000000000000E+000
   6.51937500000000         0.000000000000000E+000
   6.73312500000000         0.000000000000000E+000
   6.94687500000000         0.000000000000000E+000
   7.16062500000000         0.000000000000000E+000
   7.37437500000000         0.000000000000000E+000
   7.58812500000000         0.000000000000000E+000
   7.80187500000000         0.000000000000000E+000
   8.01562500000000         0.000000000000000E+000
   8.22937500000000         0.000000000000000E+000
   8.44312500000000         0.000000000000000E+000
   8.65687500000000         0.000000000000000E+000
   8.87062500000000         0.000000000000000E+000
   9.08437500000000         0.000000000000000E+000
   9.29812500000000         0.000000000000000E+000
   9.51187500000000         0.000000000000000E+000
   9.72562500000000         0.000000000000000E+000
   9.93937500000000         0.000000000000000E+000
   10.1531250000000         0.000000000000000E+000
   10.3668750000000        -1.414485329858356E-230
   10.5806250000000         6.846525728610206E-225
   10.7943750000000        -2.962394201648939E-223
   11.0081250000000         5.065112067773266E-219
   11.2218750000000         1.096563898400240E-216
   11.4356250000000         8.174209575306245E-215
   11.6493750000000         2.944808873270266E-213
   11.8631250000000         5.682606345909901E-212
   12.0768750000000         3.716153826322673E-211
   12.2906250000000        -1.215556023174434E-209
   12.5043750000000        -4.840329085340890E-208
   12.7181250000000        -1.009173607032772E-206
   12.9318750000000        -1.539802462898480E-205
   13.1456250000000        -1.882884165343449E-204
   13.3593750000000        -1.918283255386316E-203
   13.5731250000000        -1.654909346810472E-202
   13.7868750000000        -1.206352123784417E-201
   14.0006250000000        -7.198736729888310E-201
   14.2143750000000        -3.111845025129944E-200
   14.4281250000000        -3.511366659825778E-200
   14.6418750000000         1.088074634018090E-198
   14.8556250000000         1.532633755811121E-197
   15.0693750000000         1.395586385877226E-196
   15.2831250000000         1.023102121352172E-195
   15.4968750000000         6.357722798890409E-195
   15.7106250000000         3.359353919227674E-194
   15.9243750000000         1.449199677778324E-193
   16.1381250000000         4.315903545815042E-193
   16.3518750000000        -4.931138267566408E-194
   16.5656250000000        -1.310394342526524E-191
   16.7793750000000        -1.258252260095990E-190
   16.9931250000000        -8.453491889121768E-190
   17.2068750000000        -4.651003426072884E-189
   17.4206250000000        -2.175511602999183E-188
   17.6343750000000        -8.587861721156063E-188
   17.8481250000000        -2.681227129892048E-187
   18.0618750000000        -4.855955931611495E-187
   18.2756250000000         1.256397613114432E-186
   18.4893750000000         1.901432553639021E-185
   18.7031250000000         1.257076972055980E-184
   18.9168750000000         6.342875164409964E-184
   19.1306250000000         2.681268614234046E-183
   19.3443750000000         9.661725949161818E-183
   19.5581250000000         2.883876048666482E-182
   19.7718750000000         6.252083288651152E-182
   19.9856250000000         2.763842922713807E-182
   20.1993750000000        -6.594234526364268E-181
   20.4131250000000        -4.765466957837775E-180
   20.6268750000000        -2.293510219282609E-179
   20.8406250000000        -8.965552463637686E-179
   21.0543750000000        -2.969533288375689E-178
   21.2681250000000        -8.223660305962804E-178
   21.4818750000000        -1.731268486799875E-177
   21.6956250000000        -1.499011184713635E-177
   21.9093750000000         9.670033162241356E-177
   22.1231250000000         7.392691367859123E-176
   22.3368750000000         3.390374510723124E-175
   22.5506250000000         1.245462484584012E-174
   22.7643750000000         3.897797864217257E-174
   22.9781250000000         1.043886630050997E-173
   23.1918750000000         2.285367681162569E-173
   23.4056250000000         3.339738763597899E-173
   23.6193750000000        -1.614955708433608E-173
   23.8331250000000        -3.701672205795358E-172
   24.0468750000000        -1.838707650417857E-171
   24.2606250000000        -6.689123744678977E-171
   24.4743750000000        -2.028515051976666E-170
   24.6881250000000        -5.268714134209278E-170
   24.9018750000000        -1.146911703930362E-169
   25.1156250000000        -1.870431468404310E-169
   25.3293750000000        -9.859741995820758E-170
   25.5431250000000         8.491506529495758E-169
   25.7568750000000         4.853947039448637E-168
   25.9706250000000         1.773143899920420E-167
   26.1843750000000         5.255824060982905E-167
   26.3981250000000         1.331703894489454E-166
   26.6118750000000         2.877195789401364E-166
   26.8256250000000         4.984683821363797E-166
   27.0393750000000         5.153780593542315E-166
   27.2531250000000        -6.779955686688199E-166
   27.4668750000000        -6.144662351553656E-165
   27.6806250000000        -2.356571637801770E-164
   27.8943750000000        -6.926400158086080E-164
   28.1081250000000        -1.714432377344239E-163
   28.3218750000000        -3.624101519338794E-163
   28.5356250000000        -6.287789973326375E-163
   28.7493750000000        -7.438622642760007E-163
   28.9631250000000         1.724798938698101E-163
   29.1768750000000         4.620254081419190E-162
   29.3906250000000         1.848066008743833E-161
   29.6043750000000         5.342756591717299E-161
   29.8181250000000         1.281384987187439E-160
   30.0318750000000         2.616738070574099E-160
   30.2456250000000         4.415599666746257E-160
   30.4593750000000         5.287565983123327E-160
   30.6731250000000         3.167198131236920E-161
   30.8868750000000        -2.343747030884680E-159
   31.1006250000000        -9.425966499161529E-159
   31.3143750000000        -2.641098186730888E-158
   31.5281250000000        -6.086849254419153E-158
   31.7418750000000        -1.192116526583398E-157
   31.9556250000000        -1.934181521670697E-157
   32.1693750000000        -2.261790669789394E-157
   32.3831250000000        -3.625484633684801E-158
   32.5968750000000         8.151142149894629E-157
   32.8106250000000         3.214219796880497E-156
   33.0243750000000         8.657712195089080E-156
   33.2381250000000         1.909936164604960E-155
   33.4518750000000         3.577305687154374E-155
   33.6656250000000         5.557984043232620E-155
   33.8793750000000         6.271183316229640E-155
   34.0931250000000         1.257593041057493E-155
   34.3068750000000        -1.937393000446861E-154
   34.5206250000000        -7.400232730812074E-154
   34.7343750000000        -1.909243794822391E-153
   34.9481250000000        -4.024864541663344E-153
   35.1618750000000        -7.201287968352134E-153
   35.3756250000000        -1.070139992818544E-152
   35.5893750000000        -1.162447315568686E-152
   35.8031250000000        -2.678085491462904E-153
   36.0168750000000         3.087300588455287E-152
   36.2306250000000         1.139925462371220E-151
   36.4443750000000         2.811889295850621E-151
   36.6581250000000         5.655350492514463E-151
   36.8718750000000         9.656383544170241E-151
   37.0856250000000         1.374360141625172E-150
   37.2993750000000         1.453958238322432E-150
   37.5131250000000         4.579590878953584E-151
   37.7268750000000        -2.955305701464444E-150
   37.9406250000000        -1.078380437820789E-149
   38.1543750000000        -2.534737343525659E-149
   38.3681250000000        -4.813698776622392E-149
   38.5818750000000        -7.737308510516106E-149
   38.7956250000000        -1.040718022361561E-148
   39.0093750000000        -1.073766188482909E-148
   39.2231250000000        -5.193040800247502E-149
   39.4368750000000         1.068373873769404E-148
   39.6506250000000         4.005714768203008E-148
   39.8643750000000         8.006322248852461E-148
   40.0781250000000         1.149130607957055E-147
   40.2918750000000         1.108570533420657E-147
   40.5056250000000         2.488911565620454E-148
   40.7193750000000        -1.475048156286646E-147
   40.9331250000000        -2.423148937925105E-147
   41.1468750000000         3.433523995171962E-147
   41.3606250000000         3.110423443052109E-146
   41.5743750000000         1.107523862560440E-145
   41.7881250000000         2.928525936061774E-145
   42.0018750000000         6.446726071178111E-145
   42.2156250000000         1.220916769621962E-144
   42.4293750000000         1.975713546776781E-144
   42.6431250000000         2.560803525834499E-144
   42.8568750000000         1.929347496828167E-144
   43.0706250000000        -2.349880914489220E-144
   43.2843750000000        -1.513043592439963E-143
   43.4981250000000        -4.497895860682202E-143
   43.7118750000000        -1.051652788876192E-142
   43.9256250000000        -2.127586216513324E-142
   44.1393750000000        -3.821474503533081E-142
   44.3531250000000        -6.055617807091761E-142
   44.5668750000000        -8.073232662698392E-142
   44.7806250000000        -7.510783128381508E-142
   44.9943750000000         1.264285389430407E-142
   45.2081250000000         2.975383695341619E-141
   45.4218750000000         9.866345576907274E-141
   45.6356250000000         2.405750795595184E-140
   45.8493750000000         4.978685032114590E-140
   46.0631250000000         9.066545933306627E-140
   46.2768750000000         1.449056651923054E-139
   46.4906250000000         1.944841038961183E-139
   46.7043750000000         1.843041588542799E-139
   46.9181250000000        -1.235487830498352E-140
   47.1318750000000        -6.417673545608470E-139
   47.3456250000000        -2.118154523781451E-138
   47.5593750000000        -5.031241208164147E-138
   47.7731250000000        -1.001856083034186E-137
   47.9868750000000        -1.732384248231222E-137
   48.2006250000000        -2.575402588661004E-137
   48.4143750000000        -3.065444534800544E-137
   48.6281250000000        -2.055269748549016E-137
   48.8418750000000         2.750097924635421E-137
   49.0556250000000         1.527637488663487E-136
   49.2693750000000         4.122873559796125E-136
   49.4831250000000         8.712916194886505E-136
   49.6968750000000         1.568220189088114E-135
   49.9106250000000         2.432466309118472E-135
   50.1243750000000         3.126905830643817E-135
   50.3381250000000         2.791510343853911E-135
   50.5518750000000        -3.062188268205313E-136
   50.7656250000000        -9.128796052634260E-135
   50.9793750000000        -2.798682078509928E-134
   51.1931250000000        -6.189313075472064E-134
   51.4068750000000        -1.142299670904501E-133
   51.6206250000000        -1.813523308894628E-133
   51.8343750000000        -2.424625621456788E-133
   52.0481250000000        -2.434560354008860E-133
   52.2618750000000        -7.533126459108582E-134
   52.4756250000000         4.474930727862115E-133
   52.6893750000000         1.594359628302010E-132
   52.9031250000000         3.681298181735782E-132
   53.1168750000000         6.939037253482842E-132
   53.3306250000000         1.121299009448494E-131
   53.5443750000000         1.541018292142334E-131
   53.7581250000000         1.663166515580113E-131
   53.9718750000000         9.030632321900410E-132
   54.1856250000000        -1.732216345842297E-131
   54.3993750000000        -7.683133268629940E-131
   54.6131250000000        -1.865758945642242E-130
   54.8268750000000        -3.599058302907957E-130
   55.0406250000000        -5.920471220870440E-130
   55.2543750000000        -8.338849927046914E-130
   55.4681250000000        -9.512996732550971E-130
   55.6818750000000        -6.720957463433286E-130
   55.8956250000000         4.667850550958224E-130
   56.1093750000000         3.139653218541201E-129
   56.3231250000000         8.157914759319761E-129
   56.5368750000000         1.620020835842036E-128
   56.7506250000000         2.720697972191355E-128
   56.9643750000000         3.928416014946183E-128
   57.1781250000000         4.701172739130650E-128
   57.3918750000000         3.923962490150086E-128
   57.6056250000000        -3.131414553146882E-129
   57.8193750000000        -1.081444452246448E-127
   58.0331250000000        -3.101894388291058E-127
   58.2468750000000        -6.400093530027236E-127
   58.4606250000000        -1.102103950092821E-126
   58.6743750000000        -1.633793714471561E-126
   58.8881250000000        -2.042064879105362E-126
   59.1018750000000        -1.920933122317675E-126
   59.3156250000000        -5.665428036754433E-127
   59.5293750000000         3.067241209769448E-126
   59.7431250000000         1.029167931450827E-125
   59.9568750000000         2.235500842152470E-125
   60.1706250000000         3.968722722234952E-125
   60.3843750000000         6.052375488787068E-125
   60.5981250000000         7.877305500225166E-125
   60.8118750000000         8.120346008475275E-125
   61.0256250000000         4.448052934211852E-125
   61.2393750000000        -6.661631733176663E-125
   61.4531250000000        -2.972829056265793E-124
   61.6668750000000        -6.930826518656978E-124
   61.8806250000000        -1.277206312782038E-123
   62.0943750000000        -2.008578238762744E-123
   62.3081250000000        -2.716456096728146E-123
   62.5218750000000        -3.013196415823607E-123
   62.7356250000000        -2.199902857193572E-123
   62.9493750000000         7.976426799528871E-124
   63.1631250000000         7.391804746262219E-123
   63.3768750000000         1.908176746058683E-122
   63.5906250000000         3.683453852406510E-122
   63.8043750000000         5.992681118577146E-122
   64.0181250000000         8.411806292007034E-122
   64.2318750000000         9.918182429466247E-122
   64.4456250000000         8.616177973449755E-122
   64.6593750000000         1.530862253132174E-122
   64.8731250000000        -1.534771681188369E-121
   65.0868750000000        -4.647856319187220E-121
   65.3006250000000        -9.524486980845593E-121
   65.5143750000000        -1.610416436857754E-120
   65.7281250000000        -2.346203320724451E-120
   65.9418750000000        -2.917038966771382E-120
   66.1556250000000        -2.856924432105704E-120
   66.3693750000000        -1.416792557983162E-120
   66.5831250000000         2.439391212641312E-120
   66.7968750000000         9.913912006461873E-120
   67.0106250000000         2.203570196232506E-119
   67.2243750000000         3.899389551672847E-119
   67.4381250000000         5.905471470627181E-119
   67.6518750000000         7.705059868889265E-119
   67.8656250000000         8.260512585761749E-119
   68.0793750000000         5.856152502353113E-119
   68.2931250000000        -1.946774215378062E-119
   68.5068750000000        -1.809467067300336E-118
   68.7206250000000        -4.536021412918870E-118
   68.9343750000000        -8.495573651501404E-118
   69.1481250000000        -1.342319088223530E-117
   69.3618750000000        -1.834039146841199E-117
   69.5756250000000        -2.115916783517450E-117
   69.7893750000000        -1.830659606075804E-117
   70.0031250000000        -4.549221171023382E-118
   70.2168750000000         2.668920888502425E-117
   70.4306250000000         8.210495614570938E-117
   70.6443750000000         1.658971551978166E-116
   70.8581250000000         2.753050305871682E-116
   71.0718750000000         3.941097524120764E-116
   71.2856250000000         4.845284417842366E-116
   71.4993750000000         4.790292395763076E-116
   71.7131250000000         2.752520647124439E-116
   71.9268750000000        -2.606467120698428E-116
   72.1406250000000        -1.274639753094736E-115
   72.3543750000000        -2.880227048769340E-115
   72.5681250000000        -5.079593570849721E-115
   72.7818750000000        -7.645520250437861E-115
   72.9956250000000        -9.969052545742530E-115
   73.2093750000000        -1.089623379469005E-114
   73.4231250000000        -8.605191717135579E-115
   73.6368750000000        -6.116241764479610E-116
   73.8506250000000         1.596884410775939E-114
   74.0643750000000         4.374040447390178E-114
   74.2781250000000         8.376313407651378E-114
   74.4918750000000         1.335918352862640E-113
   74.7056250000000         1.846497622111065E-113
   74.9193750000000         2.192460436025199E-113
   75.1331250000000         2.079792613349901E-113
   75.3468750000000         1.088541097026633E-113
   75.5606250000000        -1.298930707400725E-113
   75.7743750000000        -5.606705297143914E-113
   75.9881250000000        -1.218285116764483E-112
   76.2018750000000        -2.090297021310762E-112
   76.4156250000000        -3.075568772653621E-112
   76.6293750000000        -3.934378105394032E-112
   76.8431250000000        -4.239601880334092E-112
   77.0568750000000        -3.347034879354946E-112
   77.2706250000000        -4.131602562226319E-113
   77.4843750000000         5.501323602169502E-112
   77.6981250000000         1.519784001306348E-111
   77.9118750000000         2.893520569354844E-111
   78.1256250000000         4.583332991327148E-111
   78.3393750000000         6.311064718762047E-111
   78.5531250000000         7.525926454873062E-111
   78.7668750000000         7.337657329937647E-111
   78.9806250000000         4.501718599732519E-111
   79.1943750000000        -2.491614609919411E-111
   79.4081250000000        -1.516012683552721E-110
   79.6218750000000        -3.453806432251170E-110
   79.8356250000000        -6.040070855875765E-110
   80.0493750000000        -9.020355880581449E-110
   80.2631250000000        -1.178244100114931E-109
   80.4768750000000        -1.323363367753679E-109
   80.6906250000000        -1.172281333446757E-109
   80.9043750000000        -5.070908912509699E-110
   81.1181250000000         9.205396694766133E-110
   81.3318750000000         3.337902224335680E-109
   81.5456250000000         6.861528476337217E-109
   81.7593750000000         1.136397284383959E-108
   81.9731250000000         1.630067854704123E-108
   82.1868750000000         2.051567194737305E-108
   82.4006250000000         2.206710103323679E-108
   82.6143750000000         1.814231316889894E-108
   82.8281250000000         5.164116123945640E-109
   83.0418750000000        -2.078157303016432E-108
   83.2556250000000        -6.305244179065349E-108
   83.4693750000000        -1.229631364377710E-107
   83.6831250000000        -1.976450692911175E-107
   83.8968750000000        -2.773336452867789E-107
   84.1106250000000        -3.423988412310607E-107
   84.3243750000000        -3.607739974273710E-107
   84.5381250000000        -2.868696060293149E-107
   84.7518750000000        -6.353749095920049E-108
   84.9656250000000         3.709217336484614E-107
   85.1793750000000         1.068503118714000E-106
   85.3931250000000         2.048032849761243E-106
   85.6068750000000         3.261545188631677E-106
   85.8206250000000         4.551684812022011E-106
   86.0343750000000         5.604907168988192E-106
   86.2481250000000         5.910491394870962E-106
   86.4618750000000         4.742165975379960E-106
   86.6756250000000         1.186827697935190E-106
   86.8893750000000        -5.748055263413437E-106
   87.1031250000000        -1.691278227409016E-105
   87.3168750000000        -3.264691681390208E-105
   87.5306250000000        -5.224643386188406E-105
   87.7443750000000        -7.328214746623135E-105
   87.9581250000000        -9.084202789816539E-105
   88.1718750000000        -9.685453666467776E-105
   88.3856250000000        -7.976081967732329E-105
   88.5993750000000        -2.493010415318986E-105
   88.8131250000000         8.366928211121248E-105
   89.0268750000000         2.599639711903066E-104
   89.2406250000000         5.099041272878793E-104
   89.4543750000000         8.229455060032385E-104
   89.6681250000000         1.161152231914893E-103
   89.8818750000000         1.447125962022083E-103
   90.0956250000000         1.553346941719254E-103
   90.3093750000000         1.297294019190002E-103
   90.5231250000000         4.486971685029826E-104
   90.7368750000000        -1.242960799042744E-103
   90.9506250000000        -3.991762840977507E-103
   91.1643750000000        -7.881755452529512E-103
   91.3781250000000        -1.273321264175181E-102
   91.5918750000000        -1.793486512381771E-102
   91.8056250000000        -2.226349107584590E-102
   92.0193750000000        -2.373393173445550E-102
   92.2331250000000        -1.954939606921754E-102
   92.4468750000000        -6.250025794788385E-103
   92.6606250000000         1.982029736995464E-102
   92.8743750000000         6.160467927379564E-102
   93.0881250000000         1.198866856494541E-101
   93.3018750000000         1.912936443437992E-101
   93.5156250000000         2.658894574141360E-101
   93.7293750000000         3.247317707844848E-101
   93.9431250000000         3.380827407585370E-101
   94.1568750000000         2.653264587671878E-101
   94.3706250000000         5.799084780094650E-102
   94.5843750000000        -3.325200661974852E-101
   94.7981250000000        -9.409767426993242E-101
   95.0118750000000        -1.767271789743023E-100
   95.2256250000000        -2.748751286572083E-100
   95.4393750000000        -3.728728197420368E-100
   95.6531250000000        -4.427286180154982E-100
   95.8668750000000        -4.424600868301751E-100
   96.0806250000000        -3.171360269907407E-100
   96.2943750000000        -4.437102827639062E-102
   96.5081250000000         5.533580373958209E-100
   96.7218750000000         1.389430567075483E-099
   96.9356250000000         2.484097921837185E-099
   97.1493750000000         3.729754835736361E-099
   97.3631250000000         4.893899960632369E-099
   97.5768750000000         5.589271995835256E-099
   97.7906250000000         5.264922213791895E-099
   98.0043750000000         3.236533375228167E-099
   98.2181250000000        -1.223055902927889E-099
   98.4318750000000        -8.713463306496047E-099
   98.6456250000000        -1.944466366277065E-098
   98.8593750000000        -3.288825011828855E-098
   99.0731250000000        -4.737509075077370E-098
   99.2868750000000        -5.971166004720747E-098
   99.5006250000000        -6.493508983631775E-098
   99.7143750000000        -5.637612148295499E-098
   99.9281250000000        -2.623695577243310E-098
   100.141875000000         3.310118144371624E-098
   100.355625000000         1.268718215696663E-097
   100.569375000000         2.547747764334761E-097
   100.783125000000         4.070686489252235E-097
   100.996875000000         5.604256663176767E-097
   101.210625000000         6.745054520392245E-097
   101.424375000000         6.906862356528194E-097
   101.638125000000         5.348217111433215E-097
   101.851875000000         1.261158357101955E-097
   102.065625000000        -6.059778129299365E-097
   102.279375000000        -1.695755121631507E-096
   102.493125000000        -3.106776821459878E-096
   102.706875000000        -4.692217642099848E-096
   102.920625000000        -6.157035335704790E-096
   103.134375000000        -7.033262431875543E-096
   103.348125000000        -6.683975621285712E-096
   103.561875000000        -4.354506443689707E-096
   103.775625000000         7.104196578573320E-097
   103.989375000000         9.069668991893766E-096
   104.203125000000         2.080647831596416E-095
   104.416875000000         3.518471784125812E-095
   104.630625000000         5.028708943485900E-095
   104.844375000000         6.271744953672355E-095
   105.058125000000         6.748740804540653E-095
   105.271875000000         5.823906835424444E-095
   105.485625000000         2.796884796616053E-095
   105.699375000000        -2.960386818348800E-095
   105.913125000000        -1.179518039361707E-094
   106.126875000000        -2.350051149856423E-094
   106.340625000000        -3.700439366166823E-094
   106.554375000000        -5.007706110819242E-094
   106.768125000000        -5.914254399249626E-094
   106.981875000000        -5.931001071923068E-094
   107.195625000000        -4.475841718052623E-094
   107.409375000000        -9.603631962306777E-095
   107.623125000000         5.066283657913738E-094
   107.836875000000         1.371624835881371E-093
   108.050625000000         2.451888685919724E-093
   108.264375000000         3.616788384442300E-093
   108.478125000000         4.631748990664070E-093
   108.691875000000         5.150976385770736E-093
   108.905625000000         4.733308536724763E-093
   109.119375000000         2.891685057555881E-093
   109.333125000000        -8.151476800709863E-094
   109.546875000000        -6.645263903152013E-093
   109.760625000000        -1.449632100067465E-092
   109.974375000000        -2.370771973914352E-092
   110.188125000000        -3.287833584318008E-092
   110.401875000000        -3.975425521356528E-092
   110.615625000000        -4.125683676770078E-092
   110.829375000000        -3.372958331765380E-092
   111.043125000000        -1.347604094415748E-092
   111.256875000000         2.236685013893426E-092
   111.470625000000         7.463092437835735E-092
   111.684375000000         1.406913078065235E-091
   111.898125000000         2.130235038646298E-091
   112.111875000000         2.780827670276516E-091
   112.325625000000         3.159689550407621E-091
   112.539375000000         3.014238024656700E-091
   112.753125000000         2.067078153622402E-091
   112.966875000000         6.771711865987162E-093
   113.180625000000        -3.131728637800664E-091
   113.394375000000        -7.480953016929618E-091
   113.608125000000        -1.262730782202315E-090
   113.821875000000        -1.782300937017221E-090
   114.035625000000        -2.187246918102861E-090
   114.249375000000        -2.315554253958564E-090
   114.463125000000        -1.976498566868644E-090
   114.676875000000        -9.791181503309646E-091
   114.890625000000         8.228926510516975E-091
   115.104375000000         3.471111217192389E-090
   115.318125000000         6.832688314189593E-090
   115.531875000000         1.053201316038158E-089
   115.745625000000         1.390063615807893E-089
   115.959375000000         1.596757644728982E-089
   116.173125000000         1.551508310878690E-089
   116.386875000000         1.122358829522381E-089
   116.600625000000         1.921915000899911E-090
   116.814375000000        -1.305694166116850E-089
   117.028125000000        -3.343872422438413E-089
   117.241875000000        -5.754631177412993E-089
   117.455625000000        -8.190763438549141E-089
   117.669375000000        -1.010628989131161E-088
   117.883125000000        -1.077260419146702E-088
   118.096875000000        -9.345807049358295E-089
   118.310625000000        -4.997743437256806E-089
   118.524375000000         2.884686486484143E-089
   118.738125000000         1.444071064705078E-088
   118.951875000000         2.904468837604507E-088
   119.165625000000         4.503255029575381E-088
   119.379375000000         5.951815674771009E-088
   119.593125000000         6.839050557902068E-088
   119.806875000000         6.659010534198286E-088
   120.020625000000         4.875150787213253E-088
   120.234375000000         1.026156549135701E-088
   120.448125000000        -5.128586809438417E-088
   120.661875000000        -1.343592228182289E-087
   120.875625000000        -2.317302744745842E-087
   121.089375000000        -3.290730046794769E-087
   121.303125000000        -4.044294291501920E-087
   121.516875000000        -4.291234786216499E-087
   121.730625000000        -3.706812724771875E-087
   121.944375000000        -1.981541909443250E-087
   122.158125000000         1.100959975480049E-087
   122.371875000000         5.566179094722850E-087
   122.585625000000         1.114261721930331E-086
   122.799375000000         1.716701102526922E-086
   123.013125000000         2.252812493818000E-086
   123.226875000000         2.568186136588715E-086
   123.440625000000         2.477135697300629E-086
   123.654375000000         1.787954765535758E-086
   123.868125000000         3.426122746460928E-087