  -1.60312500000000         0.000000000000000E+000
  -1.38937500000000         0.000000000000000E+000
  -1.17562500000000         0.000000000000000E+000
 -0.961875000000000         0.000000000000000E+000
 -0.748125000000000         0.000000000000000E+000
 -0.534375000000000         0.000000000000000E+000
 -0.320625000000000         0.000000000000000E+000
 -0.106875000000000         0.000000000000000E+000
  0.106875000000000         0.000000000000000E+000
  0.320625000000000         0.000000000000000E+000
  0.534375000000000         0.000000000000000E+000
  0.748125000000000         0.000000000000000E+000
  0.961875000000000         0.000000000000000E+000
   1.17562500000000         0.000000000000000E+000
   1.38937500000000         0.000000000000000E+000
   1.60312500000000         0.000000000000000E+000
   1.81687500000000         0.000000000000000E+000
   2.03062500000000         0.000000000000000E+000
   2.24437500000000         0.000000000000000E+000
   2.45812500000000         0.000000000000000E+000
   2.67187500000000         0.000000000000000E+000
   2.88562500000000         0.000000000000000E+000
   3.09937500000000         0.000000000000000E+000
   3.31312500000000         0.000000000000000E+000
   3.52687500000000         0.000000000000000E+000
   3.74062500000000         0.000000000000000E+000
   3.95437500000000         0.000000000000000E+000
   4.16812500000000         0.000000000000000E+000
   4.38187500000000         0.000000000000000E+000
   4.59562500000000         0.000000000000000E+000
   4.80937500000000         0.000000000000000E+000
   5.02312500000000         0.000000000000000E+000
   5.23687500000000         0.000000000000000E+000
   5.45062500000000         0.000000000000000E+000
   5.66437500000000         0.000000000000000E+000
   5.87812500000000         0.000000000000000E+000
   6.09187500000000         0.000000000000000E+000
   6.30562500000000         0.000000000000000E+000
   6.51937500000000         0.000000000000000E+000
   6.73312500000000         0.000000000000000E+000
   6.94687500000000         0.000000000000000E+000
   7.16062500000000         0.000000000000000E+000
   7.37437500000000         0.000000000000000E+000
   7.58812500000000         0.000000000000000E+000
   7.80187500000000         0.000000000000000E+000
   8.01562500000000         0.000000000000000E+000
   8.22937500000000         0.000000000000000E+000
   8.44312500000000         0.000000000000000E+000
   8.65687500000000         0.000000000000000E+000
   8.87062500000000         0.000000000000000E+000
   9.08437500000000         0.000000000000000E+000
   9.29812500000000         0.000000000000000E+000
   9.51187500000000         0.000000000000000E+000
   9.72562500000000         0.000000000000000E+000
   9.93937500000000         0.000000000000000E+000
   10.1531250000000         0.000000000000000E+000
   10.3668750000000         4.012580295363227E-230
   10.5806250000000        -1.714997603649032E-222
   10.7943750000000         1.520084976146880E-220
   11.0081250000000        -1.785678893640485E-216
   11.2218750000000        -1.778436301148534E-214
   11.4356250000000        -7.995556967307318E-213
   11.6493750000000        -2.183695022676436E-211
   11.8631250000000        -3.980962507032098E-210
   12.0768750000000        -4.717160999491181E-209
   12.2906250000000        -2.287217272254897E-208
   12.5043750000000         4.597932861732509E-207
   12.7181250000000         1.510023893955626E-205
   12.9318750000000         2.623352738295899E-204
   13.1456250000000         3.425760183362960E-203
   13.3593750000000         3.653275374369558E-202
   13.5731250000000         3.266248889430998E-201
   13.7868750000000         2.438600380241917E-200
   14.0006250000000         1.451691870727179E-199
   14.2143750000000         5.668356464311772E-199
   14.4281250000000        -5.920919227657030E-199
   14.6418750000000        -3.921350294719581E-197
   14.8556250000000        -4.867048345156988E-196
   15.0693750000000        -4.346994340424113E-195
   15.2831250000000        -3.219263374589596E-194
   15.4968750000000        -2.064624614912861E-193
   15.7106250000000        -1.162025298336438E-192
   15.9243750000000        -5.711159274929211E-192
   16.1381250000000        -2.381206287543128E-191
   16.3518750000000        -7.678335770454981E-191
   16.5656250000000        -1.175850736923305E-190
   16.7793750000000         7.574806134835161E-190
   16.9931250000000         9.288591522707048E-189
   17.2068750000000         6.316613703878786E-188
   17.4206250000000         3.368058178922432E-187
   17.6343750000000         1.507589991842505E-186
   17.8481250000000         5.689280595999034E-186
   18.0618750000000         1.717425939341525E-185
   18.2756250000000         3.234497904215969E-185
   18.4893750000000        -4.642133002768169E-185
   18.7031250000000        -8.749032093835253E-184
   18.9168750000000        -5.664550123580338E-183
   19.1306250000000        -2.737165728347681E-182
   19.3443750000000        -1.099725175100869E-181
   19.5581250000000        -3.744735026411063E-181
   19.7718750000000        -1.045211739005291E-180
   19.9856250000000        -2.037667485147572E-180
   20.1993750000000         1.459753886352004E-182
   20.4131250000000         2.567144785199961E-179
   20.6268750000000         1.650964965642913E-178
   20.8406250000000         7.441738348112913E-178
   21.0543750000000         2.760217641560353E-177
   21.2681250000000         8.727407655200024E-177
   21.4818750000000         2.317769428527323E-176
   21.6956250000000         4.712110240925699E-176
   21.9093750000000         4.142311896100665E-176
   22.1231250000000        -2.279293752040909E-175
   22.3368750000000        -1.716372291909542E-174
   22.5506250000000        -7.615041153003708E-174
   22.7643750000000        -2.699250063177898E-173
   22.9781250000000        -8.148796382821565E-173
   23.1918750000000        -2.107068294172022E-172
   23.4056250000000        -4.468088194414151E-172
   23.6193750000000        -6.422660742899963E-172
   23.8331250000000         2.085490138340115E-172
   24.0468750000000         6.080954370458077E-171
   24.2606250000000         2.942158099467925E-170
   24.4743750000000         1.029981889672422E-169
   24.6881250000000         2.988031269883629E-169
   24.9018750000000         7.374515125187580E-169
   25.1156250000000         1.505964849752974E-168
   25.3293750000000         2.210886348939098E-168
   25.5431250000000         4.364018747696957E-169
   25.7568750000000        -1.250512836692411E-167
   25.9706250000000        -6.130590624961372E-167
   26.1843750000000        -2.045265117343940E-166
   26.3981250000000        -5.558122510603772E-166
   26.6118750000000        -1.272009851161034E-165
   26.8256250000000        -2.377071399210612E-165
   27.0393750000000        -3.062464870757464E-165
   27.2531250000000         3.422323749342877E-166
   27.4668750000000         1.917756215275184E-164
   27.6806250000000         8.177735192988152E-164
   27.8943750000000         2.468206421334383E-163
   28.1081250000000         6.095192786166079E-163
   28.3218750000000         1.256935308400359E-162
   28.5356250000000         2.050668582478203E-162
   28.7493750000000         1.962534539916464E-162
   28.9631250000000        -2.537486816461620E-162
   29.1768750000000        -2.069743632599404E-161
   29.3906250000000        -7.247986160685425E-161
   29.6043750000000        -1.928673078368849E-160
   29.8181250000000        -4.248722788200345E-160
   30.0318750000000        -7.712627013446557E-160
   30.2456250000000        -1.037360734082218E-159
   30.4593750000000        -4.405641548737033E-160
   30.6731250000000         3.185108922660236E-159
   30.8868750000000         1.468796291814981E-158
   31.1006250000000         4.301111808551945E-158
   31.3143750000000         1.008010501633814E-157
   31.5281250000000         1.966627906844548E-157
   31.7418750000000         3.074655117212831E-157
   31.9556250000000         3.072638312979150E-157
   32.1693750000000        -1.811809196564039E-157
   32.3831250000000        -2.040279190655122E-156
   32.5968750000000        -6.979283677386848E-156
   32.8106250000000        -1.767094900711625E-155
   33.0243750000000        -3.693226390731086E-155
   33.2381250000000        -6.416144536486381E-155
   33.4518750000000        -8.562524701411240E-155
   33.6656250000000        -5.336059731965138E-155
   33.8793750000000         1.528235643779897E-154
   34.0931250000000         7.797545506658788E-154
   34.3068750000000         2.248971384554139E-153
   34.5206250000000         5.119972395551572E-153
   34.7343750000000         9.777497941647874E-153
   34.9481250000000         1.546379137785001E-152
   35.1618750000000         1.803399532897247E-152
   35.3756250000000         5.649808504410326E-153
   35.5893750000000        -4.807060464871206E-152
   35.8031250000000        -1.923189275080844E-151
   36.0168750000000        -5.032253063685041E-151
   36.2306250000000        -1.068835242329975E-150
   36.4443750000000        -1.923086005849730E-150
   36.6581250000000        -2.872292086236833E-150
   36.8718750000000        -3.131448333932724E-150
   37.0856250000000        -6.819022891221524E-151
   37.2993750000000         8.671175769266165E-150
   37.5131250000000         3.232277327703860E-149
   37.7268750000000         8.117649953438301E-149
   37.9406250000000         1.673041873843523E-148
   38.1543750000000         2.951226901792466E-148
   38.3681250000000         4.395976307359418E-148
   38.5818750000000         5.022270893006218E-148
   38.7956250000000         2.347939421622448E-148
   39.0093750000000        -8.731006162623980E-148
   39.2231250000000        -3.724654568855551E-147
   39.4368750000000        -9.692874500639480E-147
   39.6506250000000        -2.046388777738607E-146
   39.8643750000000        -3.727549018809579E-146
   40.0781250000000        -5.888444951540070E-146
   40.2918750000000        -7.721112992816061E-146
   40.5056250000000        -6.925485663045338E-146
   40.7193750000000         1.609509252805632E-146
   40.9331250000000         2.764827524096322E-145
   41.1468750000000         8.757600728949155E-145
   41.3606250000000         2.051030201584715E-144
   41.5743750000000         4.073009834378265E-144
   41.7881250000000         7.089674401819741E-144
   42.0018750000000         1.072741032581155E-143
   42.2156250000000         1.325362488032436E-143
   42.4293750000000         1.005081809568466E-143
   42.6431250000000        -8.798567973900472E-144
   42.8568750000000        -6.167434345055571E-143
   43.0706250000000        -1.781979413961405E-142
   43.2843750000000        -3.983175350182370E-142
   43.4981250000000        -7.603297912352720E-142
   43.7118750000000        -1.264048917077147E-141
   43.9256250000000        -1.787126747967281E-141
   44.1393750000000        -1.925945965189961E-141
   44.3531250000000        -7.368194414240121E-142
   44.5668750000000         3.612235745889353E-141
   44.7806250000000         1.417053094911370E-140
   44.9943750000000         3.519537771082003E-140
   45.2081250000000         7.111026554207496E-140
   45.4218750000000         1.231771713657116E-139
   45.6356250000000         1.819797701032010E-139
   45.8493750000000         2.134282541569017E-139
   46.0631250000000         1.367105731269601E-139
   46.2768750000000        -2.039939396949708E-139
   46.4906250000000        -1.063676764670408E-138
   46.7043750000000        -2.789347668198781E-138
   46.9181250000000        -5.726716202543768E-138
   47.1318750000000        -9.948460665068316E-138
   47.3456250000000        -1.467536516546530E-137
   47.5593750000000        -1.725570011894659E-137
   47.7731250000000        -1.165367354582008E-137
   47.9868750000000         1.332281095757900E-137
   48.2006250000000         7.520848056134425E-137
   48.4143750000000         1.965314292111528E-136
   48.6281250000000         3.973302309778128E-136
   48.8418750000000         6.759807977791287E-136
   49.0556250000000         9.713783111659623E-136
   49.2693750000000         1.100665402246738E-135
   49.4831250000000         6.739863697874119E-136
   49.6968750000000        -9.933863335740761E-136
   49.9106250000000        -4.914181270206933E-135
   50.1243750000000        -1.228986802507758E-134
   50.3381250000000        -2.400026155285239E-134
   50.5518750000000        -3.944207225452393E-134
   50.7656250000000        -5.441056054149910E-134
   50.9793750000000        -5.785712920308150E-134
   51.1931250000000        -2.783729891826699E-134
   51.4068750000000         7.197131480932706E-134
   51.6206250000000         2.919084209946195E-133
   51.8343750000000         6.860415036349546E-133
   52.0481250000000         1.282487550751013E-132
   52.2618750000000         2.022256683549269E-132
   52.4756250000000         2.655538358660142E-132
   52.6893750000000         2.594139354015963E-132
   52.9031250000000         7.449693849092176E-133
   53.1168750000000        -4.598806357930425E-132
   53.3306250000000        -1.564781316226317E-131
   53.5443750000000        -3.451135687715326E-131
   53.7581250000000        -6.169938094479013E-131
   53.9718750000000        -9.327214626419857E-131
   54.1856250000000        -1.163068502778629E-130
   54.3993750000000        -1.028812201222132E-130
   54.6131250000000        -3.995635528075819E-132
   54.8268750000000         2.529276271802383E-130
   55.0406250000000         7.559548413458817E-130
   55.2543750000000         1.578706351300573E-129
   55.4681250000000         2.713456899990984E-129
   55.6818750000000         3.951525987327618E-129
   55.8956250000000         4.703018192371866E-129
   56.1093750000000         3.772080960259027E-129
   56.3231250000000        -8.458551342116604E-130
   56.5368750000000        -1.199281046380736E-128
   56.7506250000000        -3.292816831053817E-128
   56.9643750000000        -6.604180318813558E-128
   57.1781250000000        -1.101715163361498E-127
   57.3918750000000        -1.560269982009485E-127
   57.6056250000000        -1.795821969666326E-127
   57.8193750000000        -1.342529287927992E-127
   58.0331250000000         5.546197315187487E-128
   58.2468750000000         4.931847799954008E-127
   58.4606250000000         1.292902408132619E-126
   58.6743750000000         2.529954408153453E-126
   58.8881250000000         4.143553269593080E-126
   59.1018750000000         5.776068079329089E-126
   59.3156250000000         6.548215099857855E-126
   59.5293750000000         4.802992363785247E-126
   59.7431250000000        -2.086273304882134E-126
   59.9568750000000        -1.765104983157731E-125
   60.1706250000000        -4.568543888454692E-125
   60.3843750000000        -8.857463522004699E-125
   60.5981250000000        -1.440705230731509E-124
   60.8118750000000        -2.000982604327876E-124
   61.0256250000000        -2.276469877685565E-124
   61.2393750000000        -1.728677570012983E-124
   61.4531250000000         4.858324509832542E-125
   61.6668750000000         5.490257655866484E-124
   61.8806250000000         1.448453453915532E-123
   62.0943750000000         2.823220916525942E-123
   62.3081250000000         4.608830185187926E-123
   62.5218750000000         6.445594855484742E-123
   62.7356250000000         7.469995066409949E-123
   62.9493750000000         6.085263277175659E-123
   63.1631250000000        -2.017153279601788E-124
   63.3768750000000        -1.471106873397019E-122
   63.5906250000000        -4.102392308473651E-122
   63.8043750000000        -8.156190914616934E-122
   64.0181250000000        -1.349163621777844E-121
   64.2318750000000        -1.916363092383699E-121
   64.4456250000000        -2.285592430994773E-121
   64.6593750000000        -2.025683407911407E-121
   64.8731250000000        -4.602746317646433E-122
   65.0868750000000         3.318683202827566E-121
   65.3006250000000         1.031160584993412E-120
   65.5143750000000         2.125671925148338E-120
   65.7281250000000         3.596197384298549E-120
   65.9418750000000         5.225083539072512E-120
   66.1556250000000         6.453906460397235E-120
   66.3693750000000         6.224837330577999E-120
   66.5831250000000         2.858215557701848E-120
   66.7968750000000        -5.935207421028367E-120
   67.0106250000000        -2.275311759240424E-119
   67.2243750000000        -4.970511997125717E-119
   67.4381250000000        -8.689289917840723E-119
   67.6518750000000        -1.299931266892261E-118
   67.8656250000000        -1.669614804888094E-118
   68.0793750000000        -1.742805073827044E-118
   68.2931250000000        -1.138558476275494E-118
   68.5068750000000         6.735592356688094E-119
   68.7206250000000         4.317143571879535E-118
   68.9343750000000         1.034851897801377E-117
   69.1481250000000         1.894285237000993E-117
   69.3618750000000         2.938705268718127E-117
   69.5756250000000         3.937653038033170E-117
   69.7893750000000         4.419143967708147E-117
   70.0031250000000         3.596120141150784E-117
   70.2168750000000         3.418292941964022E-118
   70.4306250000000        -6.722150133028591E-117
   70.6443750000000        -1.893837920402737E-116
   70.8581250000000        -3.702687232660833E-116
   71.0718750000000        -6.011327447586913E-116
   71.2856250000000        -8.434853032284790E-116
   71.4993750000000        -1.012347425861549E-115
   71.7131250000000        -9.600975355764348E-116
   71.9268750000000        -4.679088579398616E-116
   72.1406250000000         7.438580045653365E-116
   72.3543750000000         2.970491873839911E-115
   72.5681250000000         6.424262503895368E-115
   72.7818750000000         1.106481022453855E-114
   72.9956250000000         1.635045606886162E-114
   73.2093750000000         2.092414048636160E-114
   73.4231250000000         2.228644556507984E-114
   73.6368750000000         1.656614744646689E-114
   73.8506250000000        -1.426530985319676E-115
   74.0643750000000        -3.759853058421371E-114
   74.2781250000000        -9.709737059260309E-114
   74.4918750000000        -1.816302528183130E-113
   74.7056250000000        -2.853661523397123E-113
   74.9193750000000        -3.895158911481132E-113
   75.1331250000000        -4.562580286727321E-113
   75.3468750000000        -4.235658538178894E-113
   75.5606250000000        -2.036773293610134E-113
   75.7743750000000         3.107005577689865E-113
   75.9881250000000         1.227170660892860E-112
   76.2018750000000         2.615661069160675E-112
   76.4156250000000         4.447038036688300E-112
   76.6293750000000         6.507444306481613E-112
   76.8431250000000         8.295095057699322E-112
   77.0568750000000         8.918656823554818E-112
   77.2706250000000         7.033711872169501E-112
   77.4843750000000         8.748604987636982E-113
   77.6981250000000        -1.153800088839425E-111
   77.9118750000000        -3.192686525364618E-111
   78.1256250000000        -6.092835897056013E-111
   78.3393750000000        -9.686192811855279E-111
   78.5531250000000        -1.341320376172634E-110
   78.7668750000000        -1.614591227091961E-110
   78.9806250000000        -1.603670652728271E-110
   79.1943750000000        -1.046577197309796E-110
   79.4081250000000         3.806033491976100E-111
   79.6218750000000         3.014291598445749E-110
   79.8356250000000         7.105092808319085E-110
   80.0493750000000         1.265834684024052E-109
   80.2631250000000         1.920995317889061E-109
   80.4768750000000         2.555124578262733E-109
   80.6906250000000         2.944497116742928E-109
   80.9043750000000         2.741427723267821E-109
   81.1181250000000         1.473572678234216E-109
   81.3318750000000        -1.418144604410320E-109
   81.5456250000000        -6.480824031649604E-109
   81.7593750000000        -1.406740428913089E-108
   81.9731250000000        -2.405427802244201E-108
   82.1868750000000        -3.545821132085128E-108
   82.4006250000000        -4.598245535755107E-108
   82.6143750000000        -5.156943179398656E-108
   82.8281250000000        -4.610233429007295E-108
   83.0418750000000        -2.147586365474821E-108
   83.2556250000000         3.166517041236375E-108
   83.4693750000000         1.221644090034977E-107
   83.6831250000000         2.552165566953871E-107
   83.8968750000000         4.276100393598397E-107
   84.1106250000000         6.213813062179082E-107
   84.3243750000000         7.964150384545404E-107
   84.5381250000000         8.832992869701959E-107
   84.7518750000000         7.787943757850503E-107
   84.9656250000000         3.475232243470776E-107
   85.1793750000000        -5.652617476964797E-107
   85.3931250000000        -2.104105661178591E-106
   85.6068750000000        -4.351322161866619E-106
   85.8206250000000        -7.248687746738073E-106
   86.0343750000000        -1.049357824896379E-105
   86.2481250000000        -1.341849420811100E-105
   86.4618750000000        -1.487555773869177E-105
   86.6756250000000        -1.316462777350151E-105
   86.8893750000000        -6.063883410053290E-106
   87.1031250000000         8.958278581185217E-106
   87.3168750000000         3.425756515372006E-105
   87.5306250000000         7.116418465271274E-105
   87.7443750000000         1.187104595571894E-104
   87.9581250000000         1.719525129211011E-104
   88.1718750000000         2.200384258898338E-104
   88.3856250000000         2.443811398371036E-104
   88.5993750000000         2.175688635468226E-104
   88.8131250000000         1.039648780507380E-104
   89.0268750000000        -1.367455660217327E-104
   89.2406250000000        -5.416145217863594E-104
   89.4543750000000        -1.130733966055295E-103
   89.6681250000000        -1.886982149012087E-103
   89.8818750000000        -2.729692842981154E-103
   90.0956250000000        -3.484940754193944E-103
   90.3093750000000        -3.858408176829389E-103
   90.5231250000000        -3.421033489486632E-103
   90.7368750000000        -1.622377734217454E-103
   90.9506250000000         2.149120619145935E-103
   91.1643750000000         8.437786440345326E-103
   91.3781250000000         1.750559833383901E-102
   91.5918750000000         2.902192391695872E-102
   91.8056250000000         4.167088258254457E-102
   92.0193750000000         5.272394505547736E-102
   92.2331250000000         5.767467011893448E-102
   92.4468750000000         5.009341833277044E-102
   92.6606250000000         2.192389375612055E-102
   92.8743750000000        -3.550599803702518E-102
   93.0881250000000        -1.294749924540347E-101
   93.3018750000000        -2.626396017952070E-101
   93.5156250000000        -4.285418503894272E-101
   93.7293750000000        -6.061427085461614E-101
   93.9431250000000        -7.541843294146776E-101
   94.1568750000000        -8.068730765189980E-101
   94.3706250000000        -6.731765401194138E-101
   94.5843750000000        -2.427966514499542E-101
   94.7981250000000         5.976310384260965E-101
   95.0118750000000         1.934716088363079E-100
   95.2256250000000         3.782726639476855E-100
   95.4393750000000         6.022937175214578E-100
   95.6531250000000         8.333455945976346E-100
   95.8668750000000         1.012207974105043E-099
   96.0806250000000         1.048353389021609E-099
   96.2943750000000         8.211940389036295E-100
   96.5081250000000         1.907328620539125E-100
   96.7218750000000        -9.781954078692093E-100
   96.9356250000000        -2.774555304330490E-099
   97.1493750000000        -5.181210346016211E-099
   97.3631250000000        -7.999223233867866E-099
   97.5768750000000        -1.076555770514197E-098
   97.7906250000000        -1.268211028421764E-098
   98.0043750000000        -1.258421766442200E-098
   98.2181250000000        -8.986741948693345E-099
   98.4318750000000        -2.525647757593171E-100
   98.6456250000000         1.507241816618173E-098
   98.8593750000000         3.772717791832982E-098
   99.0731250000000         6.700743248806628E-098
   99.2868750000000         9.989719962580696E-098
   99.5006250000000         1.301945327883877E-097
   99.7143750000000         1.478649484295182E-097
   99.9281250000000         1.389625860376921E-097
   100.141875000000         8.654950926148686E-098
   100.355625000000        -2.691838867498347E-098
   100.569375000000        -2.153321750255083E-097
   100.783125000000        -4.826061570928166E-097
   100.996875000000        -8.145178235966598E-097
   101.210625000000        -1.169593034132059E-096
   101.424375000000        -1.470793544218529E-096
   101.638125000000        -1.600781486803558E-096
   101.851875000000        -1.404521279232966E-096
   102.065625000000        -7.036483180778452E-097
   102.279375000000         6.730112190966579E-097
   102.493125000000         2.839623131012684E-096
   102.706875000000         5.784004297717318E-096
   102.920625000000         9.283510317203346E-096
   103.134375000000         1.281802718360625E-095
   103.348125000000         1.550078966852364E-095
   103.561875000000         1.605716099937922E-095
   103.775625000000         1.288939919412138E-095
   103.989375000000         4.268721772108389E-096
   104.203125000000        -1.130927271660956E-095
   104.416875000000        -3.458788297747007E-095
   104.630625000000        -6.484815266260789E-095
   104.844375000000        -9.911369834700847E-095
   105.058125000000        -1.314027103589923E-094
   105.271875000000        -1.522494196437643E-094
   105.485625000000        -1.487946379775631E-094
   105.699375000000        -1.057961927548122E-094
   105.913125000000        -7.905103793332201E-096
   106.126875000000         1.565429544036379E-094
   106.340625000000         3.901934303086422E-094
   106.554375000000         6.801407323022221E-094
   106.768125000000         9.910673325738474E-094
   106.981875000000         1.259564249555117E-093
   107.195625000000         1.391812700637555E-093
   107.409375000000         1.267354552540148E-093
   107.623125000000         7.518901896482185E-094
   107.836875000000        -2.783489229650701E-094
   108.050625000000        -1.899380050441729E-093
   108.264375000000        -4.090520471747102E-093
   108.478125000000        -6.678440215659704E-093
   108.691875000000        -9.283635466681347E-093
   108.905625000000        -1.128401307171786E-092
   109.119375000000        -1.181518212888742E-092
   109.333125000000        -9.830148554447485E-093
   109.546875000000        -4.240527082434921E-093
   109.760625000000         5.844989620572919E-093
   109.974375000000         2.078330208410675E-092
   110.188125000000         3.998226458049330E-092
   110.401875000000         6.146224483680268E-092
   110.615625000000         8.148566918141154E-092
   110.829375000000         9.438539102898947E-092
   111.043125000000         9.275349210084125E-092
   111.256875000000         6.816216620768958E-092
   111.470625000000         1.256281992827638E-092
   111.684375000000        -7.956653777864505E-092
   111.898125000000        -2.083937583980947E-091
   112.111875000000        -3.654967737794227E-091
   112.325625000000        -5.307503329587875E-091
   112.539375000000        -6.701500549072619E-091
   112.753125000000        -7.356443218165853E-091
   112.966875000000        -6.681940237948591E-091
   113.180625000000        -4.052256392689775E-091
   113.394375000000         1.067210053417546E-091
   113.608125000000         8.941152956514214E-091
   113.821875000000         1.934512122817811E-090
   114.035625000000         3.133406475145514E-090
   114.249375000000         4.304607855802824E-090
   114.463125000000         5.160772182656873E-090
   114.676875000000         5.322143097869756E-090
   114.890625000000         4.351877888423886E-090
   115.104375000000         1.824868959098134E-090
   115.318125000000        -2.566948141273696E-090
   115.531875000000        -8.876650318679209E-090
   115.745625000000        -1.674539776356325E-089
   115.959375000000        -2.525229738412988E-089
   116.173125000000        -3.280974796355789E-089
   116.386875000000        -3.715407179301679E-089
   116.600625000000        -3.548695738872823E-089
   116.814375000000        -2.481922483176560E-089
   117.028125000000        -2.550212714067976E-090
   117.241875000000         3.271994874990764E-089
   117.455625000000         8.020323728935742E-089
   117.669375000000         1.358922678906373E-088
   117.883125000000         1.916969855599952E-088
   118.096875000000         2.350401200956468E-088
   118.310625000000         2.492558196621354E-088
   118.524375000000         2.151398067235675E-088
   118.738125000000         1.139253857964105E-088
   118.951875000000        -6.821758947614097E-089
   119.165625000000        -3.343592581547038E-088
   119.379375000000        -6.702702801252869E-088
   119.593125000000        -1.038266941696006E-087
   119.806875000000        -1.373047118105714E-087
   120.020625000000        -1.581534283571614E-087
   120.234375000000        -1.548918326909852E-087
   120.448125000000        -1.152847208811990E-087
   120.661875000000        -2.869194642770037E-088
   120.875625000000         1.106865566377660E-087
   121.089375000000         2.999251445292412E-087
   121.303125000000         5.233815549146269E-087
   121.516875000000         7.494433540994699E-087
   121.730625000000         9.291336053058665E-087
   121.944375000000         9.978709092707499E-087
   122.158125000000         8.816516147570807E-087
   122.371875000000         5.085951145695239E-087
   122.585625000000        -1.739161928094894E-087
   122.799375000000        -1.177402448624069E-086
   123.013125000000        -2.448177462734584E-086
   123.226875000000        -3.845154378515847E-086
   123.440625000000        -5.125505703967262E-086
   123.654375000000        -5.945449728520051E-086
   123.868125000000        -5.883835466270994E-086