  -1.60312500000000         0.000000000000000E+000
  -1.38937500000000         0.000000000000000E+000
  -1.17562500000000         0.000000000000000E+000
 -0.961875000000000         0.000000000000000E+000
 -0.748125000000000         0.000000000000000E+000
 -0.534375000000000         0.000000000000000E+000
 -0.320625000000000         0.000000000000000E+000
 -0.106875000000000         0.000000000000000E+000
  0.106875000000000         0.000000000000000E+000
  0.320625000000000         0.000000000000000E+000
  0.534375000000000         0.000000000000000E+000
  0.748125000000000         0.000000000000000E+000
  0.961875000000000         0.000000000000000E+000
   1.17562500000000         0.000000000000000E+000
   1.38937500000000         0.000000000000000E+000
   1.60312500000000         0.000000000000000E+000
   1.81687500000000         0.000000000000000E+000
   2.03062500000000         0.000000000000000E+000
   2.24437500000000         0.000000000000000E+000
   2.45812500000000         0.000000000000000E+000
   2.67187500000000         0.000000000000000E+000
   2.88562500000000         0.000000000000000E+000
   3.09937500000000         0.000000000000000E+000
   3.31312500000000         0.000000000000000E+000
   3.52687500000000         0.000000000000000E+000
   3.74062500000000         0.000000000000000E+000
   3.95437500000000         0.000000000000000E+000
   4.16812500000000         0.000000000000000E+000
   4.38187500000000         0.000000000000000E+000
   4.59562500000000         0.000000000000000E+000
   4.80937500000000         0.000000000000000E+000
   5.02312500000000         0.000000000000000E+000
   5.23687500000000         0.000000000000000E+000
   5.45062500000000         0.000000000000000E+000
   5.66437500000000         0.000000000000000E+000
   5.87812500000000         0.000000000000000E+000
   6.09187500000000         0.000000000000000E+000
   6.30562500000000         0.000000000000000E+000
   6.51937500000000         0.000000000000000E+000
   6.73312500000000         0.000000000000000E+000
   6.94687500000000         0.000000000000000E+000
   7.16062500000000         0.000000000000000E+000
   7.37437500000000         0.000000000000000E+000
   7.58812500000000         0.000000000000000E+000
   7.80187500000000         0.000000000000000E+000
   8.01562500000000         0.000000000000000E+000
   8.22937500000000         0.000000000000000E+000
   8.44312500000000         0.000000000000000E+000
   8.65687500000000         0.000000000000000E+000
   8.87062500000000         0.000000000000000E+000
   9.08437500000000         0.000000000000000E+000
   9.29812500000000         0.000000000000000E+000
   9.51187500000000         0.000000000000000E+000
   9.72562500000000         0.000000000000000E+000
   9.93937500000000         0.000000000000000E+000
   10.1531250000000         0.000000000000000E+000
   10.3668750000000         0.000000000000000E+000
   10.5806250000000         0.000000000000000E+000
   10.7943750000000        -5.961083193891841E-244
   11.0081250000000         2.132633821408997E-237
   11.2218750000000         3.548207630614232E-235
   11.4356250000000         4.485718264336291E-230
   11.6493750000000         1.199101960205666E-227
   11.8631250000000         1.068004656483460E-225
   12.0768750000000         6.561268689630219E-224
   12.2906250000000         2.783828709723104E-222
   12.5043750000000         8.301087542470536E-221
   12.7181250000000         1.794361581345301E-219
   12.9318750000000         2.820571331236263E-218
   13.1456250000000         2.959351577732058E-217
   13.3593750000000         9.451293994070221E-217
   13.5731250000000        -4.080466537940800E-215
   13.7868750000000        -1.184508475762861E-213
   14.0006250000000        -2.076449715618407E-212
   14.2143750000000        -2.850450484277057E-211
   14.4281250000000        -3.297918488762438E-210
   14.6418750000000        -3.320589633241498E-209
   14.8556250000000        -2.957525735717274E-208
   15.0693750000000        -2.348957020624376E-207
   15.2831250000000        -1.666956211732677E-206
   15.4968750000000        -1.052297809814612E-205
   15.7106250000000        -5.823589418045290E-205
   15.9243750000000        -2.723358257001979E-204
   16.1381250000000        -9.654396099860215E-204
   16.3518750000000        -1.349709375418301E-203
   16.5656250000000         1.587822765744304E-202
   16.7793750000000         1.982921430272360E-201
   16.9931250000000         1.493020411324787E-200
   17.2068750000000         8.980387118888829E-200
   17.4206250000000         4.607723378885209E-199
   17.6343750000000         2.050331181956804E-198
   17.8481250000000         7.825319705477746E-198
   18.0618750000000         2.430759381116774E-197
   18.2756250000000         5.012824997185901E-197
   18.4893750000000        -3.090907066253021E-197
   18.7031250000000        -1.027781288023013E-195
   18.9168750000000        -6.833680460485586E-195
   19.1306250000000        -3.219623160634268E-194
   19.3443750000000        -1.202147154588019E-193
   19.5581250000000        -3.465750628374491E-193
   19.7718750000000        -5.910914302587281E-193
   19.9856250000000         1.078460822710654E-192
   20.1993750000000         1.610355471205365E-191
   20.4131250000000         9.476535309943073E-191
   20.6268750000000         4.177339371109174E-190
   20.8406250000000         1.515624232442880E-189
   21.0543750000000         4.539589045181600E-189
   21.2681250000000         1.032038238516666E-188
   21.4818750000000         1.027532997522954E-188
   21.6956250000000        -5.920379067920531E-188
   21.9093750000000        -4.949208025306617E-187
   22.1231250000000        -2.411139270575584E-186
   22.3368750000000        -9.355501153266885E-186
   22.5506250000000        -3.086452032327873E-185
   22.7643750000000        -8.710074309676147E-185
   22.9781250000000        -2.011596145633266E-184
   23.1918750000000        -3.120742645662063E-184
   23.4056250000000         1.403415368549824E-184
   23.6193750000000         3.727198889417492E-183
   23.8331250000000         1.964160698469446E-182
   24.0468750000000         7.561831698548647E-182
   24.2606250000000         2.428328823267026E-181
   24.4743750000000         6.692647329352140E-181
   24.6881250000000         1.552820191412725E-180
   24.9018750000000         2.736320158812767E-180
   25.1156250000000         1.833355621115256E-180
   25.3293750000000        -1.222123383757165E-179
   25.5431250000000        -7.764473356832556E-179
   25.7568750000000        -3.046239227549633E-178
   25.9706250000000        -9.636847461052463E-178
   26.1843750000000        -2.601478592364780E-177
   26.3981250000000        -5.990241082588621E-177
   26.6118750000000        -1.110407963921839E-176
   26.8256250000000        -1.262078035683156E-176
   27.0393750000000         1.443047158375726E-176
   27.2531250000000         1.522737010897334E-175
   27.4668750000000         6.223070777044117E-175
   27.6806250000000         1.923800954669122E-174
   27.8943750000000         4.957097745968861E-174
   28.1081250000000         1.073538285356106E-173
   28.3218750000000         1.836624507334191E-173
   28.5356250000000         1.784014151764941E-173
   28.7493750000000        -2.982900309296822E-173
   28.9631250000000        -2.375913623819662E-172
   29.1768750000000        -8.740959606897222E-172
   29.3906250000000        -2.462342433393085E-171
   29.6043750000000        -5.747348040853564E-171
   29.8181250000000        -1.101721767143419E-170
   30.0318750000000        -1.541091702023689E-170
   30.2456250000000        -5.252850776645336E-171
   30.4593750000000         6.168963504964941E-170
   30.6731250000000         2.897481708153633E-169
   30.8868750000000         8.921273038341719E-169
   31.1006250000000         2.211898974356430E-168
   31.3143750000000         4.573146646109395E-168
   31.5281250000000         7.577379650401464E-168
   31.7418750000000         8.012500817535664E-168
   31.9556250000000        -5.076774146645715E-168
   32.1693750000000        -5.992738573660138E-167
   32.3831250000000        -2.163595085856293E-166
   32.5968750000000        -5.773191925590710E-166
   32.8106250000000        -1.268052503891674E-165
   33.0243750000000        -2.303492989457760E-165
   33.2381250000000        -3.173415531859868E-165
   33.4518750000000        -1.849721025878377E-165
   33.6656250000000         7.155389401295298E-165
   33.8793750000000         3.579870503844557E-164
   34.0931250000000         1.054468972051885E-163
   34.3068750000000         2.450568847432287E-163
   34.5206250000000         4.720803656520854E-163
   34.7343750000000         7.296670115296503E-163
   34.9481250000000         7.350936174451871E-163
   35.1618750000000        -3.169811675480641E-163
   35.3756250000000        -4.219306556244919E-162
   35.5893750000000        -1.424361642875462E-161
   35.8031250000000        -3.506634064809322E-161
   36.0168750000000        -7.057683358153662E-161
   36.2306250000000        -1.163770162046390E-160
   36.4443750000000        -1.416910494865499E-160
   36.6581250000000        -5.430312334031125E-161
   36.8718750000000         3.538634468479963E-160
   37.0856250000000         1.465051444885041E-159
   37.2993750000000         3.835721019691506E-159
   37.5131250000000         7.981773186225578E-159
   37.7268750000000         1.363973499412399E-158
   37.9406250000000         1.801658056402213E-158
   38.1543750000000         1.248448997172474E-158
   38.3681250000000        -2.237983144008044E-158
   38.5818750000000        -1.218230298699637E-157
   38.7956250000000        -3.363252433360350E-157
   39.0093750000000        -7.119337180897510E-157
   39.2231250000000        -1.226431996703201E-156
   39.4368750000000        -1.644562981448917E-156
   39.6506250000000        -1.256892653976501E-156
   39.8643750000000         1.488389527149419E-156
   40.0781250000000         9.308563020879616E-156
   40.2918750000000         2.589400296381325E-155
   40.5056250000000         5.416915011512667E-155
   40.7193750000000         9.121195630758140E-155
   40.9331250000000         1.174267546136951E-154
   41.1468750000000         7.813848510855705E-155
   41.3606250000000        -1.403007346562570E-154
   41.5743750000000        -7.268991004171251E-154
   41.7881250000000        -1.919412274894627E-153
   42.0018750000000        -3.862126139007158E-153
   42.2156250000000        -6.229151106613103E-153
   42.4293750000000        -7.466396811010138E-153
   42.6431250000000        -3.567035645269841E-153
   42.8568750000000         1.341269172360368E-152
   43.0706250000000         5.614444526828605E-152
   43.2843750000000         1.397066301037908E-151
   43.4981250000000         2.714092640833910E-151
   43.7118750000000         4.252559591906499E-151
   43.9256250000000         4.920881144380848E-151
   44.1393750000000         2.006851717309497E-151
   44.3531250000000        -9.766375141797648E-151
   44.5668750000000        -3.875048330291685E-150
   44.7806250000000        -9.498149950339024E-150
   44.9943750000000        -1.840363326844280E-149
   45.2081250000000        -2.916074384737940E-149
   45.4218750000000        -3.532455019555055E-149
   45.6356250000000        -2.056980695704924E-149
   45.8493750000000         4.742210512734425E-149
   46.0631250000000         2.213085415159798E-148
   46.2768750000000         5.688690485273853E-148
   46.4906250000000         1.142672068772079E-147
   46.7043750000000         1.899058954249870E-147
   46.9181250000000         2.532811882824807E-147
   47.1318750000000         2.198777011665203E-147
   47.3456250000000        -8.682674682444087E-148
   47.5593750000000        -9.712437518146995E-147
   47.7731250000000        -2.863861846727550E-146
   47.9868750000000        -6.206333821943537E-146
   48.2006250000000        -1.109206928758593E-145
   48.4143750000000        -1.647345291555080E-145
   48.6281250000000        -1.873237607969152E-145
   48.8418750000000        -9.535525636340739E-146
   49.0556250000000         2.667058113055409E-145
   49.2693750000000         1.141793341495202E-144
   49.4831250000000         2.833861891184251E-144
   49.6968750000000         5.580078154420104E-144
   49.9106250000000         9.227147742832037E-144
   50.1243750000000         1.259119521927664E-143
   50.3381250000000         1.239917172082149E-143
   50.5518750000000         1.842597634045810E-144
   50.7656250000000        -3.086700973654136E-143
   50.9793750000000        -1.028214462415925E-142
   51.1931250000000        -2.332623187329279E-142
   51.4068750000000        -4.328529720008043E-142
   51.6206250000000        -6.794047450272832E-142
   51.8343750000000        -8.732326352475563E-142
   52.0481250000000        -7.679547011009339E-142
   52.2618750000000         1.169619926890465E-142
   52.4756250000000         2.570837266305568E-141
   52.6893750000000         7.675921674134147E-141
   52.9031250000000         1.654967558775974E-140
   53.1168750000000         2.959775894217415E-140
   53.3306250000000         4.494067459632962E-140
   53.5443750000000         5.566795788357657E-140
   53.7581250000000         4.579132332001108E-140
   53.9718750000000        -1.454796571815462E-140
   54.1856250000000        -1.725834936031182E-139
   54.3993750000000        -4.904884810377297E-139
   54.6131250000000        -1.028441490727963E-138
   54.8268750000000        -1.799896196245249E-138
   55.0406250000000        -2.681977579209395E-138
   55.2543750000000        -3.265216305801672E-138
   55.4681250000000        -2.640747785881750E-138
   55.6818750000000         8.386819744110030E-139
   55.8956250000000         9.710144278052891E-138
   56.1093750000000         2.722029317083608E-137
   56.3231250000000         5.638427456411418E-137
   56.5368750000000         9.764489244994409E-137
   56.7506250000000         1.443527508589865E-136
   56.9643750000000         1.754161865218175E-136
   57.1781250000000         1.452117772156868E-136
   57.3918750000000        -2.729247465703105E-137
   57.6056250000000        -4.646660549106830E-136
   57.8193750000000        -1.321076542232844E-135
   58.0331250000000        -2.737096087438358E-135
   58.2468750000000        -4.731691432712202E-135
   58.4606250000000        -6.999218304627460E-135
   58.6743750000000        -8.586885553697354E-135
   58.8881250000000        -7.462102559817041E-135
   59.1018750000000        -5.895519181110560E-137
   59.3156250000000         1.895935348944929E-134
   59.5293750000000         5.625507846380306E-134
   59.7431250000000         1.179188560348569E-133
   59.9568750000000         2.050478015245741E-133
   60.1706250000000         3.055886578996427E-133
   60.3843750000000         3.815890788701005E-133
   60.5981250000000         3.523550431793971E-133
   60.8118750000000         7.705285320893203E-134
   61.0256250000000        -6.542597237347198E-133
   61.2393750000000        -2.103927924482338E-132
   61.4531250000000        -4.516564547411395E-132
   61.6668750000000        -7.957561759451423E-132
   61.8806250000000        -1.201853519563282E-131
   62.0943750000000        -1.536154185223564E-131
   62.3081250000000        -1.512164121946716E-131
   62.5218750000000        -6.290968061322437E-132
   62.7356250000000         1.861134696484672E-131
   62.9493750000000         6.901009999689069E-131
   63.1631250000000         1.539777555243774E-130
   63.3768750000000         2.769487144483356E-130
   63.5906250000000         4.261192063155491E-130
   63.8043750000000         5.596540103095179E-130
   64.0181250000000         5.863187324510563E-130
   64.2318750000000         3.453349283976042E-130
   64.4456250000000        -4.052819339189717E-130
   64.6593750000000        -1.974657096663256E-129
   64.8731250000000        -4.672232798433784E-129
   65.0868750000000        -8.652119976681805E-129
   65.3006250000000        -1.362974284561600E-128
   65.5143750000000        -1.844469938386608E-128
   65.7281250000000        -2.048590382599069E-128
   65.9418750000000        -1.508333572288939E-128
   66.1556250000000         4.879365513003753E-129
   66.3693750000000         4.866040099463834E-128
   66.5831250000000         1.259289816093634E-127
   66.7968750000000         2.426317655147255E-127
   67.0106250000000         3.934013912694165E-127
   67.2243750000000         5.497755161072379E-127
   67.4381250000000         6.445634053834191E-127
   67.6518750000000         5.549223692558791E-127
   67.8656250000000         9.046026457473191E-128
   68.0793750000000        -1.001924135276116E-126
   68.2931250000000        -2.998221346569919E-126
   68.5068750000000        -6.098239433112519E-126
   68.7206250000000        -1.024082095720868E-125
   68.9343750000000        -1.481410310836584E-125
   69.1481250000000        -1.826604173664810E-125
   69.3618750000000        -1.767143884108859E-125
   69.5756250000000        -8.397565311958859E-126
   69.7893750000000         1.586642726581181E-125
   70.0031250000000         6.230199392611121E-125
   70.2168750000000         1.368216536302239E-124
   70.4306250000000         2.399852122544192E-124
   70.6443750000000         3.605005822356442E-124
   70.8581250000000         4.663433187868120E-124
   71.0718750000000         4.945920899553324E-124
   71.2856250000000         3.428695227735571E-124
   71.4993750000000        -1.321489477933524E-124
   71.7131250000000        -1.100562155280136E-123
   71.9268750000000        -2.717814554858842E-123
   72.1406250000000        -5.042965026187841E-123
   72.3543750000000        -7.905976896723406E-123
   72.5681250000000        -1.072272231184664E-122
   72.7818750000000        -1.227646848155996E-122
   72.9956250000000        -1.051868660234062E-122
   73.2093750000000        -2.491206704639992E-123
   73.4231250000000         1.546777829672765E-122
   73.6368750000000         4.701191795076866E-122
   73.8506250000000         9.431357492629250E-122
   74.0643750000000         1.556063153555885E-121
   74.2781250000000         2.216743145513356E-121
   74.4918750000000         2.715613321515061E-121
   74.7056250000000         2.683591090594654E-121
   74.9193750000000         1.567914494917638E-121
   75.1331250000000        -1.346205835007339E-121
   75.3468750000000        -6.829390212231776E-121
   75.5606250000000        -1.547148650494373E-120
   75.7743750000000        -2.727172945362997E-120
   75.9881250000000        -4.103492273780398E-120
   76.2018750000000        -5.360454032303348E-120
   76.4156250000000        -5.905457059112217E-120
   76.6293750000000        -4.809687824590970E-120
   76.8431250000000        -8.133105174592613E-121
   77.0568750000000         7.543685995209246E-120
   77.2706250000000         2.158993555363700E-119
   77.4843750000000         4.191510910772307E-119
   77.6981250000000         6.743703734069438E-119
   77.9118750000000         9.416203799363961E-119
   78.1256250000000         1.137813106979780E-118
   78.3393750000000         1.124362869044283E-118
   78.5531250000000         7.023641652637628E-119
   78.7668750000000        -3.760589298042880E-119
   78.9806250000000        -2.369130606361206E-118
   79.1943750000000        -5.467458590350816E-118
   79.4081250000000        -9.666794156439519E-118
   79.6218750000000        -1.458883917980833E-117
   79.8356250000000        -1.926189419278853E-117
   80.0493750000000        -2.189643672480589E-117
   80.2631250000000        -1.972306313637722E-117
   80.4768750000000        -8.999284194966204E-118
   80.6906250000000         1.466880625125716E-117
   80.9043750000000         5.551537371763270E-117
   81.1181250000000         1.161392539169895E-116
   81.3318750000000         1.952399357623759E-116
   81.5456250000000         2.845700777989316E-116
   81.7593750000000         3.653427209846401E-116
   81.9731250000000         4.046874879429039E-116
   82.1868750000000         3.532301580526654E-116
   82.4006250000000         1.454445648780952E-116
   82.6143750000000        -2.949803532657687E-116
   82.8281250000000        -1.042038949107118E-115
   83.0418750000000        -2.143706998968979E-115
   83.2556250000000        -3.585257954208820E-115
   83.4693750000000        -5.238720250052240E-115
   83.6831250000000        -6.800591218285576E-115
   83.8968750000000        -7.724909571484799E-115
   84.1106250000000        -7.166226725183589E-115
   84.3243750000000        -3.957155164687854E-115
   84.5381250000000         3.342233926691819E-115
   84.7518750000000         1.627202436141086E-114
   84.9656250000000         3.611357709034347E-114
   85.1793750000000         6.327502937745392E-114
   85.3931250000000         9.636179950140236E-114
   85.6068750000000         1.309107536610516E-113
   85.8206250000000         1.578501936789925E-113
   86.0343750000000         1.618968346966794E-113
   86.2481250000000         1.203339698563132E-113
   86.4618750000000         2.940308416431016E-115
   86.6756250000000        -2.257600385216175E-113
   86.8893750000000        -6.003416073472767E-113
   87.1031250000000        -1.142537358605090E-112
   87.3168750000000        -1.841695715121430E-112
   87.5306250000000        -2.626577017131551E-112
   87.7443750000000        -3.329345609765498E-112
   87.9581250000000        -3.646179150801124E-112
   88.1718750000000        -3.104537527532627E-112
   88.3856250000000        -1.054874823568589E-112
   88.5993750000000         3.286202209845881E-112
   88.8131250000000         1.070544585161185E-111
   89.0268750000000         2.173422796831224E-111
   89.2406250000000         3.622500046355905E-111
   89.4543750000000         5.274782985996596E-111
   89.6681250000000         6.783932796681934E-111
   89.8818750000000         7.521815407849205E-111
   90.0956250000000         6.520177127119784E-111
   90.3093750000000         2.471300812532774E-111
   90.5231250000000        -6.156971147382933E-111
   90.7368750000000        -2.082342175256902E-110
   90.9506250000000        -4.236260793371229E-110
   91.1643750000000        -7.013111272702257E-110
   91.3781250000000        -1.008570529257865E-109
   91.5918750000000        -1.273041086899060E-109
   91.8056250000000        -1.370245332617182E-109
   92.0193750000000        -1.116942670710813E-109
   92.2331250000000        -2.777382447693929E-110
   92.4468750000000         1.405341690218151E-109
   92.6606250000000         4.149521574611699E-109
   92.8743750000000         8.024933487243575E-109
   93.0881250000000         1.280189691528920E-108
   93.3018750000000         1.776060457219596E-108
   93.5156250000000         2.149182338245741E-108
   93.7293750000000         2.174488234070376E-108
   93.9431250000000         1.541245893177240E-108
   94.1568750000000        -1.225489686086621E-109
   94.3706250000000        -3.185477697810183E-108
   94.5843750000000        -7.893934577948487E-108
   94.7981250000000        -1.419104551759805E-107
   95.0118750000000        -2.147777167615604E-107
   95.2256250000000        -2.834264468036215E-107
   95.4393750000000        -3.231838934372073E-107
   95.6531250000000        -2.976347390227985E-107
   95.8668750000000        -1.600845253208942E-107
   96.0806250000000         1.406055525884060E-107
   96.2943750000000         6.480343239935211E-107
   96.5081250000000         1.378798676879754E-106
   96.7218750000000         2.295446788446421E-106
   96.9356250000000         3.273971570784419E-106
   97.1493750000000         4.071332799295565E-106
   97.3631250000000         4.302859488474484E-106
   97.5768750000000         3.444206861821348E-106
   97.7906250000000         8.767229086512135E-107
   98.0043750000000        -4.003146686885726E-106
   98.2181250000000        -1.159282469231445E-105
   98.4318750000000        -2.180401146291076E-105
   98.6456250000000        -3.370858065088099E-105
   98.8593750000000        -4.515694172439211E-105
   99.0731250000000        -5.246010179417899E-105
   99.2868750000000        -5.027772378435635E-105
   99.5006250000000        -3.190243413095565E-105
   99.7143750000000         9.840980740737748E-106
   99.9281250000000         8.087706117860173E-105
   100.141875000000         1.832219240718341E-104
   100.355625000000         3.114488658484976E-104
   100.569375000000         4.486400403080472E-104
   100.783125000000         5.626045590423814E-104
   100.996875000000         6.036442124983515E-104
   101.210625000000         5.056487344011048E-104
   101.424375000000         1.926591861489584E-104
   101.638125000000        -4.069562258217959E-104
   101.851875000000        -1.337170356892219E-103
   102.065625000000        -2.581739140204257E-103
   102.279375000000        -4.024901065335686E-103
   102.493125000000        -5.411501562801690E-103
   102.706875000000        -6.317287854624638E-103
   102.920625000000        -6.144937389927694E-103
   103.134375000000        -4.165256146383171E-103
   103.348125000000         3.758376858675405E-104
   103.561875000000         8.067661866084118E-103
   103.775625000000         1.905660241137191E-102
   103.989375000000         3.269393332017660E-102
   104.203125000000         4.715460929349217E-102
   104.416875000000         5.911119818558575E-102
   104.630625000000         6.359017854451322E-102
   104.844375000000         5.417557757422998E-102
   105.058125000000         2.374338694089050E-102
   105.271875000000        -3.410879729186824E-102
   105.485625000000        -1.228490908652909E-101
   105.699375000000        -2.400800569133284E-101
   105.913125000000        -3.741907481453416E-101
   106.126875000000        -5.012091751339733E-101
   106.340625000000        -5.828320332700629E-101
   106.554375000000        -5.669452354444092E-101
   106.768125000000        -3.921566429459390E-101
   106.981875000000         2.199501486326574E-103
   107.195625000000         6.596193235516663E-101
   107.409375000000         1.583653390735409E-100
   107.623125000000         2.710651167666599E-100
   107.836875000000         3.882272525802291E-100
   108.050625000000         4.824836429628837E-100
   108.264375000000         5.145359156751059E-100
   108.478125000000         4.356112703937084E-100
   108.691875000000         1.939670439080203E-100
   108.905625000000        -2.536511342764036E-100
   109.119375000000        -9.254078097214914E-100
   109.333125000000        -1.793662171068498E-099
   109.546875000000        -2.762890450763748E-099
   109.760625000000        -3.651090849707103E-099
   109.974375000000        -4.181664444161851E-099
   110.188125000000        -3.994445757628634E-099
   110.401875000000        -2.685038728917083E-099
   110.615625000000         1.199726235788401E-100
   110.829375000000         4.648895238500145E-099
   111.043125000000         1.083694558547493E-098
   111.256875000000         1.816128609639435E-098
   111.470625000000         2.549067187826640E-098
   111.684375000000         3.099693272484964E-098
   111.898125000000         3.218859309430285E-098
   112.111875000000         2.613254312868949E-098
   112.325625000000         9.921851234331859E-099
   112.539375000000        -1.857956263209443E-098
   112.753125000000        -5.973637496966949E-098
   112.966875000000        -1.109838564984455E-097
   113.180625000000        -1.657097135329523E-097
   113.394375000000        -2.124809676619845E-097
   113.608125000000        -2.350159441224513E-097
   113.821875000000        -2.133514552975881E-097
   114.035625000000        -1.266211649262812E-097
   114.249375000000         4.229814251608022E-098
   114.463125000000         3.003335074632961E-097
   114.676875000000         6.365063318660136E-097
   114.890625000000         1.014154469214641E-096
   115.104375000000         1.364985659206990E-096
   115.318125000000         1.587512157385580E-096
   115.531875000000         1.552805239340827E-096
   115.745625000000         1.120386632461961E-096
   115.959375000000         1.661770379802439E-097
   116.173125000000        -1.377472827184241E-096
   116.386875000000        -3.472635815682766E-096
   116.600625000000        -5.924486078993816E-096
   116.814375000000        -8.339261412474602E-096
   117.028125000000        -1.010722530886929E-095
   117.241875000000        -1.042911920229123E-095
   117.455625000000        -8.404358174081144E-096
   117.669375000000        -3.194321451226505E-096
   117.883125000000         5.736903158150035E-096
   118.096875000000         1.831975970124644E-095
   118.310625000000         3.355391950129886E-095
   118.524375000000         4.922772485216664E-095
   118.738125000000         6.177653767126689E-095
   118.951875000000         6.639287834498868E-095
   119.165625000000         5.750266040578784E-095
   119.379375000000         2.969592408225965E-095
   119.593125000000        -2.086160399780116E-095
   119.806875000000        -9.461290379973104E-095
   120.020625000000        -1.866083831846302E-094
   120.234375000000        -2.847039978447391E-094
   120.448125000000        -3.685087020036335E-094
   120.661875000000        -4.097528895707604E-094
   120.875625000000        -3.747746422377931E-094
   121.089375000000        -2.296900395106518E-094
   121.303125000000         5.152603873542500E-095
   121.516875000000         4.764031289916144E-094
   121.730625000000         1.021949644793665E-093
   121.944375000000         1.623379704546655E-093
   122.158125000000         2.166720744554134E-093
   122.371875000000         2.489200183673964E-093
   122.585625000000         2.391559004232544E-093
   122.799375000000         1.665829077231865E-093
   123.013125000000         1.403231718478852E-094
   123.226875000000        -2.259581443569983E-093
   123.440625000000        -5.440814743389695E-093
   123.654375000000        -9.073628549312462E-093
   123.868125000000        -1.254150832003491E-092