  -1.60312500000000         0.000000000000000E+000
  -1.38937500000000         0.000000000000000E+000
  -1.17562500000000         0.000000000000000E+000
 -0.961875000000000         0.000000000000000E+000
 -0.748125000000000         0.000000000000000E+000
 -0.534375000000000         0.000000000000000E+000
 -0.320625000000000         0.000000000000000E+000
 -0.106875000000000         0.000000000000000E+000
  0.106875000000000         0.000000000000000E+000
  0.320625000000000         0.000000000000000E+000
  0.534375000000000         0.000000000000000E+000
  0.748125000000000         0.000000000000000E+000
  0.961875000000000         0.000000000000000E+000
   1.17562500000000         0.000000000000000E+000
   1.38937500000000         0.000000000000000E+000
   1.60312500000000         0.000000000000000E+000
   1.81687500000000         0.000000000000000E+000
   2.03062500000000         0.000000000000000E+000
   2.24437500000000         0.000000000000000E+000
   2.45812500000000         0.000000000000000E+000
   2.67187500000000         0.000000000000000E+000
   2.88562500000000         0.000000000000000E+000
   3.09937500000000         0.000000000000000E+000
   3.31312500000000         0.000000000000000E+000
   3.52687500000000         0.000000000000000E+000
   3.74062500000000         0.000000000000000E+000
   3.95437500000000         0.000000000000000E+000
   4.16812500000000         0.000000000000000E+000
   4.38187500000000         0.000000000000000E+000
   4.59562500000000         0.000000000000000E+000
   4.80937500000000         0.000000000000000E+000
   5.02312500000000         0.000000000000000E+000
   5.23687500000000         0.000000000000000E+000
   5.45062500000000         0.000000000000000E+000
   5.66437500000000         0.000000000000000E+000
   5.87812500000000         0.000000000000000E+000
   6.09187500000000         0.000000000000000E+000
   6.30562500000000         0.000000000000000E+000
   6.51937500000000         0.000000000000000E+000
   6.73312500000000         0.000000000000000E+000
   6.94687500000000         0.000000000000000E+000
   7.16062500000000         0.000000000000000E+000
   7.37437500000000         0.000000000000000E+000
   7.58812500000000         0.000000000000000E+000
   7.80187500000000         0.000000000000000E+000
   8.01562500000000         0.000000000000000E+000
   8.22937500000000         0.000000000000000E+000
   8.44312500000000         0.000000000000000E+000
   8.65687500000000         0.000000000000000E+000
   8.87062500000000         0.000000000000000E+000
   9.08437500000000         0.000000000000000E+000
   9.29812500000000         0.000000000000000E+000
   9.51187500000000         0.000000000000000E+000
   9.72562500000000         0.000000000000000E+000
   9.93937500000000         0.000000000000000E+000
   10.1531250000000         0.000000000000000E+000
   10.3668750000000         0.000000000000000E+000
   10.5806250000000         0.000000000000000E+000
   10.7943750000000         0.000000000000000E+000
   11.0081250000000        -2.548363065388762E-244
   11.2218750000000         9.117009586523461E-238
   11.4356250000000         1.516858759539220E-235
   11.6493750000000         1.917644649173860E-230
   11.8631250000000         5.126161031565096E-228
   12.0768750000000         4.565911670931706E-226
   12.2906250000000         2.805454980920075E-224
   12.5043750000000         1.190543364573720E-222
   12.7181250000000         3.551520379387072E-221
   12.9318750000000         7.682801193896900E-220
   13.1456250000000         1.209345764482889E-218
   13.3593750000000         1.272805600674351E-217
   13.5731250000000         4.161362758913305E-217
   13.7868750000000        -1.731671388962949E-215
   14.0006250000000        -5.059612371127317E-214
   14.2143750000000        -8.894139248158320E-213
   14.4281250000000        -1.223627194399569E-211
   14.6418750000000        -1.418754293194101E-210
   14.8556250000000        -1.431788340154736E-209
   15.0693750000000        -1.278529794951075E-208
   15.2831250000000        -1.018497009718468E-207
   15.4968750000000        -7.254090784652298E-207
   15.7106250000000        -4.600422837929310E-206
   15.9243750000000        -2.562125384060885E-205
   16.1381250000000        -1.210239883247638E-204
   16.3518750000000        -4.383466871096330E-204
   16.5656250000000        -6.980247463160872E-204
   16.7793750000000         6.349595636447259E-203
   16.9931250000000         8.407186639782731E-202
   17.2068750000000         6.446158214777937E-201
   17.4206250000000         3.923187359722800E-200
   17.6343750000000         2.034263326621206E-199
   17.8481250000000         9.157484538837616E-199
   18.0618750000000         3.548750506753857E-198
   18.2756250000000         1.130724480815797E-197
   18.4893750000000         2.497857736972359E-197
   18.7031250000000        -1.906382900073697E-198
   18.9168750000000        -4.143979232601144E-196
   19.1306250000000        -2.923304779757662E-195
   19.3443750000000        -1.417828693497161E-194
   19.5581250000000        -5.431509563839544E-194
   19.7718750000000        -1.623391262979810E-193
   19.9856250000000        -3.070066820740017E-193
   20.1993750000000         2.987028754108217E-193
   20.4131250000000         6.577262957328938E-192
   20.6268750000000         4.081089132541748E-191
   20.8406250000000         1.851585210722461E-190
   21.0543750000000         6.887402506947489E-190
   21.2681250000000         2.125832837887380E-189
   21.4818750000000         5.100703720353495E-189
   21.6956250000000         6.518536402298009E-189
   21.9093750000000        -2.020891679500678E-188
   22.1231250000000        -2.050601066795598E-187
   22.3368750000000        -1.050970954966069E-186
   22.5506250000000        -4.204536849701153E-186
   22.7643750000000        -1.424555339316772E-185
   22.9781250000000        -4.144010452356667E-185
   23.1918750000000        -1.002412886189898E-184
   23.4056250000000        -1.748518526256198E-184
   23.6193750000000        -4.024528161348517E-185
   23.8331250000000         1.418525672600358E-183
   24.0468750000000         8.356541704343391E-183
   24.2606250000000         3.374535618389583E-182
   24.4743750000000         1.121675988990087E-181
   24.6881250000000         3.198560295136998E-181
   24.9018750000000         7.759982307279486E-181
   25.1156250000000         1.489632897406157E-180
   25.3293750000000         1.559757758754720E-180
   25.5431250000000        -3.734944568155720E-180
   25.7568750000000        -3.163336584170446E-179
   25.9706250000000        -1.339616715459025E-178
   26.1843750000000        -4.436085948016971E-178
   26.3981250000000        -1.246093769781846E-177
   26.6118750000000        -3.004436657608332E-177
   26.8256250000000        -5.993087815547708E-177
   27.0393750000000        -8.399820260153825E-177
   27.2531250000000         1.759387865085158E-178
   27.4668750000000         5.669718695570722E-176
   27.6806250000000         2.662122145051445E-175
   27.8943750000000         8.791220950767567E-175
   28.1081250000000         2.385371500906832E-174
   28.3218750000000         5.468498264974111E-174
   28.5356250000000         1.023694126976050E-173
   28.7493750000000         1.309515876376923E-173
   28.9631250000000        -2.514957552483419E-174
   29.1768750000000        -8.847514865452131E-173
   29.3906250000000        -3.761909807473394E-172
   29.6043750000000        -1.141126538930065E-171
   29.8181250000000        -2.833182268212238E-171
   30.0318750000000        -5.850987093468179E-171
   30.2456250000000        -9.421349294363506E-171
   30.4593750000000        -8.096580800484063E-171
   30.6731250000000         1.695096968936161E-170
   30.8868750000000         1.157707622230837E-169
   31.1006250000000         3.983353920784700E-169
   31.3143750000000         1.061357573760458E-168
   31.5281250000000         2.353355583290236E-168
   31.7418750000000         4.300687374307082E-168
   31.9556250000000         5.778699682786734E-168
   32.1693750000000         2.130366426616039E-168
   32.3831250000000        -1.984025771961035E-167
   32.5968750000000        -9.036332349374049E-167
   32.8106250000000        -2.666442125386131E-166
   33.0243750000000        -6.324557689074309E-166
   33.2381250000000        -1.251387465531806E-165
   33.4518750000000        -1.989090908777524E-165
   33.6656250000000        -2.042143204094812E-165
   33.8793750000000         1.069838060276216E-165
   34.0931250000000         1.326180319984066E-164
   34.3068750000000         4.614838661549432E-164
   34.5206250000000         1.180236214275709E-163
   34.7343750000000         2.479627429317608E-163
   34.9481250000000         4.299562688564964E-163
   35.1618750000000         5.622152643895783E-163
   35.3756250000000         2.944468197296989E-163
   35.5893750000000        -1.241538288405124E-162
   35.8031250000000        -5.794699203562899E-162
   36.0168750000000        -1.623239891546498E-161
   36.2306250000000        -3.596629555966981E-161
   36.4443750000000        -6.598357334294814E-161
   36.6581250000000        -9.653921921516987E-161
   36.8718750000000        -8.919815857093120E-161
   37.0856250000000         5.473740431234854E-161
   37.2993750000000         5.371113341174240E-160
   37.5131250000000         1.694508140230468E-159
   37.7268750000000         3.949319371228858E-159
   37.9406250000000         7.525494850218471E-159
   38.1543750000000         1.165140756234832E-158
   38.3681250000000         1.286261431313080E-158
   38.5818750000000         2.084029621713929E-159
   38.7956250000000        -3.921673095627865E-158
   39.0093750000000        -1.416950119044410E-157
   39.2231250000000        -3.435683954396472E-157
   39.4368750000000        -6.659946904950594E-157
   39.6506250000000        -1.046619070009059E-156
   39.8643750000000        -1.203316300070014E-156
   40.0781250000000        -4.103325471526831E-157
   40.2918750000000         2.776094391356020E-156
   40.5056250000000         1.065935371987748E-155
   40.7193750000000         2.593340606557267E-155
   40.9331250000000         4.965246504136852E-155
   41.1468750000000         7.613334366292734E-155
   41.3606250000000         8.305666742527665E-155
   41.5743750000000         1.615477959737750E-155
   41.7881250000000        -2.276926980030443E-154
   42.0018750000000        -8.043939679200756E-154
   42.2156250000000        -1.878751622428604E-153
   42.4293750000000        -3.467356065997177E-153
   42.6431250000000        -5.070636259135438E-153
   42.8568750000000        -4.992263804350032E-153
   43.0706250000000         6.632894527051362E-154
   43.2843750000000         1.900948654784225E-152
   43.4981250000000         6.038787382207567E-152
   43.7118750000000         1.350369469434919E-151
   43.9256250000000         2.421847963760784E-151
   44.1393750000000         3.454046158657730E-151
   44.3531250000000         3.279777072910594E-151
   44.5668750000000        -7.210792144607629E-152
   44.7806250000000        -1.328605453908635E-150
   44.9943750000000        -4.132567025216009E-150
   45.2081250000000        -9.196158676167932E-150
   45.4218750000000        -1.659878501997070E-149
   45.6356250000000        -2.429740388476578E-149
   45.8493750000000        -2.539237749410925E-149
   46.0631250000000        -4.024453942826132E-150
   46.2768750000000         6.921702400397210E-149
   46.4906250000000         2.391670643026311E-148
   46.7043750000000         5.577093334040359E-148
   46.9181250000000         1.051014767244450E-147
   47.1318750000000         1.640486413311641E-147
   47.3456250000000         1.990991939731325E-147
   47.5593750000000         1.269302070637156E-147
   47.7731250000000        -2.161075099276514E-147
   47.9868750000000        -1.097370732412312E-146
   48.2006250000000        -2.869315218808513E-146
   48.4143750000000        -5.839230352855298E-146
   48.6281250000000        -9.911716340206483E-146
   48.8418750000000        -1.384732112692342E-145
   49.0556250000000        -1.398815354974215E-145
   49.2693750000000        -2.445647693611555E-146
   49.4831250000000         3.482351179917773E-145
   49.6968750000000         1.187019481545152E-144
   49.9106250000000         2.733718529006371E-144
   50.1243750000000         5.131625141605848E-144
   50.3381250000000         8.116454485247130E-144
   50.5518750000000         1.043227105225703E-143
   50.7656250000000         8.904164973801715E-144
   50.9793750000000        -2.763375610114392E-144
   51.1931250000000        -3.505200329447907E-143
   51.4068750000000        -1.024830168684410E-142
   51.6206250000000        -2.200966488248229E-142
   51.8343750000000        -3.929285453676044E-142
   52.0481250000000        -5.934036003931532E-142
   52.2618750000000        -7.212291800882537E-142
   52.4756250000000        -5.434023485185859E-142
   52.6893750000000         3.778037512573765E-142
   52.9031250000000         2.738054167173762E-141
   53.1168750000000         7.452790065024664E-141
   53.3306250000000         1.539109611495321E-140
   53.5443750000000         2.666492845495558E-140
   53.7581250000000         3.918914811018218E-140
   53.9718750000000         4.624071917426030E-140
   54.1856250000000         3.296989276567108E-140
   54.3993750000000        -2.753872434107273E-140
   54.6131250000000        -1.767139328779583E-139
   54.8268750000000        -4.671974616272769E-139
   55.0406250000000        -9.461695567728019E-139
   55.2543750000000        -1.613742876739294E-138
   55.4681250000000        -2.342049527503016E-138
   55.6818750000000        -2.742662555203741E-138
   55.8956250000000        -1.983512983442312E-138
   56.1093750000000         1.408424123663868E-138
   56.3231250000000         9.653162347090110E-138
   56.5368750000000         2.551270149982268E-137
   56.7506250000000         5.139635386944122E-137
   56.9643750000000         8.722350249203936E-137
   57.1781250000000         1.263867736075182E-136
   57.3918750000000         1.493015372517455E-136
   57.6056250000000         1.147192406916374E-136
   57.8193750000000        -4.934320122257153E-137
   58.0331250000000        -4.500409811129033E-136
   58.2468750000000        -1.219451778602469E-135
   58.4606250000000        -2.472839068597369E-135
   58.6743750000000        -4.211617603830709E-135
   58.8881250000000        -6.143732642802987E-135
   59.1018750000000        -7.401666448152494E-135
   59.3156250000000        -6.168935987302232E-135
   59.5293750000000         7.034571685870775E-136
   59.7431250000000         1.788011005597357E-134
   59.9568750000000         5.111376812348843E-134
   60.1706250000000         1.055380452077290E-133
   60.3843750000000         1.817529193755857E-133
   60.5981250000000         2.686673764246969E-133
   60.8118750000000         3.323847003347779E-133
   61.0256250000000         3.016074711715153E-133
   61.2393750000000         5.268866843818524E-134
   61.4531250000000        -5.978217165446840E-133
   61.6668750000000        -1.878142675580186E-132
   61.8806250000000        -3.999679368710167E-132
   62.0943750000000        -7.016066471713216E-132
   62.3081250000000        -1.056673851054090E-131
   62.5218750000000        -1.348056809303543E-131
   62.7356250000000        -1.325612735675624E-131
   62.9493750000000        -5.524217265563454E-132
   63.1631250000000         1.624569039191452E-131
   63.3768750000000         6.030127322110785E-131
   63.5906250000000         1.346412658185780E-130
   63.8043750000000         2.424672339210051E-130
   64.0181250000000         3.738933552258968E-130
   64.2318750000000         4.931184920438316E-130
   64.4456250000000         5.215240371158726E-130
   64.6593750000000         3.198604652934713E-130
   64.8731250000000        -3.226418717076690E-130
   65.0868750000000        -1.677519056036971E-129
   65.3006250000000        -4.021423161739140E-129
   65.5143750000000        -7.504234122537809E-129
   65.7281250000000        -1.190653214834189E-128
   65.9418750000000        -1.626195800814883E-128
   66.1556250000000        -1.835465816987710E-128
   66.3693750000000        -1.417602925133973E-128
   66.5831250000000         2.447663255330784E-129
   66.7968750000000         3.965861038666312E-128
   67.0106250000000         1.061727430128759E-127
   67.2243750000000         2.078377051543387E-127
   67.4381250000000         3.412017761487201E-127
   67.6518750000000         4.833885609557504E-127
   67.8656250000000         5.784310890056082E-127
   68.0793750000000         5.220603240614481E-127
   68.2931250000000         1.501085211750689E-127
   68.5068750000000        -7.596793015971919E-127
   68.7206250000000        -2.456888836480533E-126
   68.9343750000000        -5.137630260803902E-126
   69.1481250000000        -8.789917915306928E-126
   69.3618750000000        -1.294636310322096E-125
   69.5756250000000        -1.634445801987230E-125
   69.7893750000000        -1.653632227408337E-125
   70.0031250000000        -9.561560363737750E-126
   70.2168750000000         1.009778012932917E-125
   70.4306250000000         4.892969656318293E-125
   70.6443750000000         1.126914583680934E-124
   70.8581250000000         2.030436954689208E-124
   71.0718750000000         3.120532271494555E-124
   71.2856250000000         4.144818139248255E-124
   71.4993750000000         4.586299481351511E-124
   71.7131250000000         3.579881387431673E-124
   71.9268750000000        -1.186037324710698E-125
   72.1406250000000        -8.038775834589874E-124
   72.3543750000000        -2.167727921942409E-123
   72.5681250000000        -4.183682706808243E-123
   72.7818750000000        -6.751691710256846E-123
   72.9956250000000        -9.431872982675126E-123
   73.2093750000000        -1.124843023275746E-122
   73.4231250000000        -1.049686384890872E-122
   73.6368750000000        -4.635955010906394E-123
   73.8506250000000         9.600731075044869E-123
   74.0643750000000         3.568309827008364E-122
   74.2781250000000         7.612243088955891E-122
   74.4918750000000         1.304488677407796E-121
   74.7056250000000         1.922149003843277E-121
   74.9193750000000         2.451723868637010E-121
   75.1331250000000         2.592432450420568E-121
   75.3468750000000         1.876220874171373E-121
   75.5606250000000        -3.271318653085157E-122
   75.7743750000000        -4.737839606692071E-121
   75.9881250000000        -1.198579620673533E-120
   76.2018750000000        -2.228026907710326E-120
   76.4156250000000        -3.490173719483214E-120
   76.6293750000000        -4.752609800480799E-120
   76.8431250000000        -5.546315264495853E-120
   77.0568750000000        -5.100300046694632E-120
   77.2706250000000        -2.321389501543901E-120
   77.4843750000000         4.129397402485179E-120
   77.6981250000000         1.559731964200770E-119
   77.9118750000000         3.295873086563202E-119
   78.1256250000000         5.585159088428863E-119
   78.3393750000000         8.160024118901762E-119
   78.5531250000000         1.039181035359317E-118
   78.7668750000000         1.116263092540435E-118
   78.9806250000000         8.784158428679842E-119
   79.1943750000000         1.034597583210191E-119
   79.4081250000000        -1.458922704506990E-118
   79.6218750000000        -4.029094743556874E-118
   79.8356250000000        -7.695651453875050E-118
   80.0493750000000        -1.226355451097397E-117
   80.2631250000000        -1.705637815372957E-117
   80.4768750000000        -2.069516400177523E-117
   80.6906250000000        -2.090357214707762E-117
   80.9043750000000        -1.442424932936279E-117
   81.1181250000000         2.829250117210356E-118
   81.3318750000000         3.522528172015020E-117
   81.5456250000000         8.629432265562605E-117
   81.7593750000000         1.568789899791934E-116
   81.9731250000000         2.424783358765596E-116
   82.1868750000000         3.298828910747848E-116
   82.4006250000000         3.934842284440740E-116
   82.6143750000000         3.920604425601705E-116
   82.8281250000000         2.673801274229579E-116
   83.0418750000000        -5.341120818312208E-117
   83.2556250000000        -6.490546146362804E-116
   83.4693750000000        -1.586108983607393E-115
   83.6831250000000        -2.888607521533613E-115
   83.8968750000000        -4.493361729424477E-115
   84.1106250000000        -6.191006363343364E-115
   84.3243750000000        -7.556923654440459E-115
   84.5381250000000        -7.882690196247422E-115
   84.7518750000000        -6.128118650779710E-115
   84.9656250000000        -9.263997817442800E-116
   85.1793750000000         9.310435555342120E-115
   85.3931250000000         2.612367527711727E-114
   85.6068750000000         5.050510484219162E-114
   85.8206250000000         8.208802246721684E-114
   86.0343750000000         1.179860626399609E-113
   86.2481250000000         1.512989193000473E-113
   86.4618750000000         1.694288347535348E-113
   86.6756250000000         1.525559011480715E-113
   86.8893750000000         7.291641828554334E-114
   87.1031250000000        -1.040901359928892E-113
   87.3168750000000        -4.155183025181326E-113
   87.5306250000000        -8.914150542073008E-113
   87.7443750000000        -1.538379977341871E-112
   87.9581250000000        -2.314710302382051E-112
   88.1718750000000        -3.097121564309350E-112
   88.3856250000000        -3.641900095402249E-112
   88.5993750000000        -3.548080551384922E-112
   88.8131250000000        -2.237048650693134E-112
   89.0268750000000         1.028497550179144E-112
   89.2406250000000         7.054333805760346E-112
   89.4543750000000         1.651468524835063E-111
   89.6681250000000         2.960403107089579E-111
   89.8818750000000         4.551599795416590E-111
   90.0956250000000         6.175979193945113E-111
   90.3093750000000         7.338975517260298E-111
   90.5231250000000         7.232460291302875E-111
   90.7368750000000         4.706870351754096E-111
   90.9506250000000        -1.669552507920381E-111
   91.1643750000000        -1.340314453990791E-110
   91.3781250000000        -3.165060319872253E-110
   91.5918750000000        -5.651953466568164E-110
   91.8056250000000        -8.607310966365734E-110
   92.0193750000000        -1.150975226350662E-109
   92.2331250000000        -1.338224088365446E-109
   92.4468750000000        -1.269708325989577E-109
   92.6606250000000        -7.374405157971869E-110
   92.8743750000000         5.042121471569234E-110
   93.0881250000000         2.693218549999441E-109
   93.3018750000000         5.977023078443055E-109
   93.5156250000000         1.028587700461321E-108
   93.7293750000000         1.516477757444359E-108
   93.9431250000000         1.958181420526406E-108
   94.1568750000000         2.175360376777629E-108
   94.3706250000000         1.905791736446204E-108
   94.5843750000000         8.135686609637769E-109
   94.7981250000000        -1.468865295626773E-108
   95.0118750000000        -5.253103297809391E-108
   95.2256250000000        -1.065061268718348E-107
   95.4393750000000        -1.736958389866421E-107
   95.6531250000000        -2.446672413162410E-107
   95.8668750000000        -3.009346899188884E-107
   96.0806250000000        -3.131033758909231E-107
   96.2943750000000        -2.408258161873448E-107
   96.5081250000000        -3.606870238369292E-108
   96.7218750000000         3.486106181787498E-107
   96.9356250000000         9.452347996771519E-107
   97.1493750000000         1.748233464689089E-106
   97.3631250000000         2.685729571376006E-106
   97.5768750000000         3.587705896011930E-106
   97.7906250000000         4.158128004804630E-106
   98.0043750000000         3.962504939460325E-106
   98.2181250000000         2.446782796160983E-106
   98.4318750000000        -9.934276165040996E-107
   98.6456250000000        -6.874432104233361E-106
   98.8593750000000        -1.540384584475572E-105
   99.0731250000000        -2.617902469141099E-105
   99.2868750000000        -3.783053936176724E-105
   99.5006250000000        -4.767275160922332E-105
   99.7143750000000        -5.146882995275077E-105
   99.9281250000000        -4.346573234255793E-105
   100.141875000000        -1.689388629889854E-105
   100.355625000000         3.486164019815109E-105
   100.569375000000         1.162505038513342E-104
   100.783125000000         2.266552574298413E-104
   100.996875000000         3.567639528419521E-104
   101.210625000000         4.847131582728864E-104
   101.424375000000         5.729287867984245E-104
   101.638125000000         5.670749603515660E-104
   101.851875000000         3.989550002596066E-104
   102.065625000000        -4.565367219857500E-106
   102.279375000000        -7.047384821777131E-104
   102.493125000000        -1.725210572650862E-103
   102.706875000000        -3.018155400275435E-103
   102.920625000000        -4.425851130502894E-103
   103.134375000000        -5.645116134469524E-103
   103.348125000000        -6.206498133081701E-103
   103.561875000000        -5.484445523761149E-103
   103.775625000000        -2.757572685330741E-103
   103.989375000000         2.662252007100340E-103
   104.203125000000         1.121908380904475E-102
   104.416875000000         2.282084748006824E-102
   104.630625000000         3.648912103338266E-102
   104.844375000000         5.000564880784764E-102
   105.058125000000         5.964918044636597E-102
   105.271875000000         6.015594672507831E-102
   105.485625000000         4.506766960409230E-102
   105.699375000000         7.637960380166476E-103
   105.913125000000        -5.756655472635557E-102
   106.126875000000        -1.523285844519670E-101
   106.340625000000        -2.718334770961291E-101
   106.554375000000        -4.014892786749189E-101
   106.768125000000        -5.142025652486141E-101
   106.981875000000        -5.691362435343077E-101
   107.195625000000        -5.132622783632095E-101
   107.409375000000        -2.871489827159705E-101
   107.623125000000         1.637495461761775E-101
   107.836875000000         8.716543914615005E-101
   108.050625000000         1.823421050956657E-100
   108.264375000000         2.934271965127828E-100
   108.478125000000         4.023062090467733E-100
   108.691875000000         4.796510146060931E-100
   108.905625000000         4.852271203174521E-100
   109.119375000000         3.712151547029305E-100
   109.333125000000         8.961528166151453E-101
   109.546875000000        -3.955754234288525E-100
   109.760625000000        -1.091520386039988E-099
   109.974375000000        -1.956416761678639E-099
   110.188125000000        -2.879181935919179E-099
   110.401875000000        -3.664042323064879E-099
   110.615625000000        -4.027035992531231E-099
   110.829375000000        -3.612754026484925E-099
   111.043125000000        -2.039633278072419E-099
   111.256875000000         1.020040211305606E-099
   111.470625000000         5.724316528136168E-099
   111.684375000000         1.191730243926449E-098
   111.898125000000         1.897550526800938E-098
   112.111875000000         2.567792598707895E-098
   112.325625000000         3.014716745552414E-098
   112.539375000000         2.991951738975583E-098
   112.753125000000         2.220440443030378E-098
   112.966875000000         4.382217090222135E-099
   113.180625000000        -2.524119422278165E-098
   113.394375000000        -6.645868544511499E-098
   113.608125000000        -1.160768078982801E-097
   113.821875000000        -1.669280015574629E-097
   114.035625000000        -2.072845550379990E-097
   114.249375000000        -2.210585495634481E-097
   114.463125000000        -1.892020991123746E-097
   114.676875000000        -9.266597512288900E-098
   114.890625000000         8.290435776034608E-098
   115.104375000000         3.408850604663700E-097
   115.318125000000         6.664357270713342E-097
   115.531875000000         1.019546507748705E-096
   115.745625000000         1.330259966889537E-096
   115.959375000000         1.498511793126193E-096
   116.173125000000         1.401300650626092E-096
   116.386875000000         9.096421595049313E-097
   116.600625000000        -8.325116057829005E-098
   116.814375000000        -1.623075639264925E-096
   117.028125000000        -3.648285414411183E-096
   117.241875000000        -5.943914458806546E-096
   117.455625000000        -8.106733873390686E-096
   117.669375000000        -9.536777578226236E-096
   117.883125000000        -9.472306293790017E-096
   118.096875000000        -7.084251478117099E-096
   118.310625000000        -1.640609021507163E-096
   118.524375000000         7.260049108688164E-096
   118.738125000000         1.940424335279408E-095
   118.951875000000         3.366951896315475E-095
   119.165625000000         4.778719884527672E-095
   119.379375000000         5.825190628662906E-095
   119.593125000000         6.048220639044273E-095
   119.806875000000         4.933357057756907E-095
   120.020625000000         2.003519001605771E-095
   120.234375000000        -3.044151323386033E-095
   120.448125000000        -1.016757690625682E-094
   120.661875000000        -1.879789833404136E-094
   120.875625000000        -2.768451293540682E-094
   121.089375000000        -3.481951428970701E-094
   121.303125000000        -3.750376212448719E-094
   121.516875000000        -3.261677613376760E-094
   121.730625000000        -1.713752836009569E-094
   121.944375000000         1.107157118116156E-094
   122.158125000000         5.226195400927384E-094
   122.371875000000         1.036988830108508E-093
   122.585625000000         1.586752618613358E-093
   122.799375000000         2.059380304417921E-093
   123.013125000000         2.298894549129980E-093
   123.226875000000         2.119368460382891E-093
   123.440625000000         1.332923482003813E-093
   123.654375000000        -2.065798424162029E-094
   123.868125000000        -2.546052722827264E-093