  -1.60312500000000         0.000000000000000E+000
  -1.38937500000000         0.000000000000000E+000
  -1.17562500000000         0.000000000000000E+000
 -0.961875000000000         0.000000000000000E+000
 -0.748125000000000         0.000000000000000E+000
 -0.534375000000000         0.000000000000000E+000
 -0.320625000000000         0.000000000000000E+000
 -0.106875000000000         0.000000000000000E+000
  0.106875000000000         0.000000000000000E+000
  0.320625000000000         0.000000000000000E+000
  0.534375000000000         0.000000000000000E+000
  0.748125000000000         0.000000000000000E+000
  0.961875000000000         0.000000000000000E+000
   1.17562500000000         0.000000000000000E+000
   1.38937500000000         0.000000000000000E+000
   1.60312500000000         0.000000000000000E+000
   1.81687500000000         0.000000000000000E+000
   2.03062500000000         0.000000000000000E+000
   2.24437500000000         0.000000000000000E+000
   2.45812500000000         0.000000000000000E+000
   2.67187500000000         0.000000000000000E+000
   2.88562500000000         0.000000000000000E+000
   3.09937500000000         0.000000000000000E+000
   3.31312500000000         0.000000000000000E+000
   3.52687500000000         0.000000000000000E+000
   3.74062500000000         0.000000000000000E+000
   3.95437500000000         0.000000000000000E+000
   4.16812500000000         0.000000000000000E+000
   4.38187500000000         0.000000000000000E+000
   4.59562500000000         0.000000000000000E+000
   4.80937500000000         0.000000000000000E+000
   5.02312500000000         0.000000000000000E+000
   5.23687500000000         0.000000000000000E+000
   5.45062500000000         0.000000000000000E+000
   5.66437500000000         0.000000000000000E+000
   5.87812500000000         0.000000000000000E+000
   6.09187500000000         0.000000000000000E+000
   6.30562500000000         0.000000000000000E+000
   6.51937500000000         0.000000000000000E+000
   6.73312500000000         0.000000000000000E+000
   6.94687500000000         0.000000000000000E+000
   7.16062500000000         0.000000000000000E+000
   7.37437500000000         0.000000000000000E+000
   7.58812500000000         0.000000000000000E+000
   7.80187500000000         0.000000000000000E+000
   8.01562500000000         0.000000000000000E+000
   8.22937500000000         0.000000000000000E+000
   8.44312500000000         0.000000000000000E+000
   8.65687500000000         0.000000000000000E+000
   8.87062500000000         0.000000000000000E+000
   9.08437500000000         0.000000000000000E+000
   9.29812500000000         0.000000000000000E+000
   9.51187500000000         0.000000000000000E+000
   9.72562500000000         0.000000000000000E+000
   9.93937500000000         0.000000000000000E+000
   10.1531250000000         0.000000000000000E+000
   10.3668750000000         0.000000000000000E+000
   10.5806250000000         0.000000000000000E+000
   10.7943750000000        -5.577621701887105E-243
   11.0081250000000         1.995447965965507E-236
   11.2218750000000         3.280051407966208E-234
   11.4356250000000         4.197097288150235E-229
   11.6493750000000         1.113572485814848E-226
   11.8631250000000         9.769472102355619E-225
   12.0768750000000         5.941573792643693E-223
   12.2906250000000         2.483944283431975E-221
   12.5043750000000         7.258229825690233E-220
   12.7181250000000         1.528681520148334E-218
   12.9318750000000         2.318369436852285E-217
   13.1456250000000         2.273233881679386E-216
   13.3593750000000         3.801098203783219E-216
   13.5731250000000        -3.944424528593624E-214
   13.7868750000000        -1.030687974955891E-212
   14.0006250000000        -1.728976926988268E-211
   14.2143750000000        -2.299902787034708E-210
   14.4281250000000        -2.589072589445988E-209
   14.6418750000000        -2.539500024672014E-208
   14.8556250000000        -2.202627094508821E-207
   15.0693750000000        -1.700864258551596E-206
   15.2831250000000        -1.169853232315824E-205
   15.4968750000000        -7.116483035673358E-205
   15.7106250000000        -3.752718113490609E-204
   15.9243750000000        -1.628002401701183E-203
   16.1381250000000        -4.857179205651554E-203
   16.3518750000000         1.261672628507422E-203
   16.5656250000000         1.599353990239963E-201
   16.7793750000000         1.546861469933132E-200
   16.9931250000000         1.056755507554103E-199
   17.2068750000000         5.948967727593537E-199
   17.4206250000000         2.876153208055923E-198
   17.6343750000000         1.199691199960053E-197
   17.8481250000000         4.203806833743753E-197
   18.0618750000000         1.121820402538140E-196
   18.2756250000000         1.294147425362799E-196
   18.4893750000000        -8.876586782966472E-196
   18.7031250000000        -8.439800665427170E-195
   18.9168750000000        -4.588440211784837E-194
   19.1306250000000        -1.914260179603467E-193
   19.3443750000000        -6.321387432322538E-193
   19.5581250000000        -1.485852811187837E-192
   19.7718750000000        -8.020196325200391E-193
   19.9856250000000         1.642356118077155E-191
   20.1993750000000         1.241621126376425E-190
   20.4131250000000         6.118547143787517E-190
   20.6268750000000         2.410073557073754E-189
   20.8406250000000         7.862584177026483E-189
   21.0543750000000         2.043182342754634E-188
   21.2681250000000         3.365747098167058E-188
   21.4818750000000        -3.407901399862601E-188
   21.6956250000000        -6.160180213645079E-187
   21.9093750000000        -3.460866300052628E-186
   22.1231250000000        -1.446866322551389E-185
   22.3368750000000        -5.050782222656847E-185
   22.5506250000000        -1.507461583115541E-184
   22.7643750000000        -3.754407214403312E-184
   22.9781250000000        -6.917767893579397E-184
   23.1918750000000        -3.460211054058451E-184
   23.4056250000000         4.579151411101174E-183
   23.6193750000000         2.898208697544863E-182
   23.8331250000000         1.199246554364996E-181
   24.0468750000000         4.038340346293906E-181
   24.2606250000000         1.160746693709474E-180
   24.4743750000000         2.829258926019289E-180
   24.6881250000000         5.437926650378481E-180
   24.9018750000000         5.635757255118987E-180
   25.1156250000000        -1.408454825111909E-179
   25.3293750000000        -1.174203823564777E-178
   25.5431250000000        -4.947293227265998E-178
   25.7568750000000        -1.629052564399836E-177
   25.9706250000000        -4.537598414316263E-177
   26.1843750000000        -1.078678845127002E-176
   26.3981250000000        -2.092093075550278E-176
   26.6118750000000        -2.692785106091614E-176
   26.8256250000000         1.273649931716723E-176
   27.0393750000000         2.403746299515000E-175
   27.2531250000000         1.049386581800324E-174
   27.4668750000000         3.348586532722980E-174
   27.6806250000000         8.829133953496538E-174
   27.8943750000000         1.955259040954195E-173
   28.1081250000000         3.451323515857221E-173
   28.3218750000000         3.688664526042989E-173
   28.5356250000000        -4.180925162948255E-173
   28.7493750000000        -4.042178324464718E-172
   28.9631250000000        -1.539757459146492E-171
   29.1768750000000        -4.415841121510873E-171
   29.3906250000000        -1.044494458799428E-170
   29.6043750000000        -2.029194998473536E-170
   29.8181250000000        -2.901677170490787E-170
   30.0318750000000        -1.209386547687183E-170
   30.2456250000000         1.071400993350383E-169
   30.4593750000000         5.192223411449127E-169
   30.6731250000000         1.614658695259428E-168
   30.8868750000000         4.021637286203108E-168
   31.1006250000000         8.327103490613345E-168
   31.3143750000000         1.376644197608107E-167
   31.5281250000000         1.434334052021897E-167
   31.7418750000000        -1.027203135405101E-167
   31.9556250000000        -1.122007168488158E-166
   32.1693750000000        -4.010213798993073E-166
   32.3831250000000        -1.062670997635457E-165
   32.5968750000000        -2.314729554162827E-165
   32.8106250000000        -4.148272189300125E-165
   33.0243750000000        -5.540059839388406E-165
   33.2381250000000        -2.599566288350614E-165
   33.4518750000000         1.498501195835287E-164
   33.6656250000000         6.927333121988043E-164
   33.8793750000000         1.987343004727538E-163
   34.0931250000000         4.529446905610988E-163
   34.3068750000000         8.533475904965865E-163
   34.5206250000000         1.270848722100903E-162
   34.7343750000000         1.139318724706724E-162
   34.9481250000000        -1.088543464678310E-162
   35.1618750000000        -8.755431131749777E-162
   35.3756250000000        -2.775755496132022E-161
   35.5893750000000        -6.603715729608049E-161
   35.8031250000000        -1.287953500193685E-160
   36.0168750000000        -2.034665721648973E-160
   36.2306250000000        -2.250731482851833E-160
   36.4443750000000        -1.178330347538647E-161
   36.6581250000000         8.294481095220643E-160
   36.8718750000000         2.989654301596604E-159
   37.0856250000000         7.407426381790956E-159
   37.2993750000000         1.477427724212919E-158
   37.5131250000000         2.401919332193230E-158
   37.7268750000000         2.892080020226337E-158
   37.9406250000000         1.203214080263156E-158
   38.1543750000000        -6.379439195863057E-158
   38.3681250000000        -2.624214809003653E-157
   38.5818750000000        -6.680411944669629E-157
   38.7956250000000        -1.338997060186336E-156
   39.0093750000000        -2.175468200667149E-156
   39.2231250000000        -2.638550780511334E-156
   39.4368750000000        -1.273785918863786E-156
   39.6506250000000         4.901110620360075E-156
   39.8643750000000         2.078574019719238E-155
   40.0781250000000         5.238547377923051E-155
   40.2918750000000         1.027999291955871E-154
   40.5056250000000         1.617628511675795E-154
   40.7193750000000         1.848365050191313E-154
   40.9331250000000         6.044815749421370E-155
   41.1468750000000        -4.280576967235758E-154
   41.3606250000000        -1.615818043765912E-153
   41.5743750000000        -3.872821635867941E-153
   41.7881250000000        -7.285196370939096E-153
   42.0018750000000        -1.089224329327173E-152
   42.2156250000000        -1.125535874280730E-152
   42.4293750000000        -3.212092515509392E-154
   42.6431250000000         3.680645992514438E-152
   42.8568750000000         1.220681821227950E-151
   43.0706250000000         2.777610908099056E-151
   43.2843750000000         5.041073053117761E-151
   43.4981250000000         7.281980418657698E-151
   43.7118750000000         7.113031989039039E-151
   43.9256250000000        -8.597309132556567E-152
   44.1393750000000        -2.640604150378622E-150
   44.3531250000000        -8.375280630072506E-150
   44.5668750000000        -1.874435273705657E-149
   44.7806250000000        -3.386946359087178E-149
   44.9943750000000        -4.945669611068404E-149
   45.2081250000000        -5.119463094369355E-149
   45.4218750000000        -6.478410910539327E-150
   45.6356250000000         1.445344879959318E-148
   45.8493750000000         4.916471455422530E-148
   46.0631250000000         1.135360446398196E-147
   46.2768750000000         2.116667689381038E-147
   46.4906250000000         3.252249459107327E-147
   46.7043750000000         3.825054732497735E-147
   46.9181250000000         2.104797230776525E-147
   47.1318750000000        -5.230269709462868E-147
   47.3456250000000        -2.346722250021772E-146
   47.5593750000000        -5.928524580296436E-146
   47.7731250000000        -1.178018274052556E-145
   47.9868750000000        -1.949440884044276E-145
   48.2006250000000        -2.622007504860890E-145
   48.4143750000000        -2.413205246451272E-145
   48.6281250000000         2.995929291266214E-146
   48.8418750000000         8.305647251786401E-145
   49.0556250000000         2.557141171139007E-144
   49.2693750000000         5.630812327711624E-144
   49.4831250000000         1.020140802025609E-143
   49.6968750000000         1.549418274686298E-143
   49.9106250000000         1.863044498096801E-143
   50.1243750000000         1.284602263488787E-143
   50.3381250000000        -1.464273373154421E-143
   50.5518750000000        -8.413222848390070E-143
   50.7656250000000        -2.219225773227628E-142
   50.9793750000000        -4.513353081046163E-142
   51.1931250000000        -7.691640836271767E-142
   51.4068750000000        -1.098350800750616E-141
   51.6206250000000        -1.208566373766144E-141
   51.8343750000000        -6.050279206925553E-142
   52.0481250000000         1.590084614462123E-141
   52.2618750000000         6.689837666613714E-141
   52.4756250000000         1.627039881166953E-140
   52.6893750000000         3.149647284052771E-140
   52.9031250000000         5.153280354427316E-140
   53.1168750000000         7.055452608767457E-140
   53.3306250000000         7.300491862956966E-140
   53.5443750000000         2.736732265461215E-140
   53.7581250000000        -1.197802776353419E-139
   53.9718750000000        -4.447978654118226E-139
   54.1856250000000        -1.033897132342223E-138
   54.3993750000000        -1.940652457689230E-138
   54.6131250000000        -3.092825995552723E-138
   54.8268750000000        -4.125463646714273E-138
   55.0406250000000        -4.127929410260201E-138
   55.2543750000000        -1.329275049082740E-138
   55.4681250000000         7.172255352427033E-138
   55.6818750000000         2.538381258013674E-137
   55.8956250000000         5.762402183990430E-137
   56.1093750000000         1.062136286188858E-136
   56.3231250000000         1.666657294468743E-136
   56.5368750000000         2.193985314731718E-136
   56.7506250000000         2.176340618278094E-136
   56.9643750000000         7.301796776593167E-137
   57.1781250000000        -3.556323238466866E-136
   57.3918750000000        -1.258442547476989E-135
   57.6056250000000        -2.833941829165370E-135
   57.8193750000000        -5.179255713030289E-135
   58.0331250000000        -8.070049973103176E-135
   58.2468750000000        -1.059283045051174E-134
   58.4606250000000        -1.062379525161933E-134
   58.6743750000000        -4.231570821549238E-135
   58.8881250000000         1.475585614440594E-134
   59.1018750000000         5.451335899483091E-134
   59.3156250000000         1.234357280812898E-133
   59.5293750000000         2.255301196319618E-133
   59.7431250000000         3.514408985767297E-133
   59.9568750000000         4.638006966486941E-133
   60.1706250000000         4.769324624162752E-133
   60.3843750000000         2.341825875997047E-133
   60.5981250000000        -5.077174244717828E-133
   60.8118750000000        -2.068209499228476E-132
   61.0256250000000        -4.774481279191658E-132
   61.2393750000000        -8.789665628388394E-132
   61.4531250000000        -1.378471213001214E-131
   61.6668750000000        -1.841175301188286E-131
   61.8806250000000        -1.958565925648109E-131
   62.0943750000000        -1.169393519126458E-131
   62.3081250000000         1.393861947447838E-131
   62.5218750000000         6.868756212219737E-131
   62.7356250000000         1.643165550817246E-130
   62.9493750000000         3.072507247502658E-130
   63.1631250000000         4.877682743373291E-130
   63.3768750000000         6.628371892786550E-130
   63.5906250000000         7.329101030461488E-130
   63.8043750000000         5.165383553769515E-130
   64.0181250000000        -2.670438791988140E-130
   64.2318750000000        -1.987775340014773E-129
   64.4456250000000        -5.035540330783599E-129
   64.6593750000000        -9.648671718285728E-129
   64.8731250000000        -1.559180268424554E-128
   65.0868750000000        -2.164690775550200E-128
   65.3006250000000        -2.492734131054893E-128
   65.5143750000000        -2.012488360875011E-128
   65.7281250000000         1.025894676589976E-129
   65.9418750000000         4.952445014774976E-128
   66.1556250000000         1.372610584921860E-127
   66.3693750000000         2.723860571254476E-127
   66.5831250000000         4.505948141234418E-127
   66.7968750000000         6.413610586752682E-127
   67.0106250000000         7.693488899066372E-127
   67.2243750000000         6.938008161782409E-127
   67.4381250000000         1.931034109673157E-127
   67.6518750000000        -1.031849947833189E-126
   67.8656250000000        -3.313994306493336E-126
   68.0793750000000        -6.907146276906409E-126
   68.2931250000000        -1.177165803929292E-125
   68.5068750000000        -1.723435914473142E-125
   68.7206250000000        -2.152663757195777E-125
   68.9343750000000        -2.126430653243672E-125
   69.1481250000000        -1.103453443394700E-125
   69.3618750000000         1.659807029883125E-125
   69.5756250000000         7.017501535384466E-125
   69.7893750000000         1.568564941457640E-124
   70.0031250000000         2.776283401026516E-124
   70.2168750000000         4.196316337369986E-124
   70.4306250000000         5.456414294133669E-124
   70.6443750000000         5.819877633934179E-124
   70.8581250000000         4.083536312373911E-124
   71.0718750000000        -1.440376436956798E-124
   71.2856250000000        -1.275588715899880E-123
   71.4993750000000        -3.169028552562431E-123
   71.7131250000000        -5.892147657840225E-123
   71.9268750000000        -9.240038537048251E-123
   72.1406250000000        -1.251575534673186E-122
   72.3543750000000        -1.427265981617400E-122
   72.5681250000000        -1.208285283994984E-122
   72.7818750000000        -2.455123017016891E-123
   72.9956250000000         1.890220492784113E-122
   73.2093750000000         5.620871809157995E-122
   73.4231250000000         1.118285684709243E-121
   73.6368750000000         1.833212762452488E-121
   73.8506250000000         2.592673270345067E-121
   74.0643750000000         3.142319986197244E-121
   74.2781250000000         3.039481108141672E-121
   74.4918750000000         1.628310012342113E-121
   74.7056250000000        -1.927933225632479E-121
   74.9193750000000        -8.511146032164157E-121
   75.1331250000000        -1.875547693789410E-120
   75.3468750000000        -3.254917220572637E-120
   75.5606250000000        -4.831254749216327E-120
   75.7743750000000        -6.209908243706478E-120
   75.9881250000000        -6.667933425696091E-120
   76.2018750000000        -5.093112268085905E-120
   76.4156250000000        -6.331257611119042E-123
   76.6293750000000         1.025914280868712E-119
   76.8431250000000         2.713386123465053E-119
   77.0568750000000         5.106025818213083E-119
   77.2706250000000         8.036663827099434E-119
   77.4843750000000         1.098104242233782E-118
   77.6981250000000         1.289912434535464E-118
   77.9118750000000         1.210672421880465E-118
   78.1256250000000         6.250490007476934E-119
   78.3393750000000        -7.508991802611168E-119
   78.5531250000000        -3.197626703065391E-118
   78.7668750000000        -6.892881788799415E-118
   78.9806250000000        -1.175574208541737E-117
   79.1943750000000        -1.723446127354975E-117
   79.4081250000000        -2.205756741499951E-117
   79.6218750000000        -2.399665502587827E-117
   79.8356250000000        -1.972783632364405E-117
   80.0493750000000        -4.922854034413144E-118
   80.2631250000000         2.525851334134802E-117
   80.4768750000000         7.508093874202995E-117
   80.6906250000000         1.463748782986566E-116
   80.9043750000000         2.358152266498864E-116
   81.1181250000000         3.314257576715806E-116
   81.3318750000000         4.086975812326195E-116
   81.5456250000000         4.271400050743345E-116
   81.7593750000000         3.286274165463297E-116
   81.9731250000000         3.951075382339008E-117
   82.1868750000000        -5.209828463636327E-116
   82.4006250000000        -1.423209838310710E-115
   82.6143750000000        -2.697725068298545E-115
   82.8281250000000        -4.292296881094192E-115
   83.0418750000000        -6.015708263812120E-115
   83.2556250000000        -7.472487808607447E-115
   83.4693750000000        -7.998504433202336E-115
   83.6831250000000        -6.615492930384451E-115
   83.8968750000000        -2.033099848087798E-115
   84.1106250000000         7.260541684824279E-115
   84.3243750000000         2.276585888121768E-114
   84.5381250000000         4.553251858198394E-114
   84.7518750000000         7.544797671363285E-114
   84.9656250000000         1.102039786448008E-113
   85.1793750000000         1.439382649772853E-113
   85.3931250000000         1.656455490479631E-113
   85.6068750000000         1.576195191124982E-113
   85.8206250000000         9.444541672788450E-114
   86.0343750000000        -5.658210896005362E-114
   86.2481250000000        -3.323101936398641E-113
   86.4618750000000        -7.661100303590339E-113
   86.6756250000000        -1.373776256780602E-112
   86.8893750000000        -2.131080527553052E-112
   87.1031250000000        -2.942096092403098E-112
   87.3168750000000        -3.599736483188392E-112
   87.5306250000000        -3.744182132110982E-112
   87.7443750000000        -2.831430430545838E-112
   87.9581250000000        -1.330939300214197E-113
   88.1718750000000         5.201085726685723E-112
   88.3856250000000         1.397704483672049E-111
   88.5993750000000         2.664121980341492E-111
   88.8131250000000         4.277860374527255E-111
   89.0268750000000         6.041467921800597E-111
   89.2406250000000         7.517149617611617E-111
   89.4543750000000         7.942807712359765E-111
   89.6681250000000         6.177892270660956E-111
   89.8818750000000         7.262725121906917E-112
   90.0956250000000        -1.009832660088704E-110
   90.3093750000000        -2.778589622565809E-110
   90.5231250000000        -5.294647298992749E-110
   90.7368750000000        -8.428347419310025E-110
   90.9506250000000        -1.172527707766614E-109
   91.1643750000000        -1.425694962952478E-109
   91.3781250000000        -1.449246810031286E-109
   91.5918750000000        -1.025331507079308E-109
   91.8056250000000         1.158180968512650E-110
   92.0193750000000         2.254265289407161E-109
   92.2331250000000         5.597939865600280E-109
   92.4468750000000         1.015017648516036E-108
   92.6606250000000         1.552636044483774E-108
   92.8743750000000         2.073480364996345E-108
   93.0881250000000         2.396193017970317E-108
   93.3018750000000         2.243533444632504E-108
   93.5156250000000         1.247665442161834E-108
   93.7293750000000        -1.010885130352385E-108
   93.9431250000000        -4.914189404320227E-108
   94.1568750000000        -1.065348181706833E-107
   94.3706250000000        -1.800550044446636E-107
   94.5843750000000        -2.605023644571659E-107
   94.7981250000000        -3.287009983170626E-107
   95.0118750000000        -3.530979404953805E-107
   95.2256250000000        -2.892293581437878E-107
   95.4393750000000        -8.277014252134356E-108
   95.6531250000000         3.218265580947607E-107
   95.8668750000000         9.651929853148706E-107
   96.0806250000000         1.848281427871564E-106
   96.2943750000000         2.899590117439455E-106
   96.5081250000000         3.937971079156875E-106
   96.7218750000000         4.638853356554637E-106
   96.9356250000000         4.516934080526050E-106
   97.1493750000000         2.943755776888174E-106
   97.3631250000000        -7.774241822316180E-107
   97.5768750000000        -7.256752441423464E-106
   97.7906250000000        -1.676648922566551E-105
   98.0043750000000        -2.889310932906611E-105
   98.2181250000000        -4.212142171588097E-105
   98.4318750000000        -5.342184631309034E-105
   98.6456250000000        -5.796593556265449E-105
   98.8593750000000        -4.915323237663088E-105
   99.0731250000000        -1.918042909505922E-105
   99.2868750000000         3.960034029807797E-105
   99.5006250000000         1.323321944705837E-104
   99.7143750000000         2.582494651476003E-104
   99.9281250000000         4.064156149727645E-104
   100.141875000000         5.511971372446140E-104
   100.355625000000         6.485871132972672E-104
   100.569375000000         6.350729986049513E-104
   100.783125000000         4.312616796110401E-104
   100.996875000000        -4.726492212827882E-105
   101.210625000000        -8.696518319980051E-104
   101.424375000000        -2.058905344630266E-103
   101.638125000000        -3.551531258604861E-103
   101.851875000000        -5.152226692931262E-103
   102.065625000000        -6.492861338058574E-103
   102.279375000000        -7.010408136855376E-103
   102.493125000000        -5.963631605516590E-103
   102.706875000000        -2.511561768265390E-103
   102.920625000000         4.124197695254337E-103
   103.134375000000         1.439913557767687E-102
   103.348125000000         2.809063127379182E-102
   103.561875000000         4.387965345338083E-102
   103.775625000000         5.894084287679735E-102
   103.989375000000         6.865991416465006E-102
   104.203125000000         6.664465634590501E-102
   104.416875000000         4.522985960350861E-102
   104.630625000000        -3.321271449801337E-103
   104.844375000000        -8.476856219027566E-102
   105.058125000000        -1.999770811626083E-101
   105.271875000000        -3.413299058105730E-101
   105.485625000000        -4.889886305489372E-101
   105.699375000000        -6.079092973859170E-101
   105.913125000000        -6.469275796387671E-101
   106.126875000000        -5.415489301963830E-101
   106.340625000000        -2.221737190301876E-101
   106.554375000000         3.708221197380575E-101
   106.768125000000         1.264626698961081E-100
   106.981875000000         2.425255354206318E-100
   107.195625000000         3.726041226522008E-100
   107.409375000000         4.919891565840490E-100
   107.623125000000         5.625116873281764E-100
   107.836875000000         5.337422150210100E-100
   108.050625000000         3.481889230623059E-100
   108.264375000000        -4.828461698303385E-101
   108.478125000000        -6.901915961762405E-100
   108.691875000000        -1.570807014216162E-099
   108.905625000000        -2.617433249497747E-099
   109.119375000000        -3.668009327766232E-099
   109.333125000000        -4.456008088346116E-099
   109.546875000000        -4.612794528685458E-099
   109.760625000000        -3.697852478971660E-099
   109.974375000000        -1.266578814172184E-099
   110.188125000000         3.018332606295852E-099
   110.401875000000         9.233429065859018E-099
   110.615625000000         1.701229119141279E-098
   110.829375000000         2.536359292480997E-098
   111.043125000000         3.253629336267335E-098
   111.256875000000         3.599554767516925E-098
   111.470625000000         3.258350057626513E-098
   111.684375000000         1.893706874849029E-098
   111.898125000000        -7.787030203898855E-099
   112.111875000000        -4.887776479599220E-098
   112.325625000000        -1.028012236892254E-097
   112.539375000000        -1.638786721369855E-097
   112.753125000000        -2.212143087993893E-097
   112.966875000000        -2.582942903002695E-097
   113.180625000000        -2.537605123617829E-097
   113.394375000000        -1.838652572665887E-097
   113.608125000000        -2.698832365005987E-098
   113.821875000000         2.296969910172011E-097
   114.035625000000         5.818144978371336E-097
   114.249375000000         9.987170337873003E-097
   114.463125000000         1.415648954022907E-096
   114.676875000000         1.729827765534684E-096
   114.890625000000         1.803722057610370E-096
   115.104375000000         1.478908959861897E-096
   115.318125000000         6.032103213412888E-097
   115.531875000000        -9.279534141576949E-097
   115.745625000000        -3.118068638510057E-096
   115.959375000000        -5.810208268921212E-096
   116.173125000000        -8.633299241389755E-096
   116.386875000000        -1.097056497847948E-095
   116.600625000000        -1.197072403495725E-095
   116.814375000000        -1.062366505024308E-095
   117.028125000000        -5.918687196724759E-096
   117.241875000000         2.906814509735811E-096
   117.455625000000         1.603831791796091E-095
   117.669375000000         3.271056369939246E-095
   117.883125000000         5.085645018951086E-095
   118.096875000000         6.687788003829181E-095
   118.310625000000         7.566396604407003E-095
   118.524375000000         7.099152261902019E-095
   118.738125000000         4.642426984039740E-095
   118.951875000000        -3.230438975164251E-096
   119.165625000000        -7.995288677174416E-095
   119.379375000000        -1.802271022203326E-094
   119.593125000000        -2.928257920960258E-094
   119.806875000000        -3.972448493255403E-094
   120.020625000000        -4.635315659717617E-094
   120.234375000000        -4.543221384503096E-094
   120.448125000000        -3.298154443229718E-094
   120.661875000000        -5.609508262090646E-095
   120.875625000000         3.833769290112444E-094
   121.089375000000         9.741398216520654E-094
   121.303125000000         1.657121729188421E-093
   121.516875000000         2.318336425255458E-093
   121.730625000000         2.786192377570742E-093
   121.944375000000         2.841223386199933E-093
   122.158125000000         2.242669385799870E-093
   122.371875000000         7.746820913447432E-094
   122.585625000000        -1.688283770328794E-093
   122.799375000000        -5.102171686987504E-093
   123.013125000000        -9.171567778593593E-093
   123.226875000000        -1.328368008496541E-092
   123.440625000000        -1.648224552738278E-092
   123.654375000000        -1.750899476195304E-092
   123.868125000000        -1.493900309275994E-092