  -1.60312500000000         0.000000000000000E+000
  -1.38937500000000        -2.397635865669191E-012
  -1.17562500000000        -1.674605160062209E-011
 -0.961875000000000        -8.004346674064379E-011
 -0.748125000000000        -3.085385577670551E-010
 -0.534375000000000        -9.986898087565864E-010
 -0.320625000000000        -2.763620634576270E-009
 -0.106875000000000        -6.630599168741064E-009
  0.106875000000000        -1.399108691744696E-008
  0.320625000000000        -2.635596574803421E-008
  0.534375000000000        -4.501501113355519E-008
  0.748125000000000        -7.078628821743982E-008
  0.961875000000000        -1.039044756677527E-007
   1.17562500000000        -1.441244580709901E-007
   1.38937500000000        -1.909190835970102E-007
   1.60312500000000        -2.433891409024224E-007
   1.81687500000000        -3.003644042197000E-007
   2.03062500000000        -3.604844469044118E-007
   2.24437500000000        -4.211673326780220E-007
   2.45812500000000        -4.831219228759202E-007
   2.67187500000000        -5.424638423421042E-007
   2.88562500000000        -6.008129380517345E-007
   3.09937500000000        -6.551610828815783E-007
   3.31312500000000        -7.039364926067162E-007
   3.52687500000000        -7.464909305471634E-007
   3.74062500000000        -7.820914173097245E-007
   3.95437500000000        -8.101936191887738E-007
   4.16812500000000        -8.304672820480786E-007
   4.38187500000000        -8.425926709839393E-007
   4.59562500000000        -8.467024139925646E-007
   4.80937500000000        -8.427430847925833E-007
   5.02312500000000        -8.327932897842177E-007
   5.23687500000000        -8.167360040981760E-007
   5.45062500000000        -7.961569296311202E-007
   5.66437500000000        -7.728089410219431E-007
   5.87812500000000        -7.487863404585008E-007
   6.09187500000000        -7.263550080962035E-007
   6.30562500000000        -7.076679560547265E-007
   6.51937500000000        -6.953229591198124E-007
   6.73312500000000        -6.924325082114631E-007
   6.94687500000000        -6.971887551608226E-007
   7.16062500000000        -7.141482990381599E-007
   7.37437500000000        -7.423257577910799E-007
   7.58812500000000        -7.802052062769726E-007
   7.80187500000000        -8.256858821215102E-007
   8.01562500000000        -8.756501386573652E-007
   8.22937500000000        -9.263643947423804E-007
   8.44312500000000        -9.736547073760829E-007
   8.65687500000000        -1.013407158789558E-006
   8.87062500000000        -1.041880918074790E-006
   9.08437500000000        -1.056130990242539E-006
   9.29812500000000        -1.054192557926585E-006
   9.51187500000000        -1.035201386073084E-006
   9.72562500000000        -9.989167273541617E-007
   9.93937500000000        -9.479439008057026E-007
   10.1531250000000        -8.850909526481037E-007
   10.3668750000000        -8.138293357791000E-007
   10.5806250000000        -7.381771950332574E-007
   10.7943750000000        -6.622897110689144E-007
   11.0081250000000        -5.900569408799920E-007
   11.2218750000000        -5.279782536609861E-007
   11.4356250000000        -4.712708815690282E-007
   11.6493750000000        -4.307949718862340E-007
   11.8631250000000        -3.947985865810587E-007
   12.0768750000000        -3.779073712705666E-007
   12.2906250000000        -3.628595860969465E-007
   12.5043750000000        -3.638580372024715E-007
   12.7181250000000        -3.636231619753572E-007
   12.9318750000000        -3.732898194767511E-007
   13.1456250000000        -3.810326265208299E-007
   13.3593750000000        -3.932003914623732E-007
   13.5731250000000        -4.057440519099459E-007
   13.7868750000000        -4.180851261431140E-007
   14.0006250000000        -4.295013774439097E-007
   14.2143750000000        -4.395111891266554E-007
   14.4281250000000        -4.478959046198548E-007
   14.6418750000000        -4.546521287813134E-007
   14.8556250000000        -4.597469139197834E-007
   15.0693750000000        -4.630842016247880E-007
   15.2831250000000        -4.648287391990877E-007
   15.4968750000000        -4.645817719657276E-007
   15.7106250000000        -4.636300505013678E-007
   15.9243750000000        -4.604209858714314E-007
   16.1381250000000        -4.549887877320584E-007
   16.3518750000000        -4.472839876753324E-007
   16.5656250000000        -4.378923980886011E-007
   16.7793750000000        -4.266998299111354E-007
   16.9931250000000        -4.135821606415591E-007
   17.2068750000000        -3.985639394978207E-007
   17.4206250000000        -3.784910880778190E-007
   17.6343750000000        -3.568806503931096E-007
   17.8481250000000        -3.417093178837949E-007
   18.0618750000000        -3.203058640363784E-007
   18.2756250000000        -3.083161085293192E-007
   18.4893750000000        -2.886247128592557E-007
   18.7031250000000        -2.743693268166369E-007
   18.9168750000000        -2.553978949171499E-007
   19.1306250000000        -2.359968720043759E-007
   19.3443750000000        -2.138898670252999E-007
   19.5581250000000        -1.892765053338865E-007
   19.7718750000000        -1.630149893069901E-007
   19.9856250000000        -1.363331637418259E-007
   20.1993750000000        -1.108598328367194E-007
   20.4131250000000        -8.851692079523082E-008
   20.6268750000000        -7.145937978510821E-008
   20.8406250000000        -6.222190172937425E-008
   21.0543750000000        -6.229979410532646E-008
   21.2681250000000        -7.269764369844840E-008
   21.4818750000000        -9.413995620465750E-008
   21.6956250000000        -1.274233477719045E-007
   21.9093750000000        -1.714946971230968E-007
   22.1231250000000        -2.246527962870754E-007
   22.3368750000000        -2.845881780132022E-007
   22.5506250000000        -3.484271217134120E-007
   22.7643750000000        -4.132691211325665E-007
   22.9781250000000        -4.760310582719447E-007
   23.1918750000000        -5.340431603144852E-007
   23.4056250000000        -5.854666466535727E-007
   23.6193750000000        -6.290589811854001E-007
   23.8331250000000        -6.644438934151739E-007
   24.0468750000000        -6.920401404671730E-007
   24.2606250000000        -7.123245964589388E-007
   24.4743750000000        -7.260328326372608E-007
   24.6881250000000        -7.340697436245242E-007
   24.9018750000000        -7.374605727015806E-007
   25.1156250000000        -7.368691615408437E-007
   25.3293750000000        -7.332397620460243E-007
   25.5431250000000        -7.248230113547226E-007
   25.7568750000000        -7.143975821628218E-007
   25.9706250000000        -7.027972264945089E-007
   26.1843750000000        -6.932217276025389E-007
   26.3981250000000        -6.717866048245234E-007
   26.6118750000000        -6.571753395110959E-007
   26.8256250000000        -6.301008397558719E-007
   27.0393750000000        -6.109704055912017E-007
   27.2531250000000        -5.828652059767748E-007
   27.4668750000000        -5.585733669585442E-007
   27.6806250000000        -5.371102099726821E-007
   27.8943750000000        -5.188063077510078E-007
   28.1081250000000        -5.035661309124599E-007
   28.3218750000000        -4.920353606549515E-007
   28.5356250000000        -4.835384563883675E-007
   28.7493750000000        -4.767774496227524E-007
   28.9631250000000        -4.701035739994373E-007
   29.1768750000000        -4.620334572411938E-007
   29.3906250000000        -4.508810049221970E-007
   29.6043750000000        -4.353175929427264E-007
   29.8181250000000        -4.148526996840369E-007
   30.0318750000000        -3.892007458018241E-007
   30.2456250000000        -3.569139662806229E-007
   30.4593750000000        -3.207293021147115E-007
   30.6731250000000        -2.806647384782152E-007
   30.8868750000000        -2.379224493615702E-007
   31.1006250000000        -1.939090945436968E-007
   31.3143750000000        -1.499035000457021E-007
   31.5281250000000        -1.069974656478114E-007
   31.7418750000000        -6.585879921949267E-008
   31.9556250000000        -2.680781625718412E-008
   32.1693750000000         1.025892078698026E-008
   32.3831250000000         4.573930281573781E-008
   32.5968750000000         7.986526525578290E-008
   32.8106250000000         1.139275417025914E-007
   33.0243750000000         1.479923797946789E-007
   33.2381250000000         1.820175810046524E-007
   33.4518750000000         2.154992930212781E-007
   33.6656250000000         2.473812549353659E-007
   33.8793750000000         2.760826765685758E-007
   34.0931250000000         2.996716552797534E-007
   34.3068750000000         3.160082102856393E-007
   34.5206250000000         3.226449619354856E-007
   34.7343750000000         3.185630524337871E-007
   34.9481250000000         3.024270029942351E-007
   35.1618750000000         2.735689800617421E-007
   35.3756250000000         2.323116933560928E-007
   35.5893750000000         1.802914142223457E-007
   35.8031250000000         1.199241146398119E-007
   36.0168750000000         5.440304563843701E-008
   36.2306250000000        -1.260543198528555E-008
   36.4443750000000        -7.734587175881894E-008
   36.6581250000000        -1.360031604333463E-007
   36.8718750000000        -1.891094001620645E-007
   37.0856250000000        -2.238556966628153E-007
   37.2993750000000        -2.479607710032612E-007
   37.5131250000000        -2.542200024670216E-007
   37.7268750000000        -2.562441869808079E-007
   37.9406250000000        -2.351391795946511E-007
   38.1543750000000        -2.081805567158105E-007
   38.3681250000000        -1.741342046713252E-007
   38.5818750000000        -1.358759197488830E-007
   38.7956250000000        -9.620225680935060E-008
   39.0093750000000        -5.763047909652527E-008
   39.2231250000000        -2.192171110101750E-008
   39.4368750000000         8.967756076598023E-009
   39.6506250000000         3.741567888420606E-008
   39.8643750000000         5.464012471020622E-008
   40.0781250000000         6.331011538076432E-008
   40.2918750000000         6.198743788187674E-008
   40.5056250000000         5.008274712037240E-008
   40.7193750000000         2.784266648016133E-008
   40.9331250000000        -8.344868354273458E-009
   41.1468750000000        -4.540021500943413E-008
   41.3606250000000        -9.677357597243779E-008
   41.5743750000000        -1.522307040854038E-007
   41.7881250000000        -2.100118426722926E-007
   42.0018750000000        -2.678403874076636E-007
   42.2156250000000        -3.229407672883750E-007
   42.4293750000000        -3.723133511979829E-007
   42.6431250000000        -4.129725307327024E-007
   42.8568750000000        -4.451416488993591E-007
   43.0706250000000        -4.546906646124686E-007
   43.2843750000000        -4.531842489319570E-007
   43.4981250000000        -4.264394395073040E-007
   43.7118750000000        -3.834217688792917E-007
   43.9256250000000        -3.236243077826757E-007
   44.1393750000000        -2.484481761914077E-007
   44.3531250000000        -1.603322249003851E-007
   44.5668750000000        -6.220611034792083E-008
   44.7806250000000         4.249583095912809E-008
   44.9943750000000         1.502377162803476E-007
   45.2081250000000         2.575620863434695E-007
   45.4218750000000         3.613154618943153E-007
   45.6356250000000         4.587209212407816E-007
   45.8493750000000         5.474144389084281E-007
   46.0631250000000         6.256063026766519E-007
   46.2768750000000         6.918631167411562E-007
   46.4906250000000         7.451200755822656E-007
   46.7043750000000         7.846764061098639E-007
   46.9181250000000         8.101704153540323E-007
   47.1318750000000         8.222524645462211E-007
   47.3456250000000         8.196062053973704E-007
   47.5593750000000         7.996411205983732E-007
   47.7731250000000         7.692583876955333E-007
   47.9868750000000         7.244026928802384E-007
   48.2006250000000         6.738715088676672E-007
   48.4143750000000         6.099955716955320E-007
   48.6281250000000         5.437923250601927E-007
   48.8418750000000         4.743916130383845E-007
   49.0556250000000         4.074482552015402E-007
   49.2693750000000         3.412521915179408E-007
   49.4831250000000         2.801454026101573E-007
   49.6968750000000         2.268992574803891E-007
   49.9106250000000         1.834546037284130E-007
   50.1243750000000         1.514554985963405E-007
   50.3381250000000         1.318609590539076E-007
   50.5518750000000         1.253583054015502E-007
   50.7656250000000         1.364435315106729E-007
   50.9793750000000         1.516628092058919E-007
   51.1931250000000         1.830752698387785E-007
   51.4068750000000         2.148302605279442E-007
   51.6206250000000         2.574921721118847E-007
   51.8343750000000         2.965644639238263E-007
   52.0481250000000         3.407343606850683E-007
   52.2618750000000         3.771790640186611E-007
   52.4756250000000         4.123891367813087E-007
   52.6893750000000         4.409470694340896E-007
   52.9031250000000         4.620225503860779E-007
   53.1168750000000         4.774195503948889E-007
   53.3306250000000         4.853833724466453E-007
   53.5443750000000         4.877367893272522E-007
   53.7581250000000         4.851870312348256E-007
   53.9718750000000         4.786170621161973E-007
   54.1856250000000         4.691103471055480E-007
   54.3993750000000         4.579753257553897E-007
   54.6131250000000         4.464058597678314E-007
   54.8268750000000         4.355126935050440E-007
   55.0406250000000         4.262313749939185E-007
   55.2543750000000         4.193279972393512E-007
   55.4681250000000         4.153643425932439E-007
   55.6818750000000         4.147643151298000E-007
   55.8956250000000         4.177603367817403E-007
   56.1093750000000         4.245849344694880E-007
   56.3231250000000         4.357407579660112E-007
   56.5368750000000         4.510923934878879E-007
   56.7506250000000         4.685564087326982E-007
   56.9643750000000         4.916190283183475E-007
   57.1781250000000         5.188378602864605E-007
   57.3918750000000         5.508484923745787E-007
   57.6056250000000         5.873967701413865E-007
   57.8193750000000         6.282195582731942E-007
   58.0331250000000         6.723199699667199E-007
   58.2468750000000         7.191042745129285E-007
   58.4606250000000         7.675627879049872E-007
   58.6743750000000         8.164397170466462E-007
   58.8881250000000         8.607713284679367E-007
   59.1018750000000         9.079682102675417E-007
   59.3156250000000         9.451982162764271E-007
   59.5293750000000         9.829408303149680E-007
   59.7431250000000         1.015291475791800E-006
   59.9568750000000         1.043028959545577E-006
   60.1706250000000         1.066480896711580E-006
   60.3843750000000         1.085340756118407E-006
   60.5981250000000         1.100232632899946E-006
   60.8118750000000         1.111497954606377E-006
   61.0256250000000         1.123473316086850E-006
   61.2393750000000         1.124201369363507E-006
   61.4531250000000         1.131116216165682E-006
   61.6668750000000         1.129618613899829E-006
   61.8806250000000         1.124250930061648E-006
   62.0943750000000         1.114787859413102E-006
   62.3081250000000         1.101258983413825E-006
   62.5218750000000         1.084228084891608E-006
   62.7356250000000         1.062852781290640E-006
   62.9493750000000         1.041352569949760E-006
   63.1631250000000         1.006243756062699E-006
   63.3768750000000         9.717427624917827E-007
   63.5906250000000         9.252936228492230E-007
   63.8043750000000         8.757630477172837E-007
   64.0181250000000         8.274105571826589E-007
   64.2318750000000         7.701731213062241E-007
   64.4456250000000         7.138604687252092E-007
   64.6593750000000         6.607564329216992E-007
   64.8731250000000         6.134171318739626E-007
   65.0868750000000         5.750244789556253E-007
   65.3006250000000         5.485606069794899E-007
   65.5143750000000         5.366896501695832E-007
   65.7281250000000         5.420286116931261E-007
   65.9418750000000         5.650957333713952E-007
   66.1556250000000         6.059842082190438E-007
   66.3693750000000         6.645444935878666E-007
   66.5831250000000         7.372416012312830E-007
   66.7968750000000         8.206928762309240E-007
   67.0106250000000         9.105278435175788E-007
   67.2243750000000         1.001767446937248E-006
   67.4381250000000         1.089473040473943E-006
   67.6518750000000         1.172662277325240E-006
   67.8656250000000         1.237373361752484E-006
   68.0793750000000         1.293085756717810E-006
   68.2931250000000         1.326660595491471E-006
   68.5068750000000         1.346430620904764E-006
   68.7206250000000         1.346569856907937E-006
   68.9343750000000         1.336159435628852E-006
   69.1481250000000         1.316276613136078E-006
   69.3618750000000         1.290030971582573E-006
   69.5756250000000         1.260507002654934E-006
   69.7893750000000         1.230358561449397E-006
   70.0031250000000         1.201657609671301E-006
   70.2168750000000         1.175651394956200E-006
   70.4306250000000         1.153085509581672E-006
   70.6443750000000         1.134759159681986E-006
   70.8581250000000         1.119883466716231E-006
   71.0718750000000         1.108631158559806E-006
   71.2856250000000         1.103311789721632E-006
   71.4993750000000         1.097815197640591E-006
   71.7131250000000         1.110085644962284E-006
   71.9268750000000         1.126003799082349E-006
   72.1406250000000         1.161621599042081E-006
   72.3543750000000         1.206032996291785E-006
   72.5681250000000         1.272995703262170E-006
   72.7818750000000         1.355987277186305E-006
   72.9956250000000         1.451092688665936E-006
   73.2093750000000         1.560771323565397E-006
   73.4231250000000         1.679242438435686E-006
   73.6368750000000         1.799580672937404E-006
   73.8506250000000         1.915547181988797E-006
   74.0643750000000         2.020589371698152E-006
   74.2781250000000         2.108789232244086E-006
   74.4918750000000         2.175150313102067E-006
   74.7056250000000         2.216387983924440E-006
   74.9193750000000         2.232315051962590E-006
   75.1331250000000         2.220254247250318E-006
   75.3468750000000         2.182096304878795E-006
   75.5606250000000         2.131257854070782E-006
   75.7743750000000         2.061274524296478E-006
   75.9881250000000         1.987116483636445E-006
   76.2018750000000         1.911050833948713E-006
   76.4156250000000         1.839379843935154E-006
   76.6293750000000         1.771298091600316E-006
   76.8431250000000         1.710032852384222E-006
   77.0568750000000         1.656217009256567E-006
   77.2706250000000         1.609212491065981E-006
   77.4843750000000         1.568014301266826E-006
   77.6981250000000         1.536898068258107E-006
   77.9118750000000         1.500010673799241E-006
   78.1256250000000         1.473062575173107E-006
   78.3393750000000         1.436955033813076E-006
   78.5531250000000         1.412154568803585E-006
   78.7668750000000         1.379495260709697E-006
   78.9806250000000         1.362479111664268E-006
   79.1943750000000         1.342576481586485E-006
   79.4081250000000         1.336603607590150E-006
   79.6218750000000         1.342664033546976E-006
   79.8356250000000         1.361872272448534E-006
   80.0493750000000         1.393853390828737E-006
   80.2631250000000         1.437597483973378E-006
   80.4768750000000         1.489924824852184E-006
   80.6906250000000         1.547549037201766E-006
   80.9043750000000         1.607011640411244E-006
   81.1181250000000         1.659687499242631E-006
   81.3318750000000         1.715170706683911E-006
   81.5456250000000         1.758102350015747E-006
   81.7593750000000         1.798661914695743E-006
   81.9731250000000         1.828290841995787E-006
   82.1868750000000         1.844103949849300E-006
   82.4006250000000         1.861193982938415E-006
   82.6143750000000         1.867199035479128E-006
   82.8281250000000         1.872227579317559E-006
   83.0418750000000         1.872526983730221E-006
   83.2556250000000         1.873000619313178E-006
   83.4693750000000         1.872609668167808E-006
   83.6831250000000         1.872585057247955E-006
   83.8968750000000         1.874038605550755E-006
   84.1106250000000         1.881583757825798E-006
   84.3243750000000         1.882975196071604E-006
   84.5381250000000         1.893329894959366E-006
   84.7518750000000         1.897987059438494E-006
   84.9656250000000         1.904950572758143E-006
   85.1793750000000         1.912808741614624E-006
   85.3931250000000         1.923505286214203E-006
   85.6068750000000         1.934913844006584E-006
   85.8206250000000         1.958752632971829E-006
   86.0343750000000         1.986193372243840E-006
   86.2481250000000         2.026763595503877E-006
   86.4618750000000         2.078935314117607E-006
   86.6756250000000         2.142559413685569E-006
   86.8893750000000         2.216398108272111E-006
   87.1031250000000         2.292711880169649E-006
   87.3168750000000         2.386475500505351E-006
   87.5306250000000         2.476908821321998E-006
   87.7443750000000         2.579909854376316E-006
   87.9581250000000         2.674599230896870E-006
   88.1718750000000         2.773737732405638E-006
   88.3856250000000         2.865171958537685E-006
   88.5993750000000         2.946933066950799E-006
   88.8131250000000         3.017280107753688E-006
   89.0268750000000         3.074912040235334E-006
   89.2406250000000         3.118271986756868E-006
   89.4543750000000         3.148094005879649E-006
   89.6681250000000         3.163538516863581E-006
   89.8818750000000         3.165138772937956E-006
   90.0956250000000         3.153795278589289E-006
   90.3093750000000         3.129767404652872E-006
   90.5231250000000         3.094056610596692E-006
   90.7368750000000         3.047801941259037E-006
   90.9506250000000         2.992345356907253E-006
   91.1643750000000         2.928938749261391E-006
   91.3781250000000         2.859090738132491E-006
   91.5918750000000         2.784307168440954E-006
   91.8056250000000         2.706286030118761E-006
   92.0193750000000         2.626896720114419E-006
   92.2331250000000         2.548280659517235E-006
   92.4468750000000         2.472702180902660E-006
   92.6606250000000         2.402513974826030E-006
   92.8743750000000         2.340095544904542E-006
   93.0881250000000         2.287855798849056E-006
   93.3018750000000         2.247835845631294E-006
   93.5156250000000         2.222021841321467E-006
   93.7293750000000         2.210345199344146E-006
   93.9431250000000         2.214870498074135E-006
   94.1568750000000         2.232526490376462E-006
   94.3706250000000         2.261917582423605E-006
   94.5843750000000         2.301329159350803E-006
   94.7981250000000         2.348019497666349E-006
   95.0118750000000         2.398704550680318E-006
   95.2256250000000         2.449181737186819E-006
   95.4393750000000         2.496409700688903E-006
   95.6531250000000         2.537817165981978E-006
   95.8668750000000         2.574358251147569E-006
   96.0806250000000         2.595975660869657E-006
   96.2943750000000         2.609511791466033E-006
   96.5081250000000         2.616553080012935E-006
   96.7218750000000         2.619085312655651E-006
   96.9356250000000         2.619362876875667E-006
   97.1493750000000         2.620097344364958E-006
   97.3631250000000         2.623838847231128E-006
   97.5768750000000         2.630566327770852E-006
   97.7906250000000         2.644940462476894E-006
   98.0043750000000         2.667361594792007E-006
   98.2181250000000         2.697782062972095E-006
   98.4318750000000         2.734742474887320E-006
   98.6456250000000         2.776717593064168E-006
   98.8593750000000         2.821169995128657E-006
   99.0731250000000         2.866899035614852E-006
   99.2868750000000         2.912560885426905E-006
   99.5006250000000         2.961592277475565E-006
   99.7143750000000         3.001889117249948E-006
   99.9281250000000         3.046387446124366E-006
   100.141875000000         3.082853579402355E-006
   100.355625000000         3.121114558717280E-006
   100.569375000000         3.158407949031540E-006
   100.783125000000         3.196414736312476E-006
   100.996875000000         3.238002316877647E-006
   101.210625000000         3.283054266992374E-006
   101.424375000000         3.331355650743082E-006
   101.638125000000         3.382031169809807E-006
   101.851875000000         3.433632708290597E-006
   102.065625000000         3.480049075766649E-006
   102.279375000000         3.530148491378461E-006
   102.493125000000         3.569781859808475E-006
   102.706875000000         3.612549437422793E-006
   102.920625000000         3.646690245415974E-006
   103.134375000000         3.673909845651651E-006
   103.348125000000         3.695500922375538E-006
   103.561875000000         3.714823863795417E-006
   103.775625000000         3.729204299871433E-006
   103.989375000000         3.742138396671203E-006
   104.203125000000         3.754842614308334E-006
   104.416875000000         3.768757848493824E-006
   104.630625000000         3.784736584769635E-006
   104.844375000000         3.802900416118017E-006
   105.058125000000         3.822414202312084E-006
   105.271875000000         3.842075031113462E-006
   105.485625000000         3.860256997938534E-006
   105.699375000000         3.875743447743215E-006
   105.913125000000         3.885122324819116E-006
   106.126875000000         3.887176382889949E-006
   106.340625000000         3.880957971457576E-006
   106.554375000000         3.866308259776487E-006
   106.768125000000         3.843954780772661E-006
   106.981875000000         3.815855384495407E-006
   107.195625000000         3.784578231611771E-006
   107.409375000000         3.753194308467991E-006
   107.623125000000         3.724880179243452E-006
   107.836875000000         3.702463567686996E-006
   108.050625000000         3.688147091349112E-006
   108.264375000000         3.683018034574308E-006
   108.478125000000         3.688999983537901E-006
   108.691875000000         3.707439773392539E-006
   108.905625000000         3.727997949093090E-006
   109.119375000000         3.755107642180034E-006
   109.333125000000         3.782933295422620E-006
   109.546875000000         3.807942894693463E-006
   109.760625000000         3.827457066617094E-006
   109.974375000000         3.837468759698828E-006
   110.188125000000         3.837102057989137E-006
   110.401875000000         3.826370084789492E-006
   110.615625000000         3.806021653715391E-006
   110.829375000000         3.778063725342285E-006
   111.043125000000         3.745306143432365E-006
   111.256875000000         3.717029435086689E-006
   111.470625000000         3.679353154197597E-006
   111.684375000000         3.649412603235342E-006
   111.898125000000         3.633158684074641E-006
   112.111875000000         3.615069079784388E-006
   112.325625000000         3.610290561861260E-006
   112.539375000000         3.616568836600005E-006
   112.753125000000         3.632195356716819E-006
   112.966875000000         3.657727289302613E-006
   113.180625000000         3.691895381221151E-006
   113.394375000000         3.733622712265544E-006
   113.608125000000         3.781752176044273E-006
   113.821875000000         3.835458052084607E-006
   114.035625000000         3.894955372908447E-006
   114.249375000000         3.959533758917058E-006
   114.463125000000         4.028679305074834E-006
   114.676875000000         4.101788385322277E-006
   114.890625000000         4.177946110885533E-006
   115.104375000000         4.255890376732092E-006
   115.318125000000         4.334001962288941E-006
   115.531875000000         4.410362324775461E-006
   115.745625000000         4.482972891050220E-006
   115.959375000000         4.549891977235103E-006
   116.173125000000         4.609430916902691E-006
   116.386875000000         4.660326438820849E-006
   116.600625000000         4.701840969544968E-006
   116.814375000000         4.734002550771828E-006
   117.028125000000         4.757491785264145E-006
   117.241875000000         4.774484510706001E-006
   117.455625000000         4.784094816939712E-006
   117.669375000000         4.788999414506445E-006
   117.883125000000         4.790747644182393E-006
   118.096875000000         4.791043150345934E-006
   118.310625000000         4.790238306608563E-006
   118.524375000000         4.789030526775388E-006
   118.738125000000         4.787370103718622E-006
   118.951875000000         4.785006159465212E-006
   119.165625000000         4.781783811944661E-006
   119.379375000000         4.778721362864463E-006
   119.593125000000         4.775037371858759E-006
   119.806875000000         4.771343169794754E-006
   120.020625000000         4.768194894704148E-006
   120.234375000000         4.766579047869955E-006
   120.448125000000         4.767906000971755E-006
   120.661875000000         4.773351052634286E-006
   120.875625000000         4.783990004961450E-006
   121.089375000000         4.802921703898513E-006
   121.303125000000         4.820927749737908E-006
   121.516875000000         4.840847101194293E-006
   121.730625000000         4.860495639342094E-006
   121.944375000000         4.878884715140037E-006
   122.158125000000         4.893355524200260E-006
   122.371875000000         4.902511495003763E-006
   122.585625000000         4.905176216850138E-006
   122.799375000000         4.901445132878877E-006
   123.013125000000         4.892532089334221E-006
   123.226875000000         4.880705255853742E-006
   123.440625000000         4.868771376251046E-006
   123.654375000000         4.859895450725250E-006
   123.868125000000         4.857763022517018E-006