  -1.60312500000000         0.000000000000000E+000
  -1.38937500000000         0.000000000000000E+000
  -1.17562500000000         0.000000000000000E+000
 -0.961875000000000         0.000000000000000E+000
 -0.748125000000000         0.000000000000000E+000
 -0.534375000000000         0.000000000000000E+000
 -0.320625000000000         0.000000000000000E+000
 -0.106875000000000         0.000000000000000E+000
  0.106875000000000         0.000000000000000E+000
  0.320625000000000         0.000000000000000E+000
  0.534375000000000         0.000000000000000E+000
  0.748125000000000         0.000000000000000E+000
  0.961875000000000         0.000000000000000E+000
   1.17562500000000         0.000000000000000E+000
   1.38937500000000         0.000000000000000E+000
   1.60312500000000         0.000000000000000E+000
   1.81687500000000         0.000000000000000E+000
   2.03062500000000         0.000000000000000E+000
   2.24437500000000         0.000000000000000E+000
   2.45812500000000         0.000000000000000E+000
   2.67187500000000         0.000000000000000E+000
   2.88562500000000         0.000000000000000E+000
   3.09937500000000         0.000000000000000E+000
   3.31312500000000         0.000000000000000E+000
   3.52687500000000         0.000000000000000E+000
   3.74062500000000         0.000000000000000E+000
   3.95437500000000         0.000000000000000E+000
   4.16812500000000         0.000000000000000E+000
   4.38187500000000         0.000000000000000E+000
   4.59562500000000         0.000000000000000E+000
   4.80937500000000         0.000000000000000E+000
   5.02312500000000         0.000000000000000E+000
   5.23687500000000         0.000000000000000E+000
   5.45062500000000         0.000000000000000E+000
   5.66437500000000         0.000000000000000E+000
   5.87812500000000         0.000000000000000E+000
   6.09187500000000         0.000000000000000E+000
   6.30562500000000         0.000000000000000E+000
   6.51937500000000         0.000000000000000E+000
   6.73312500000000         0.000000000000000E+000
   6.94687500000000         0.000000000000000E+000
   7.16062500000000         0.000000000000000E+000
   7.37437500000000         0.000000000000000E+000
   7.58812500000000         0.000000000000000E+000
   7.80187500000000         0.000000000000000E+000
   8.01562500000000         0.000000000000000E+000
   8.22937500000000         0.000000000000000E+000
   8.44312500000000         0.000000000000000E+000
   8.65687500000000         0.000000000000000E+000
   8.87062500000000         0.000000000000000E+000
   9.08437500000000         0.000000000000000E+000
   9.29812500000000         0.000000000000000E+000
   9.51187500000000         0.000000000000000E+000
   9.72562500000000         0.000000000000000E+000
   9.93937500000000         0.000000000000000E+000
   10.1531250000000         0.000000000000000E+000
   10.3668750000000         0.000000000000000E+000
   10.5806250000000         0.000000000000000E+000
   10.7943750000000         9.622092103981779E-243
   11.0081250000000        -1.327877082318295E-234
   11.2218750000000        -8.632551639018426E-233
   11.4356250000000        -4.031420733276874E-227
   11.6493750000000        -9.875066093069876E-225
   11.8631250000000        -7.526960699221456E-223
   12.0768750000000        -4.530764643809895E-221
   12.2906250000000        -1.984757653712466E-219
   12.5043750000000        -5.996372340694711E-218
   12.7181250000000        -1.255144371174924E-216
   12.9318750000000        -1.753740434776716E-215
   13.1456250000000        -1.183430928638930E-214
   13.3593750000000         1.445282090370315E-213
   13.5731250000000         6.436026668075737E-212
   13.7868750000000         1.290580318472682E-210
   14.0006250000000         1.903078011212394E-209
   14.2143750000000         2.292570608414997E-208
   14.4281250000000         2.355241490534104E-207
   14.6418750000000         2.109069314778062E-206
   14.8556250000000         1.665187826487130E-205
   15.0693750000000         1.164075453331671E-204
   15.2831250000000         7.181928796976715E-204
   15.4968750000000         3.853665566701508E-203
   15.7106250000000         1.727711145842150E-202
   15.9243750000000         5.702472941280763E-202
   16.1381250000000         5.205221182874617E-202
   16.3518750000000        -1.151346880801687E-200
   16.5656250000000        -1.267922777588920E-199
   16.7793750000000        -9.024371721826523E-199
   16.9931250000000        -5.204298354199472E-198
   17.2068750000000        -2.574616584328473E-197
   17.4206250000000        -1.107744213160796E-196
   17.6343750000000        -4.090858541819040E-196
   17.8481250000000        -1.224171573934948E-195
   18.0618750000000        -2.348188360587411E-195
   18.2756250000000         2.639304795757390E-195
   18.4893750000000         5.691356764879778E-194
   18.7031250000000         3.706519575222681E-193
   18.9168750000000         1.784669237606983E-192
   19.1306250000000         7.125460963676472E-192
   19.3443750000000         2.409963168574760E-191
   19.5581250000000         6.699587645796911E-191
   19.7718750000000         1.323704784355095E-190
   19.9856250000000         2.732116451479448E-191
   20.1993750000000        -1.407371463680263E-189
   20.4131250000000        -9.087963790083217E-189
   20.6268750000000        -3.991185973917355E-188
   20.8406250000000        -1.415960014494907E-187
   21.0543750000000        -4.167857802267590E-187
   21.2681250000000        -9.689274397685686E-187
   21.4818750000000        -1.346685331786699E-186
   21.6956250000000         2.087747776450579E-186
   21.9093750000000         2.561572434740170E-185
   22.1231250000000         1.259183562683628E-184
   22.3368750000000         4.650482862634131E-184
   22.5506250000000         1.410301643648792E-183
   22.7643750000000         3.482696986913539E-183
   22.9781250000000         6.158002395722165E-183
   23.1918750000000         1.774438006705418E-183
   23.4056250000000        -4.692250355315285E-182
   23.6193750000000        -2.747629698224632E-181
   23.8331250000000        -1.085769984911410E-180
   24.0468750000000        -3.493422023765459E-180
   24.2606250000000        -9.500041524822934E-180
   24.4743750000000        -2.134067119243503E-179
   24.6881250000000        -3.463009057995578E-179
   24.9018750000000        -9.367978017350725E-180
   25.1156250000000         2.242173004394282E-178
   25.3293750000000         1.220103946323166E-177
   25.5431250000000         4.487709228781322E-177
   25.7568750000000         1.346810324671818E-176
   25.9706250000000         3.425559229550088E-176
   26.1843750000000         7.232978008162100E-176
   26.3981250000000         1.121131982411887E-175
   26.6118750000000         4.234864870263526E-176
   26.8256250000000        -5.586867231422106E-175
   27.0393750000000        -2.937011748631941E-174
   27.2531250000000        -1.015928912684075E-173
   27.4668750000000        -2.843620509918205E-173
   27.6806250000000        -6.694996018468305E-173
   27.8943750000000        -1.289820644823389E-172
   28.1081250000000        -1.732381827138290E-172
   28.3218750000000         5.322370432890159E-174
   28.5356250000000         1.074888313076172E-171
   28.7493750000000         4.790989830747033E-171
   28.9631250000000         1.501009505128802E-170
   29.1768750000000         3.857422192951527E-170
   29.3906250000000         8.352639165908734E-170
   29.6043750000000         1.467656595277499E-169
   29.8181250000000         1.716339306250621E-169
   30.0318750000000        -6.431391473501762E-170
   30.2456250000000        -1.194809924889219E-168
   30.4593750000000        -4.701921125425251E-168
   30.6731250000000        -1.346513323791910E-167
   30.8868750000000        -3.181754468541371E-167
   31.1006250000000        -6.308117229077020E-167
   31.3143750000000        -9.943604317400602E-167
   31.5281250000000        -9.343634713352261E-167
   31.7418750000000         1.066497529135061E-166
   31.9556250000000         8.777596019412251E-166
   32.1693750000000         2.995736009518888E-165
   32.3831250000000         7.758241983835451E-165
   32.5968750000000         1.667732778070264E-164
   32.8106250000000         2.975717908302563E-164
   33.0243750000000         4.029374283413172E-164
   33.2381250000000         2.268949686143852E-164
   33.4518750000000        -9.102430117286397E-164
   33.6656250000000        -4.471932062205663E-163
   33.8793750000000        -1.305729123710028E-162
   34.0931250000000        -3.020507185590373E-162
   34.3068750000000        -5.822521064704053E-162
   34.5206250000000        -9.106686650154195E-162
   34.7343750000000        -9.711301531974704E-162
   34.9481250000000         1.463063601523060E-162
   35.1618750000000         4.483105283331678E-161
   35.3756250000000         1.581636593098637E-160
   35.5893750000000         3.973020270688229E-160
   35.8031250000000         8.155481105162933E-160
   36.0168750000000         1.388307584160239E-159
   36.2306250000000         1.826204426833746E-159
   36.4443750000000         1.203255255453163E-159
   36.6581250000000        -2.645576335558915E-159
   36.8718750000000        -1.384874763627355E-158
   37.0856250000000        -3.881056181060822E-158
   37.2993750000000        -8.468685940372024E-158
   37.5131250000000        -1.530926718375763E-157
   37.7268750000000        -2.241624622524913E-157
   37.9406250000000        -2.247811715267181E-157
   38.1543750000000         2.286498787920535E-158
   38.3681250000000         8.641771115317736E-157
   38.5818750000000         2.846371073247513E-156
   38.7956250000000         6.620152770218985E-156
   39.0093750000000         1.250288555760132E-155
   39.2231250000000         1.937641918519724E-155
   39.4368750000000         2.253631992348695E-155
   39.6506250000000         1.032070760146771E-155
   39.8643750000000        -3.979337649173422E-155
   40.0781250000000        -1.628747311119178E-154
   40.2918750000000        -3.994435574799848E-154
   40.5056250000000        -7.675474471926382E-154
   40.7193750000000        -1.196730211161603E-153
   40.9331250000000        -1.407604395465410E-153
   41.1468750000000        -7.405634658606271E-154
   41.3606250000000         2.003289300098788E-153
   41.5743750000000         8.521022299974455E-153
   41.7881250000000         2.037414921610642E-152
   42.0018750000000         3.712334406076923E-152
   42.2156250000000         5.246891139755118E-152
   42.4293750000000         4.803763340031657E-152
   42.6431250000000        -1.385597486214841E-152
   42.8568750000000        -1.930615258534633E-151
   43.0706250000000        -5.570474966644315E-151
   43.2843750000000        -1.124850733755661E-150
   43.4981250000000        -1.734446381728390E-150
   43.7118750000000        -1.799219508103541E-150
   43.9256250000000         4.279322929502494E-152
   44.1393750000000         6.263259175650528E-150
   44.3531250000000         2.037372448585408E-149
   44.5668750000000         4.559811462785861E-149
   44.7806250000000         8.077946337290032E-149
   44.9943750000000         1.113902275616127E-148
   45.2081250000000         9.359128064507935E-149
   45.4218750000000        -6.850336188514710E-149
   45.6356250000000        -5.453330040732836E-148
   45.8493750000000        -1.582047097551509E-147
   46.0631250000000        -3.427223078553001E-147
   46.2768750000000        -6.101604419545521E-147
   46.4906250000000        -8.875525499565747E-147
   46.7043750000000        -9.308366454486639E-147
   46.9181250000000        -1.785380913495376E-147
   47.1318750000000         2.420540681360336E-146
   47.3456250000000         8.508606523248157E-146
   47.5593750000000         2.011417099282407E-145
   47.7731250000000         3.868809183211200E-145
   47.9868750000000         6.264941705415690E-145
   48.2006250000000         8.248328547052857E-145
   48.4143750000000         7.254092980015177E-145
   48.6281250000000        -2.030084211047674E-145
   48.8418750000000        -2.881182266882747E-144
   49.0556250000000        -8.645843548620426E-144
   49.2693750000000        -1.899411850472172E-143
   49.4831250000000        -3.470075902974655E-143
   49.6968750000000        -5.379075280213590E-143
   49.9106250000000        -6.774956846497337E-143
   50.1243750000000        -5.553510397997315E-143
   50.3381250000000         2.419413976263530E-143
   50.5518750000000         2.401029649458985E-142
   50.7656250000000         6.877863724148536E-142
   50.9793750000000         1.468493778554333E-141
   51.1931250000000         2.624193519971522E-141
   51.4068750000000         3.996595159203625E-141
   51.6206250000000         4.974237568737446E-141
   51.8343750000000         4.107706691389693E-141
   52.0481250000000        -1.368384602668752E-141
   52.2618750000000        -1.593310629139552E-140
   52.4756250000000        -4.567263438060122E-140
   52.6893750000000        -9.685264254480582E-140
   52.9031250000000        -1.718429388843847E-139
   53.1168750000000        -2.605889510316932E-139
   53.3306250000000        -3.257574977748318E-139
   53.5443750000000        -2.807744639496688E-139
   53.7581250000000         3.655638921068864E-140
   53.9718750000000         8.846275648782124E-139
   54.1856250000000         2.609177511705677E-138
   54.3993750000000         5.561258996292013E-138
   54.6131250000000         9.873438005021950E-138
   54.8268750000000         1.500458442952017E-137
   55.0406250000000         1.896615605385526E-137
   55.2543750000000         1.720570329448396E-137
   55.4681250000000         1.303656333594517E-138
   55.6818750000000        -4.198851211579413E-137
   55.8956250000000        -1.302055916202625E-136
   56.1093750000000        -2.810407365309539E-136
   56.3231250000000        -5.014774536133475E-136
   56.5368750000000        -7.662144839412346E-136
   56.7506250000000        -9.817750439071170E-136
   56.9643750000000        -9.358175614763378E-136
   57.1781250000000        -2.394281858372287E-136
   57.3918750000000         1.713530467040812E-135
   57.6056250000000         5.719136273264011E-135
   57.8193750000000         1.258003082849790E-134
   58.0331250000000         2.263630079162851E-134
   58.2468750000000         3.485336836635018E-134
   58.4606250000000         4.533276321814598E-134
   58.6743750000000         4.524724747922042E-134
   58.8881250000000         1.853736843897818E-134
   59.1018750000000        -5.965722537182470E-134
   59.3156250000000        -2.218459180704237E-133
   59.5293750000000        -5.009686154715754E-133
   59.7431250000000        -9.123209443175513E-133
   59.9568750000000        -1.418995547571603E-132
   60.1706250000000        -1.876309660234142E-132
   60.3843750000000        -1.955861941672596E-132
   60.5981250000000        -1.062015640108216E-132
   60.8118750000000         1.724103459048767E-132
   61.0256250000000         7.603536307747111E-132
   61.2393750000000         1.780684920829173E-131
   61.4531250000000         3.296968638335221E-131
   61.6668750000000         5.195307800528478E-131
   61.8806250000000         6.996753645599026E-131
   62.0943750000000         7.603504816724471E-131
   62.3081250000000         5.021831812097449E-131
   62.5218750000000        -3.824779562721139E-131
   62.7356250000000        -2.297223284847086E-130
   62.9493750000000        -5.662666089586616E-130
   63.1631250000000        -1.072207465726642E-129
   63.3768750000000        -1.717667667125538E-129
   63.5906250000000        -2.360975029198771E-129
   63.8043750000000        -2.671165355538891E-129
   64.0181250000000        -2.043415506462212E-129
   64.2318750000000         4.594519900307775E-130
   64.4456250000000         6.076174759770340E-129
   64.6593750000000         1.612625313438090E-128
   64.8731250000000         3.146250532996330E-128
   65.0868750000000         5.144553380732269E-128
   65.3006250000000         7.232888437360766E-128
   65.5143750000000         8.508858055995442E-128
   65.7281250000000         7.304138382060309E-128
   65.9418750000000         1.012995190690019E-128
   66.1556250000000        -1.384681384333844E-127
   66.3693750000000        -4.107943035536250E-127
   66.5831250000000        -8.341125831013735E-127
   66.7968750000000        -1.398597148291128E-126
   67.0106250000000        -2.015862120146231E-126
   67.2243750000000        -2.463081330962846E-126
   67.4381250000000        -2.321024992085828E-126
   67.6518750000000        -9.271983830027463E-127
   67.8656250000000         2.616193587891435E-126
   68.0793750000000         9.317222543807025E-126
   68.2931250000000         1.996895498241819E-125
   68.5068750000000         3.453255595512873E-125
   68.7206250000000         5.116068286525528E-125
   68.9343750000000         6.487388421256830E-125
   69.1481250000000         6.607173921306925E-125
   69.3618750000000         3.934453775192579E-125
   69.5756250000000        -3.654272177249007E-125
   69.7893750000000        -1.861329577723999E-124
   70.0031250000000        -4.304109830619399E-124
   70.2168750000000        -7.735904502069658E-124
   70.4306250000000        -1.182026238862383E-123
   70.6443750000000        -1.555377765472103E-123
   70.8581250000000        -1.693592231875117E-123
   71.0718750000000        -1.269029568347031E-123
   71.2856250000000         1.787743624731024E-124
   71.4993750000000         3.198392221633377E-123
   71.7131250000000         8.295370154395740E-123
   71.9268750000000         1.567423147875730E-122
   72.1406250000000         2.482159061492893E-122
   72.3543750000000         3.392895275432597E-122
   72.5681250000000         3.921769893156931E-122
   72.7818750000000         3.433533275724221E-122
   72.9956250000000         1.014319477547505E-122
   73.2093750000000        -4.460245338502300E-122
   73.4231250000000        -1.410024614294034E-121
   73.6368750000000        -2.854433901746138E-121
   73.8506250000000        -4.720755699098746E-121
   74.0643750000000        -6.722221267684710E-121
   74.2781250000000        -8.216759094389804E-121
   74.4918750000000        -8.086403302400134E-121
   74.7056250000000        -4.676280757010450E-121
   74.9193750000000         4.122715153487331E-121
   75.1331250000000         2.053351665532902E-120
   75.3468750000000         4.616410711059384E-120
   75.5606250000000         8.077584808893446E-120
   75.7743750000000         1.205090413679828E-119
   75.9881250000000         1.556882009230881E-119
   76.2018750000000         1.686042533979080E-119
   76.4156250000000         1.320652256019312E-119
   76.6293750000000         9.991579546993748E-121
   76.8431250000000        -2.381820307397396E-119
   77.0568750000000        -6.472227707537128E-119
   77.2706250000000        -1.227986299716286E-118
   77.4843750000000        -1.940462598799792E-118
   77.6981250000000        -2.659126258764201E-118
   77.9118750000000        -3.135481156340126E-118
   78.1256250000000        -2.968173376979772E-118
   78.3393750000000        -1.597965854485607E-118
   78.5531250000000         1.647829569157592E-118
   78.7668750000000         7.431281894046476E-118
   78.9806250000000         1.616943629966940E-117
   79.1943750000000         2.766801173993306E-117
   79.4081250000000         4.062578553614522E-117
   79.6218750000000         5.205652615578283E-117
   79.8356250000000         5.674280009603214E-117
   80.0493750000000         4.692503751241189E-117
   80.2631250000000         1.253040391018259E-117
   80.4768750000000        -5.766151473174508E-117
   80.6906250000000        -1.734703337270632E-116
   80.9043750000000        -3.389824650861387E-116
   81.1181250000000        -5.462335051890678E-116
   81.3318750000000        -7.671267884323412E-116
   81.5456250000000        -9.445114409749160E-116
   81.7593750000000        -9.843498878532338E-116
   81.9731250000000        -7.521802657376580E-116
   82.1868750000000        -7.849189792418485E-117
   82.4006250000000         1.221082535047792E-115
   82.6143750000000         3.304126757814323E-115
   82.8281250000000         6.232170021993835E-115
   83.0418750000000         9.870036612987821E-115
   83.2556250000000         1.375544975505894E-114
   83.4693750000000         1.694989063752296E-114
   83.6831250000000         1.789599890024471E-114
   83.8968750000000         1.432654651770953E-114
   84.1106250000000         3.294886330086430E-115
   84.3243750000000        -1.857519356003833E-114
   84.5381250000000        -5.449576849045237E-114
   84.7518750000000        -1.064366575942858E-113
   84.9656250000000        -1.734313278071506E-113
   85.1793750000000        -2.491917166009210E-113
   85.3931250000000        -3.190913107850345E-113
   85.6068750000000        -3.568254517568180E-113
   85.8206250000000        -3.214604353283699E-113
   86.0343750000000        -1.561635192984880E-113
   86.2481250000000         2.093470084647250E-113
   86.4618750000000         8.497629463196957E-113
   86.6756250000000         1.824981782227528E-112
   86.8893750000000         3.146951759104079E-112
   87.1031250000000         4.729668338121102E-112
   87.3168750000000         6.322226758274722E-112
   87.5306250000000         7.430527821061307E-112
   87.7443750000000         7.242738927534400E-112
   87.9581250000000         4.587405568996258E-112
   88.1718750000000        -2.029413074000553E-112
   88.3856250000000        -1.424299557557616E-111
   88.5993750000000        -3.342556104387839E-111
   88.8131250000000        -5.997889203975703E-111
   89.0268750000000        -9.227116712021294E-111
   89.2406250000000        -1.252367125085284E-110
   89.4543750000000        -1.487914302830830E-110
   89.6681250000000        -1.464262188782545E-110
   89.8818750000000        -9.462449098944180E-111
   90.0956250000000         3.592063148074317E-111
   90.3093750000000         2.760100109336091E-110
   90.5231250000000         6.491342696518157E-110
   90.7368750000000         1.156932634994559E-109
   90.9506250000000         1.758488183709939E-109
   91.1643750000000         2.344715852859978E-109
   91.3781250000000         2.711893146589934E-109
   91.5918750000000         2.542347049251825E-109
   91.8056250000000         1.405160905101894E-109
   92.0193750000000        -1.205332954318898E-109
   92.2331250000000        -5.772147448539759E-109
   92.4468750000000        -1.257885343409889E-108
   92.6606250000000        -2.144093671088529E-108
   92.8743750000000        -3.135192599154491E-108
   93.0881250000000        -4.008449802789189E-108
   93.3018750000000        -4.383634274745126E-108
   93.5156250000000        -3.707372667750343E-108
   93.7293750000000        -1.279351789797071E-108
   93.9431250000000         3.652105420218219E-108
   94.1568750000000         1.169632919588434E-107
   94.3706250000000         2.300662917037872E-107
   94.5843750000000         3.684455690113018E-107
   94.7981250000000         5.105691051415852E-107
   95.0118750000000         6.155690982085676E-107
   95.2256250000000         6.197567631542996E-107
   95.4393750000000         4.373425091060744E-107
   95.6531250000000        -3.138869435505357E-108
   95.8668750000000        -8.808532469810759E-107
   96.0806250000000        -2.166797469108908E-106
   96.2943750000000        -3.857536663627896E-106
   96.5081250000000        -5.772300076744911E-106
   96.7218750000000        -7.515146491155001E-106
   96.9356250000000        -8.421057233840010E-106
   97.1493750000000        -7.540354044804219E-106
   97.3631250000000        -3.696716396252057E-106
   97.5768750000000         4.340319765492276E-106
   97.7906250000000         1.752987128561649E-105
   98.0043750000000         3.605856800170168E-105
   98.2181250000000         5.867612690081030E-105
   98.4318750000000         8.193847675325675E-105
   98.6456250000000         9.951172489841635E-105
   98.8593750000000         1.017904417949379E-104
   99.0731250000000         7.618534357249316E-105
   99.2868750000000         8.509381941915607E-106
   99.5006250000000        -1.141053497863936E-104
   99.7143750000000        -2.984488327945760E-104
   99.9281250000000        -5.386255242662991E-104
   100.141875000000        -8.081254856602148E-104
   100.355625000000        -1.051881993762818E-103
   100.569375000000        -1.180604263496212E-103
   100.783125000000        -1.070718618540163E-103
   100.996875000000        -5.741040856527203E-104
   101.210625000000         4.579185503678800E-104
   101.424375000000         2.132694225751884E-103
   101.638125000000         4.455234339987260E-103
   101.851875000000         7.251478860712490E-103
   102.065625000000         1.008611288699820E-102
   102.279375000000         1.219423011564016E-102
   102.493125000000         1.245613901189227E-102
   102.706875000000         9.453496161551065E-103
   102.920625000000         1.649417966588753E-103
   103.134375000000        -1.226913060853170E-102
   103.348125000000        -3.286655320844170E-102
   103.561875000000        -5.926797871129974E-102
   103.775625000000        -8.837711615735178E-102
   103.989375000000        -1.141546349954304E-101
   104.203125000000        -1.271988135550779E-101
   104.416875000000        -1.149554165449870E-101
   104.630625000000        -6.293777110474292E-102
   104.844375000000         4.267561820160619E-102
   105.058125000000         2.108225361994554E-101
   105.271875000000         4.397499467246991E-101
   105.485625000000         7.101060054091996E-101
   105.699375000000         9.780514003267674E-101
   105.913125000000         1.170267224585443E-100
   106.126875000000         1.183496005920952E-100
   106.340625000000         8.918097416273177E-101
   106.554375000000         1.648673437142793E-101
   106.768125000000        -1.100341065026572E-100
   106.981875000000        -2.933712440154884E-100
   107.195625000000        -5.235049914061307E-100
   107.409375000000        -7.713594883213151E-100
   107.623125000000        -9.837816118535194E-100
   107.836875000000        -1.081553769481767E-099
   108.050625000000        -9.629641168202775E-100
   108.264375000000        -5.156403346537588E-100
   108.478125000000         3.610618474418981E-100
   108.691875000000         1.722113817539023E-099
   108.905625000000         3.532699445345073E-099
   109.119375000000         5.618880492531615E-099
   109.333125000000         7.622546195122483E-099
   109.546875000000         8.975133281897227E-099
   109.760625000000         8.908978978239958E-099
   109.974375000000         6.527409907385161E-099
   110.188125000000         9.528366497325059E-100
   110.401875000000        -8.435876348031311E-099
   110.615625000000        -2.168146198134739E-098
   110.829375000000        -3.787120281199064E-098
   111.043125000000        -5.476695647962961E-098
   111.256875000000        -6.854150078511346E-098
   111.470625000000        -7.375505489712151E-098
   111.684375000000        -6.372753360018343E-098
   111.898125000000        -3.145732870252241E-098
   112.111875000000         2.880888545966009E-098
   112.325625000000         1.193522892986298E-097
   112.539375000000         2.362654041154902E-097
   112.753125000000         3.666281864574382E-097
   112.966875000000         4.862243448901592E-097
   113.180625000000         5.587029476346912E-097
   113.394375000000         5.372745811232311E-097
   113.608125000000         3.700513562414519E-097
   113.821875000000         9.892152853891150E-099
   114.035625000000        -5.709993704784832E-097
   114.249375000000        -1.362520228557056E-096
   114.463125000000        -2.296420294960645E-096
   114.676875000000        -3.228397559987981E-096
   114.890625000000        -3.928388145644111E-096
   115.104375000000        -4.086330293365346E-096
   115.318125000000        -3.341135252629032E-096
   115.531875000000        -1.339391783737214E-096
   115.745625000000         2.173207810057044E-096
   115.959375000000         7.231086500476042E-096
   116.173125000000         1.351124444686401E-095
   116.386875000000         2.020305329763111E-095
   116.600625000000         2.592168397824421E-095
   116.814375000000         2.871179502722509E-095
   117.028125000000         2.619290668162518E-095
   117.241875000000         1.589278785534274E-095
   117.455625000000        -4.204239892641994E-096
   117.669375000000        -3.490435382649372E-095
   117.883125000000        -7.491285103363129E-095
   118.096875000000        -1.199422316265557E-094
   118.310625000000        -1.620364390385891E-094
   118.524375000000        -1.893986380650051E-094
   118.738125000000        -1.870506146798141E-094
   118.951875000000        -1.386357393462814E-094
   119.165625000000        -2.957635282952412E-095
   119.379375000000         1.484127430343325E-094
   119.593125000000         3.917800822801154E-094
   119.806875000000         6.793196139481990E-094
   120.020625000000         9.673260014034862E-094
   120.234375000000         1.187432375413060E-093
   120.448125000000         1.249147439877010E-093
   120.661875000000         1.049101983607207E-093
   120.875625000000         4.885212218904317E-094
   121.089375000000        -5.006909453333539E-094
   121.303125000000        -1.922715933552717E-093
   121.516875000000        -3.681405892636206E-093
   121.730625000000        -5.547607543531803E-093
   121.944375000000        -7.140048502308212E-093
   122.158125000000        -7.931767133152889E-093
   122.371875000000        -7.294552077613603E-093
   122.585625000000        -4.591647793722131E-093
   122.799375000000         6.768577046447670E-094
   123.013125000000         8.681595528456095E-093
   123.226875000000         1.904421158939536E-092
   123.440625000000         3.062729391389654E-092
   123.654375000000         4.138846956572533E-092
   123.868125000000         4.836750093594082E-092