  -1.60312500000000         0.000000000000000E+000
  -1.38937500000000         0.000000000000000E+000
  -1.17562500000000         0.000000000000000E+000
 -0.961875000000000         0.000000000000000E+000
 -0.748125000000000         0.000000000000000E+000
 -0.534375000000000         0.000000000000000E+000
 -0.320625000000000         0.000000000000000E+000
 -0.106875000000000         0.000000000000000E+000
  0.106875000000000         0.000000000000000E+000
  0.320625000000000         0.000000000000000E+000
  0.534375000000000         0.000000000000000E+000
  0.748125000000000         0.000000000000000E+000
  0.961875000000000         0.000000000000000E+000
   1.17562500000000         0.000000000000000E+000
   1.38937500000000         0.000000000000000E+000
   1.60312500000000         0.000000000000000E+000
   1.81687500000000         0.000000000000000E+000
   2.03062500000000         0.000000000000000E+000
   2.24437500000000         0.000000000000000E+000
   2.45812500000000         0.000000000000000E+000
   2.67187500000000         0.000000000000000E+000
   2.88562500000000         0.000000000000000E+000
   3.09937500000000         0.000000000000000E+000
   3.31312500000000         0.000000000000000E+000
   3.52687500000000         0.000000000000000E+000
   3.74062500000000         0.000000000000000E+000
   3.95437500000000         0.000000000000000E+000
   4.16812500000000         0.000000000000000E+000
   4.38187500000000         0.000000000000000E+000
   4.59562500000000         0.000000000000000E+000
   4.80937500000000         0.000000000000000E+000
   5.02312500000000         0.000000000000000E+000
   5.23687500000000         0.000000000000000E+000
   5.45062500000000         0.000000000000000E+000
   5.66437500000000         0.000000000000000E+000
   5.87812500000000         0.000000000000000E+000
   6.09187500000000         0.000000000000000E+000
   6.30562500000000         0.000000000000000E+000
   6.51937500000000         0.000000000000000E+000
   6.73312500000000         0.000000000000000E+000
   6.94687500000000         0.000000000000000E+000
   7.16062500000000         0.000000000000000E+000
   7.37437500000000         0.000000000000000E+000
   7.58812500000000         0.000000000000000E+000
   7.80187500000000         0.000000000000000E+000
   8.01562500000000         0.000000000000000E+000
   8.22937500000000         0.000000000000000E+000
   8.44312500000000         0.000000000000000E+000
   8.65687500000000         0.000000000000000E+000
   8.87062500000000         0.000000000000000E+000
   9.08437500000000         0.000000000000000E+000
   9.29812500000000         0.000000000000000E+000
   9.51187500000000         0.000000000000000E+000
   9.72562500000000         0.000000000000000E+000
   9.93937500000000         0.000000000000000E+000
   10.1531250000000         0.000000000000000E+000
   10.3668750000000         0.000000000000000E+000
   10.5806250000000         0.000000000000000E+000
   10.7943750000000        -4.902187836264973E-243
   11.0081250000000         4.342548143730433E-236
   11.2218750000000         7.768821002731723E-234
   11.4356250000000         2.948439171800222E-228
   11.6493750000000         7.229197016886902E-226
   11.8631250000000         5.527853633002600E-224
   12.0768750000000         3.250202967630682E-222
   12.2906250000000         1.422968723586408E-220
   12.5043750000000         4.402560780482457E-219
   12.7181250000000         9.634896899577928E-218
   12.9318750000000         1.458325333058562E-216
   13.1456250000000         1.263742873928513E-215
   13.3593750000000        -4.418844892661215E-215
   13.5731250000000        -4.071224116217373E-213
   13.7868750000000        -9.148663615816608E-212
   14.0006250000000        -1.435316147505617E-210
   14.2143750000000        -1.811738653643230E-209
   14.4281250000000        -1.938302407296915E-208
   14.6418750000000        -1.802954931725432E-207
   14.8556250000000        -1.477904937767546E-206
   15.0693750000000        -1.073985257493915E-205
   15.2831250000000        -6.912708305850447E-205
   15.4968750000000        -3.900586504863189E-204
   15.7106250000000        -1.874571266798681E-203
   15.9243750000000        -7.063385850849666E-203
   16.1381250000000        -1.417978745589323E-202
   16.3518750000000         6.868813669190549E-202
   16.5656250000000         1.084325683079516E-200
   16.7793750000000         8.596531263015925E-200
   16.9931250000000         5.302134207674646E-199
   17.2068750000000         2.774461562234851E-198
   17.4206250000000         1.263063112614178E-197
   17.6343750000000         4.991302671278836E-197
   17.8481250000000         1.657027424219088E-196
   18.0618750000000         4.120089222990932E-196
   18.2756250000000         3.479015657100056E-196
   18.4893750000000        -4.009381820355710E-195
   18.7031250000000        -3.415951248931317E-194
   18.9168750000000        -1.812372337375431E-193
   19.1306250000000        -7.628846290256609E-193
   19.3443750000000        -2.657954475654172E-192
   19.5581250000000        -7.415935312448426E-192
   19.7718750000000        -1.357516545768120E-191
   19.9856250000000         8.640304348764707E-192
   20.1993750000000         2.336556653784643E-190
   20.4131250000000         1.409980975134291E-189
   20.6268750000000         6.169501087220579E-189
   20.8406250000000         2.215973260029061E-188
   21.0543750000000         6.639580346557204E-188
   21.2681250000000         1.568528960643922E-187
   21.4818750000000         2.141614163899213E-187
   21.6956250000000        -4.370434595739897E-187
   21.9093750000000        -4.998330264926616E-186
   22.1231250000000        -2.544301026594809E-185
   22.3368750000000        -9.958471666025213E-185
   22.5506250000000        -3.285185802185354E-184
   22.7643750000000        -9.278114710980211E-184
   22.9781250000000        -2.169955660074674E-183
   23.1918750000000        -3.607831763588065E-183
   23.4056250000000        -3.389905467396467E-184
   23.6193750000000         3.051151641349844E-182
   23.8331250000000         1.706545294670109E-181
   24.0468750000000         6.655361260957667E-181
   24.2606250000000         2.143951478169263E-180
   24.4743750000000         5.926853945197090E-180
   24.6881250000000         1.390953914907953E-179
   24.9018750000000         2.561763076255048E-179
   25.1156250000000         2.429118176606001E-179
   25.3293750000000        -7.082378135591997E-179
   25.5431250000000        -5.396416164663207E-178
   25.7568750000000        -2.184557028383130E-177
   25.9706250000000        -6.957685230965185E-177
   26.1843750000000        -1.876673430772960E-176
   26.3981250000000        -4.311350233261905E-176
   26.6118750000000        -8.013329686401404E-176
   26.8256250000000        -9.462957025497162E-176
   27.0393750000000         7.763736633196239E-176
   27.2531250000000         9.702706530448910E-175
   27.4668750000000         3.996688095550696E-174
   27.6806250000000         1.228244090822791E-173
   27.8943750000000         3.131417775901251E-173
   28.1081250000000         6.687949085877748E-173
   28.3218750000000         1.121890516484659E-172
   28.5356250000000         1.034289762207561E-172
   28.7493750000000        -1.999821872816258E-172
   28.9631250000000        -1.482205758940472E-171
   29.1768750000000        -5.350239757850735E-171
   29.3906250000000        -1.491382391334006E-170
   29.6043750000000        -3.465038698976483E-170
   29.8181250000000        -6.675386780371293E-170
   30.0318750000000        -9.663679215500340E-170
   30.2456250000000        -5.187189478975460E-170
   30.4593750000000         2.923815215646972E-169
   30.6731250000000         1.492149076747825E-168
   30.8868750000000         4.688257499661748E-168
   31.1006250000000         1.174853196512861E-167
   31.3143750000000         2.460546602585696E-167
   31.5281250000000         4.194335533841160E-167
   31.7418750000000         4.925872231946610E-167
   31.9556250000000        -4.620483541753471E-168
   32.1693750000000        -2.530788203240535E-166
   32.3831250000000        -9.807502137819410E-166
   32.5968750000000        -2.683301012162108E-165
   32.8106250000000        -5.987084382797031E-165
   33.0243750000000        -1.107746036930195E-164
   33.2381250000000        -1.588334342170992E-164
   33.4518750000000        -1.171322703841311E-164
   33.6656250000000         2.530937393445684E-164
   33.8793750000000         1.476257279783536E-163
   34.0931250000000         4.497975777014545E-163
   34.3068750000000         1.062672216543295E-162
   34.5206250000000         2.075742893122081E-162
   34.7343750000000         3.276745798351539E-162
   34.9481250000000         3.518206690485858E-162
   35.1618750000000        -5.314142918721522E-163
   35.3756250000000        -1.636811495485634E-161
   35.5893750000000        -5.782904420299608E-161
   35.8031250000000        -1.451144095248905E-160
   36.0168750000000        -2.964058561192029E-160
   36.2306250000000        -4.980681931712094E-160
   36.4443750000000        -6.314962251360413E-160
   36.6581250000000        -3.289265784715656E-160
   36.8718750000000         1.256254446819889E-159
   37.0856250000000         5.712528409949116E-159
   37.2993750000000         1.543385180285880E-158
   37.5131250000000         3.287520111476400E-158
   37.7268750000000         5.776034911014708E-158
   37.9406250000000         8.020310274085831E-158
   38.1543750000000         6.723935765404482E-158
   38.3681250000000        -5.848142741469183E-158
   38.5818750000000        -4.432747529408694E-157
   38.7956250000000        -1.310575764473255E-156
   39.0093750000000        -2.902674942530299E-156
   39.2231250000000        -5.257291193279267E-156
   39.4368750000000        -7.662238263365267E-156
   39.6506250000000        -7.605484666726439E-156
   39.8643750000000         8.514703670354137E-157
   40.0781250000000         2.889800634484169E-155
   40.2918750000000         9.350957584165975E-155
   40.5056250000000         2.130860778142918E-154
   40.7193750000000         3.913450924936032E-154
   40.9331250000000         5.790835117105325E-154
   41.1468750000000         6.026070774647228E-154
   41.3606250000000         5.662711228745966E-155
   41.5743750000000        -1.808701590401779E-153
   41.7881250000000        -6.103069494996835E-153
   42.0018750000000        -1.397499250431046E-152
   42.2156250000000        -2.551926133010724E-152
   42.4293750000000        -3.728096341467726E-152
   42.6431250000000        -3.772576803457704E-152
   42.8568750000000        -6.867610147065682E-154
   43.0706250000000         1.211408769911085E-151
   43.2843750000000         3.960021224999690E-151
   43.4981250000000         8.913678052004294E-151
   43.7118750000000         1.604283427631604E-150
   43.9256250000000         2.306031759725606E-150
   44.1393750000000         2.263838869856024E-150
   44.3531250000000        -1.601898226604835E-151
   44.5668750000000        -7.913949038166701E-150
   44.7806250000000        -2.528197999203945E-149
   44.9943750000000        -5.668123573777407E-149
   45.2081250000000        -1.026890876945297E-148
   45.4218750000000        -1.510443306904952E-148
   45.6356250000000        -1.601783824768584E-148
   45.8493750000000        -3.448421089317079E-149
   46.0631250000000         4.036366848425255E-148
   46.2768750000000         1.426388144922567E-147
   46.4906250000000         3.354101769532040E-147
   46.7043750000000         6.367042986398163E-147
   46.9181250000000         1.004595013833211E-146
   47.1318750000000         1.248056490216041E-146
   47.3456250000000         8.828118093845185E-147
   47.5593750000000        -1.056736588648840E-146
   47.7731250000000        -6.178839534742515E-146
   47.9868750000000        -1.667856657668252E-145
   48.2006250000000        -3.467377956453725E-145
   48.4143750000000        -6.026494553261851E-145
   48.6281250000000        -8.737177854609376E-145
   48.8418750000000        -9.633751326364180E-145
   49.0556250000000        -4.291379699751527E-145
   49.2693750000000         1.546311808110368E-144
   49.4831250000000         6.236888796874669E-144
   49.6968750000000         1.525205852532275E-143
   49.9106250000000         2.991759706358310E-143
   50.1243750000000         4.968585302800111E-143
   50.3381250000000         6.895381126620002E-143
   50.5518750000000         7.170888752935506E-143
   50.7656250000000         2.397666256725426E-143
   50.9793750000000        -1.343580800416241E-142
   51.1931250000000        -4.934175238203539E-142
   51.4068750000000        -1.162052918469728E-141
   51.6206250000000        -2.221897882323006E-141
   51.8343750000000        -3.616973634859528E-141
   52.0481250000000        -4.941813442140490E-141
   52.2618750000000        -5.097321381210883E-141
   52.4756250000000        -1.822776484335192E-141
   52.6893750000000         8.785083527733079E-141
   52.9031250000000         3.244996849645055E-140
   53.1168750000000         7.593153050941082E-140
   53.3306250000000         1.441343039231286E-139
   53.5443750000000         2.334287986238514E-139
   53.7581250000000         3.191895042173429E-139
   53.9718750000000         3.360553256793898E-139
   54.1856250000000         1.517747094245915E-139
   54.3993750000000        -4.587408147137278E-139
   54.6131250000000        -1.821489621315748E-138
   54.8268750000000        -4.318083027944507E-138
   55.0406250000000        -8.227395459929056E-138
   55.2543750000000        -1.336920240044271E-137
   55.4681250000000        -1.845300821160873E-137
   55.6818750000000        -2.006628428649420E-137
   55.8956250000000        -1.135968537939927E-137
   56.1093750000000         1.922726870789466E-137
   56.3231250000000         8.832818875355931E-137
   56.5368750000000         2.154018416245378E-136
   56.7506250000000         4.150962203517416E-136
   56.9643750000000         6.803782876376858E-136
   57.1781250000000         9.521997837356945E-136
   57.3918750000000         1.073068223089361E-135
   57.6056250000000         7.275651652734768E-136
   57.8193750000000        -6.145550195448253E-136
   58.0331250000000        -3.714503691789596E-135
   58.2468750000000        -9.467412367821500E-135
   58.4606250000000        -1.857629873037765E-134
   58.6743750000000        -3.084041218600538E-134
   58.8881250000000        -4.389064553571592E-134
   59.1018750000000        -5.127509972598500E-134
   59.3156250000000        -4.002858839163740E-134
   59.5293750000000         1.164563121673130E-134
   59.7431250000000         1.350910080258731E-133
   59.9568750000000         3.675405470475143E-133
   60.1706250000000         7.397411445455997E-133
   60.3843750000000         1.249087961990477E-132
   60.5981250000000         1.812231378008822E-132
   60.8118750000000         2.193807191805272E-132
   61.0256250000000         1.916288224717925E-132
   61.2393750000000         1.733771959713522E-133
   61.4531250000000        -4.200878368351570E-132
   61.6668750000000        -1.261181290753490E-131
   61.8806250000000        -2.628498967876713E-131
   62.0943750000000        -4.535451902824680E-131
   62.3081250000000        -6.725865732860579E-131
   62.5218750000000        -8.433250951913884E-131
   62.7356250000000        -8.075817303408498E-131
   62.9493750000000        -2.958665543163488E-131
   63.1631250000000         1.085224235740201E-130
   63.3768750000000         3.818625143093372E-130
   63.5906250000000         8.349712984349321E-130
   63.8043750000000         1.480702793274724E-129
   64.0181250000000         2.250949078289693E-129
   64.2318750000000         2.922548209420839E-129
   64.4456250000000         3.022815380281569E-129
   64.6593750000000         1.735123289106027E-129
   64.8731250000000        -2.148440744015367E-129
   65.0868750000000        -1.014257003507756E-128
   65.3006250000000        -2.372298419800193E-128
   65.5143750000000        -4.355150424657892E-128
   65.7281250000000        -6.809805935856834E-128
   65.9418750000000        -9.155619935596257E-128
   66.1556250000000        -1.011576757342301E-127
   66.3693750000000        -7.441226643749115E-128
   66.5831250000000         2.250568862752728E-128
   66.7968750000000         2.330216762168338E-127
   67.0106250000000         6.017173596056768E-127
   67.2243750000000         1.154813670102757E-126
   67.4381250000000         1.865011163717592E-126
   67.6518750000000         2.597783162840981E-126
   67.8656250000000         3.041240273021828E-126
   68.0793750000000         2.631796508869943E-126
   68.2931250000000         5.045375619345928E-127
   68.5068750000000        -4.479343014971608E-126
   68.7206250000000        -1.354796517633693E-125
   68.9343750000000        -2.757246295883447E-125
   69.1481250000000        -4.624779542449516E-125
   69.3618750000000        -6.682464818532151E-125
   69.5756250000000        -8.242619487727540E-125
   69.7893750000000        -8.020580980940541E-125
   70.0031250000000        -3.996866868612957E-125
   70.2168750000000         6.560297885545276E-125
   70.4306250000000         2.673675338430699E-124
   70.6443750000000         5.904762393799283E-124
   70.8581250000000         1.036958352859916E-123
   71.0718750000000         1.558295536381412E-123
   71.2856250000000         2.018319749137745E-123
   71.4993750000000         2.151234718402689E-123
   71.7131250000000         1.526964568350504E-123
   71.9268750000000        -4.534922572313672E-124
   72.1406250000000        -4.497477657567830E-123
   72.3543750000000        -1.124794326790979E-122
   72.5681250000000        -2.094657016058905E-122
   72.7818750000000        -3.289142159428996E-122
   72.9956250000000        -4.468681634221789E-122
   73.2093750000000        -5.136480141703977E-122
   73.4231250000000        -4.459431842586908E-122
   73.6368750000000        -1.238915513009492E-122
   73.8506250000000         6.003747237328055E-122
   74.0643750000000         1.873955127466690E-121
   74.2781250000000         3.784202594283789E-121
   74.4918750000000         6.260998202963036E-121
   74.7056250000000         8.937971542224877E-121
   74.9193750000000         1.098388312750035E-120
   75.1331250000000         1.093838659594690E-120
   75.3468750000000         6.619633181870641E-121
   75.5606250000000        -4.787688520321691E-121
   75.7743750000000        -2.631393270855597E-120
   75.9881250000000        -6.027946780146574E-120
   76.2018750000000        -1.067002296547749E-119
   76.4156250000000        -1.609480714906378E-119
   76.6293750000000        -2.107903749562225E-119
   76.8431250000000        -2.332832119698511E-119
   77.0568750000000        -1.925085846214490E-119
   77.2706250000000        -3.980184689977511E-120
   77.4843750000000         2.811920134012000E-119
   77.6981250000000         8.217761915473979E-119
   77.9118750000000         1.604918990784029E-118
   78.1256250000000         2.589581395390678E-118
   78.3393750000000         3.623397739789813E-118
   78.5531250000000         4.389190691144400E-118
   78.7668750000000         4.358029511212873E-118
   78.9806250000000         2.771063965957807E-118
   79.1943750000000        -1.316948586422603E-118
   79.4081250000000        -8.890180306683307E-118
   79.6218750000000        -2.067441502702794E-117
   79.8356250000000        -3.665211541280148E-117
   80.0493750000000        -5.537983582773267E-117
   80.2631250000000        -7.315334815215497E-117
   80.4768750000000        -8.315526165464708E-117
   80.6906250000000        -7.484441568028760E-117
   80.9043750000000        -3.399709819035945E-117
   81.1181250000000         5.603691079082333E-117
   81.3318750000000         2.111899946149126E-116
   81.5456250000000         4.409712132229445E-116
   81.7593750000000         7.397306577964286E-116
   81.9731250000000         1.074939739022661E-115
   82.1868750000000         1.373466693014769E-115
   82.4006250000000         1.508253428703798E-115
   82.6143750000000         1.289720423234609E-115
   82.8281250000000         4.685071498395720E-116
   83.0418750000000        -1.241539351559170E-115
   83.2556250000000        -4.109495232733210E-115
   83.4693750000000        -8.291786794128298E-115
   83.6831250000000        -1.368673769690710E-114
   83.8968750000000        -1.973818741452197E-114
   84.1106250000000        -2.520058090271853E-114
   84.3243750000000        -2.789945154545312E-114
   84.5381250000000        -2.455195093607802E-114
   84.7518750000000        -1.075169909841991E-114
   84.9656250000000         1.873229146944706E-114
   85.1793750000000         6.914897843686032E-114
   85.3931250000000         1.442290293557609E-113
   85.6068750000000         2.437072945718683E-113
   85.8206250000000         3.597748939632662E-113
   86.0343750000000         4.725314204643403E-113
   86.2481250000000         5.448772340871836E-113
   86.4618750000000         5.178762998907410E-113
   86.6756250000000         3.084618022822745E-113
   86.8893750000000        -1.875733533627302E-113
   87.1031250000000        -1.083185991643352E-112
   87.3168750000000        -2.473189879326027E-112
   87.5306250000000        -4.387479417956042E-112
   87.7443750000000        -6.720226888839444E-112
   87.9581250000000        -9.134769370790780E-112
   88.1718750000000        -1.095168270605845E-111
   88.3856250000000        -1.104047685956536E-111
   88.5993750000000        -7.754093003594976E-112
   88.8131250000000         1.030806270591278E-112
   89.0268750000000         1.767915328001916E-111
   89.2406250000000         4.425951045635383E-111
   89.4543750000000         8.159118979251984E-111
   89.6681250000000         1.277975664106213E-110
   89.8818750000000         1.763778134195264E-110
   90.0956250000000         2.139832607075252E-110
   90.3093750000000         2.183604405695353E-110
   90.5231250000000         1.573023761782963E-110
   90.7368750000000        -1.009959318340277E-111
   90.9506250000000        -3.281763540209856E-110
   91.1643750000000        -8.333906763356614E-110
   91.3781250000000        -1.535227145046065E-109
   91.5918750000000        -2.388395055949471E-109
   91.8056250000000        -3.257569074110109E-109
   92.0193750000000        -3.879477628704928E-109
   92.2331250000000        -3.832376067737710E-109
   92.4468750000000        -2.529542272287703E-109
   92.6606250000000         7.395593249123724E-110
   92.8743750000000         6.691341361492221E-109
   93.0881250000000         1.582354256067707E-108
   93.3018750000000         2.806259059394907E-108
   93.5156250000000         4.228410657135412E-108
   93.7293750000000         5.574985733018204E-108
   93.9431250000000         6.356899921151831E-108
   94.1568750000000         5.837687111705883E-108
   94.3706250000000         3.052118485268894E-108
   94.5843750000000        -3.086832474679882E-108
   94.7981250000000        -1.355113230426906E-107
   95.0118750000000        -2.879533903710663E-107
   95.2256250000000        -4.817541115759838E-107
   95.4393750000000        -6.922042792584791E-107
   95.6531250000000        -8.686169055571003E-107
   95.8668750000000        -9.282394411641091E-107
   96.0806250000000        -7.550250491284966E-107
   96.2943750000000        -2.076604344150997E-107
   96.5081250000000         8.580102160278338E-107
   96.7218750000000         2.547271225673493E-106
   96.9356250000000         4.862593677339578E-106
   97.1493750000000         7.618969149230179E-106
   97.3631250000000         1.034757357050343E-105
   97.5768750000000         1.220764490839899E-105
   97.7906250000000         1.193985975748192E-105
   98.0043750000000         7.908419145380662E-106
   98.2181250000000        -1.710314870379153E-106
   98.4318750000000        -1.853325824705567E-105
   98.6456250000000        -4.332588792632318E-105
   98.8593750000000        -7.510337341790399E-105
   99.0731250000000        -1.100462712739976E-104
   99.2868750000000        -1.404079974314615E-104
   99.5006250000000        -1.537307433355051E-104
   99.7143750000000        -1.328391399954951E-104
   99.9281250000000        -5.721161157629693E-105
   100.141875000000         9.361731950428347E-105
   100.355625000000         3.340687078587020E-104
   100.569375000000         6.637247892690084E-104
   100.783125000000         1.056159891105897E-103
   100.996875000000         1.446842118703149E-103
   101.210625000000         1.722902730769327E-103
   101.424375000000         1.719116646509622E-103
   101.638125000000         1.225875416137657E-103
   101.851875000000         1.576804527765237E-105
   102.065625000000        -2.105067605602437E-103
   102.279375000000        -5.217209327101114E-103
   102.493125000000        -9.181658586744620E-103
   102.706875000000        -1.351769499595981E-102
   102.920625000000        -1.728784159776056E-102
   103.134375000000        -1.902750601509228E-102
   103.348125000000        -1.677134248671409E-102
   103.561875000000        -8.238561456020937E-103
   103.775625000000         8.760630911233271E-103
   103.989375000000         3.565278748198766E-102
   104.203125000000         7.216088725801088E-102
   104.416875000000         1.151665722364232E-101
   104.630625000000         1.575501682743566E-101
   104.844375000000         1.873128767539164E-101
   105.058125000000         1.874205982023955E-101
   105.271875000000         1.369165248709243E-101
   105.485625000000         1.388124482190502E-102
   105.699375000000        -1.992864603906501E-101
   105.913125000000        -5.081027904785836E-101
   106.126875000000        -8.961448106209807E-101
   106.340625000000        -1.314348404916152E-100
   106.554375000000        -1.671773265453969E-100
   106.768125000000        -1.831326697308792E-100
   106.981875000000        -1.614964697667261E-100
   107.195625000000        -8.233862379050009E-101
   107.409375000000         7.252839586355782E-101
   107.623125000000         3.135406681997439E-100
   107.836875000000         6.354027725683825E-100
   108.050625000000         1.007944944495194E-099
   108.264375000000         1.367471903756566E-099
   108.478125000000         1.611221211182677E-099
   108.691875000000         1.598449718848687E-099
   108.905625000000         1.162223971065732E-099
   109.119375000000         1.358324185969748E-100
   109.333125000000        -1.603558824553215E-099
   109.546875000000        -4.074213444395822E-099
   109.760625000000        -7.116905760881628E-099
   109.974375000000        -1.032089277779186E-098
   110.188125000000        -1.296734225037269E-098
   110.401875000000        -1.401614257752851E-098
   110.615625000000        -1.216731365276259E-098
   110.829375000000        -6.028767415532201E-099
   111.043125000000         5.585220988308173E-099
   111.256875000000         2.321884939045530E-098
   111.470625000000         4.622846021131254E-098
   111.684375000000         7.219528267050633E-098
   111.898125000000         9.642206679528303E-098
   112.111875000000         1.116949545947045E-097
   112.325625000000         1.085370298951568E-097
   112.539375000000         7.619497590024823E-098
   112.753125000000         4.562709690662293E-099
   112.966875000000        -1.128669609615886E-097
   113.180625000000        -2.751370180422792E-097
   113.394375000000        -4.694637727013146E-097
   113.608125000000        -6.671746794613409E-097
   113.821875000000        -8.211543983081898E-097
   114.035625000000        -8.663609634963857E-097
   114.249375000000        -7.251471010439994E-097
   114.463125000000        -3.189614275408559E-097
   114.676875000000         4.126494718025798E-097
   114.890625000000         1.486094998005559E-096
   115.104375000000         2.843160575851438E-096
   115.318125000000         4.320643285977419E-096
   115.531875000000         5.627889078396193E-096
   115.745625000000         6.342515880978603E-096
   115.959375000000         5.936175965061783E-096
   116.173125000000         3.841752042613274E-096
   116.386875000000        -4.301824711270820E-097
   116.600625000000        -7.125409644501526E-096
   116.814375000000        -1.604249711665977E-095
   117.028125000000        -2.631972175834059E-095
   117.241875000000        -3.625932735461176E-095
   117.455625000000        -4.325399735010546E-095
   117.669375000000        -4.389291553368283E-095
   117.883125000000        -3.432544761109981E-095
   118.096875000000        -1.094233701075200E-095
   118.310625000000         2.860895233990512E-095
   118.524375000000         8.413024034940514E-095
   118.738125000000         1.514552497186121E-094
   118.951875000000         2.211828258859361E-094
   119.165625000000         2.779541301492306E-094
   119.379375000000         3.007584538535130E-094
   119.593125000000         2.647773299918659E-094
   119.806875000000         1.451919738910605E-094
   120.020625000000        -7.685630577846328E-095
   120.234375000000        -4.063766109416049E-094
   120.448125000000        -8.255248355503881E-094
   120.661875000000        -1.285025543538053E-093
   120.875625000000        -1.698316450567034E-093
   121.089375000000        -1.941338415421408E-093
   121.303125000000        -1.861164266162670E-093
   121.516875000000        -1.296313421476354E-093
   121.730625000000        -1.103793181217619E-094
   121.944375000000         1.761684739660384E-093
   122.158125000000         4.258654645305090E-093
   122.371875000000         7.137802319648233E-093
   122.585625000000         9.932270555848636E-093
   122.799375000000         1.193806384993076E-092
   123.013125000000         1.224992265307305E-092
   123.226875000000         9.864267675891868E-093
   123.440625000000         3.861430059875304E-093
   123.654375000000        -6.332701841261530E-093
   123.868125000000        -2.062412183589529E-092