  -1.60312500000000         0.000000000000000E+000
  -1.38937500000000         0.000000000000000E+000
  -1.17562500000000         0.000000000000000E+000
 -0.961875000000000         0.000000000000000E+000
 -0.748125000000000         0.000000000000000E+000
 -0.534375000000000         0.000000000000000E+000
 -0.320625000000000         0.000000000000000E+000
 -0.106875000000000         0.000000000000000E+000
  0.106875000000000         0.000000000000000E+000
  0.320625000000000         0.000000000000000E+000
  0.534375000000000         0.000000000000000E+000
  0.748125000000000         0.000000000000000E+000
  0.961875000000000         0.000000000000000E+000
   1.17562500000000         0.000000000000000E+000
   1.38937500000000         0.000000000000000E+000
   1.60312500000000         0.000000000000000E+000
   1.81687500000000         0.000000000000000E+000
   2.03062500000000         0.000000000000000E+000
   2.24437500000000         0.000000000000000E+000
   2.45812500000000         0.000000000000000E+000
   2.67187500000000         0.000000000000000E+000
   2.88562500000000         0.000000000000000E+000
   3.09937500000000         0.000000000000000E+000
   3.31312500000000         0.000000000000000E+000
   3.52687500000000         0.000000000000000E+000
   3.74062500000000         0.000000000000000E+000
   3.95437500000000         0.000000000000000E+000
   4.16812500000000         0.000000000000000E+000
   4.38187500000000         0.000000000000000E+000
   4.59562500000000         0.000000000000000E+000
   4.80937500000000         0.000000000000000E+000
   5.02312500000000         0.000000000000000E+000
   5.23687500000000         0.000000000000000E+000
   5.45062500000000         0.000000000000000E+000
   5.66437500000000         0.000000000000000E+000
   5.87812500000000         0.000000000000000E+000
   6.09187500000000         0.000000000000000E+000
   6.30562500000000         0.000000000000000E+000
   6.51937500000000         0.000000000000000E+000
   6.73312500000000         0.000000000000000E+000
   6.94687500000000         0.000000000000000E+000
   7.16062500000000         0.000000000000000E+000
   7.37437500000000         0.000000000000000E+000
   7.58812500000000         0.000000000000000E+000
   7.80187500000000         0.000000000000000E+000
   8.01562500000000         0.000000000000000E+000
   8.22937500000000         0.000000000000000E+000
   8.44312500000000         0.000000000000000E+000
   8.65687500000000         0.000000000000000E+000
   8.87062500000000         0.000000000000000E+000
   9.08437500000000         0.000000000000000E+000
   9.29812500000000         0.000000000000000E+000
   9.51187500000000         0.000000000000000E+000
   9.72562500000000         0.000000000000000E+000
   9.93937500000000         0.000000000000000E+000
   10.1531250000000         0.000000000000000E+000
   10.3668750000000         0.000000000000000E+000
   10.5806250000000         0.000000000000000E+000
   10.7943750000000        -4.586842419897050E-242
   11.0081250000000         4.063203858870642E-235
   11.2218750000000         7.187808215254024E-233
   11.4356250000000         2.758759037201580E-227
   11.6493750000000         6.708985626160288E-225
   11.8631250000000         5.037529243465866E-223
   12.0768750000000         2.939027684220926E-221
   12.2906250000000         1.271631191143850E-219
   12.5043750000000         3.859048724744157E-218
   12.7181250000000         8.217267826032896E-217
   12.9318750000000         1.192191171155140E-215
   13.1456250000000         9.267788624144568E-215
   13.3593750000000        -6.243820047527651E-214
   13.5731250000000        -3.705548388802631E-212
   13.7868750000000        -7.808665001302074E-211
   14.0006250000000        -1.179297688089858E-209
   14.2143750000000        -1.442965706178307E-208
   14.4281250000000        -1.499800310722608E-207
   14.6418750000000        -1.355633714888665E-206
   14.8556250000000        -1.078574120529849E-205
   15.0693750000000        -7.587575715420194E-205
   15.2831250000000        -4.704375105282804E-204
   15.4968750000000        -2.532430956632556E-203
   15.7106250000000        -1.135774557026674E-202
   15.9243750000000        -3.719256632728635E-202
   16.1381250000000        -2.939364752107447E-202
   16.3518750000000         8.047660372080802E-201
   16.5656250000000         8.698275332500557E-200
   16.7793750000000         6.159136752070564E-199
   16.9931250000000         3.540793769352525E-198
   17.2068750000000         1.745801925022537E-197
   17.4206250000000         7.476345035358217E-197
   17.6343750000000         2.740776779425262E-196
   17.8481250000000         8.093348667042149E-196
   18.0618750000000         1.495284360216810E-195
   18.2756250000000        -2.095119275670261E-195
   18.4893750000000        -3.867478375184523E-194
   18.7031250000000        -2.434317020395697E-193
   18.9168750000000        -1.132734110809366E-192
   19.1306250000000        -4.309580698904017E-192
   19.3443750000000        -1.342206698884813E-191
   19.5581250000000        -3.109705195191679E-191
   19.7718750000000        -2.653317162920868E-191
   19.9856250000000         2.343972166018021E-190
   20.1993750000000         1.871009670225796E-189
   20.4131250000000         9.135542935676685E-189
   20.6268750000000         3.539797858092016E-188
   20.8406250000000         1.142182227109632E-187
   21.0543750000000         2.996865339232491E-187
   21.2681250000000         5.466956190481676E-187
   21.4818750000000        -1.047554582684231E-188
   21.6956250000000        -6.082669492431974E-186
   21.9093750000000        -3.659603745823588E-185
   22.1231250000000        -1.546992140133100E-184
   22.3368750000000        -5.390243545883653E-184
   22.5506250000000        -1.603046883383877E-183
   22.7643750000000        -4.004371978646401E-183
   22.9781250000000        -7.618029789556203E-183
   23.1918750000000        -5.835781705305943E-183
   23.4056250000000         3.642143051792272E-182
   23.6193750000000         2.522382837299190E-181
   23.8331250000000         1.059041370571953E-180
   24.0468750000000         3.571429708995352E-180
   24.2606250000000         1.026169639227713E-179
   24.4743750000000         2.513388224657972E-179
   24.6881250000000         4.955790913477650E-179
   24.9018750000000         5.999148607898675E-179
   25.1156250000000        -7.240270475959937E-179
   25.3293750000000        -8.175618624636052E-178
   25.5431250000000        -3.569037764300379E-177
   25.7568750000000        -1.182198363375165E-176
   25.9706250000000        -3.283886504537868E-176
   26.1843750000000        -7.765516140387907E-176
   26.3981250000000        -1.501508552032736E-175
   26.6118750000000        -1.962331871957438E-175
   26.8256250000000         6.059554143239785E-176
   27.0393750000000         1.551258835989207E-174
   27.2531250000000         6.800865484131766E-174
   27.4668750000000         2.151649070305706E-173
   27.6806250000000         5.601102099450750E-173
   27.8943750000000         1.220637097730677E-172
   28.1081250000000         2.107111496399378E-172
   28.3218750000000         2.132379571641647E-172
   28.5356250000000        -2.952035752012161E-172
   28.7493750000000        -2.543731287978967E-171
   28.9631250000000        -9.453682248010230E-171
   29.1768750000000        -2.673844873594544E-170
   29.3906250000000        -6.274537961951027E-170
   29.6043750000000        -1.219242164172128E-169
   29.8181250000000        -1.784592297951671E-169
   30.0318750000000        -1.011470799245098E-169
   30.2456250000000         5.199999207689424E-169
   30.4593750000000         2.701084676699614E-168
   30.6731250000000         8.524810576475850E-168
   30.8868750000000         2.138029747418074E-167
   31.1006250000000         4.468075015591856E-167
   31.3143750000000         7.561804807311866E-167
   31.5281250000000         8.660781683967323E-167
   31.7418750000000        -1.815993865436782E-167
   31.9556250000000        -4.859729816845288E-166
   32.1693750000000        -1.838783385869156E-165
   32.3831250000000        -4.969837839467803E-165
   32.5968750000000        -1.096046202841681E-164
   32.8106250000000        -1.995213091319652E-164
   33.0243750000000        -2.767711808334070E-164
   33.2381250000000        -1.729020872281584E-164
   33.4518750000000         5.630884154898487E-164
   33.6656250000000         2.901014599515527E-163
   33.8793750000000         8.543790457223353E-163
   34.0931250000000         1.972959899055218E-162
   34.3068750000000         3.761539645663758E-162
   34.5206250000000         5.717484228757625E-162
   34.7343750000000         5.519969855260706E-162
   34.9481250000000        -3.260686654003933E-162
   35.1618750000000        -3.463050382419970E-161
   35.3756250000000        -1.135491515019681E-160
   35.5893750000000        -2.743893677788718E-160
   35.8031250000000        -5.423158048236494E-160
   36.0168750000000        -8.732766779301500E-160
   36.2306250000000        -1.013622382205583E-159
   36.4443750000000        -2.348270396875838E-160
   36.6581250000000         3.065888061109580E-159
   36.8718750000000         1.176621509951221E-158
   37.0856250000000         2.992991554965014E-158
   37.2993750000000         6.102983549511888E-158
   37.5131250000000         1.021640761952222E-157
   37.7268750000000         1.306794138200580E-157
   37.9406250000000         7.931126342636308E-158
   38.1543750000000        -2.006094630690625E-157
   38.3681250000000        -9.757253679834440E-157
   38.5818750000000        -2.624680017056815E-156
   38.7956250000000        -5.490417166871943E-156
   39.0093750000000        -9.406417247696889E-156
   39.2231250000000        -1.262507983533438E-155
   39.4368750000000        -9.877348890616500E-156
   39.6506250000000         1.040837669542424E-155
   39.8643750000000         6.872102712924811E-155
   40.0781250000000         1.937027013180620E-154
   40.2918750000000         4.108499957281888E-154
   40.5056250000000         7.079944671736318E-154
   40.7193750000000         9.599261380129069E-154
   40.9331250000000         7.966906499817538E-154
   41.1468750000000        -5.765871107612596E-154
   41.3606250000000        -4.531997358733599E-153
   41.5743750000000        -1.292137061964524E-152
   41.7881250000000        -2.725984954030852E-152
   42.0018750000000        -4.639557042987747E-152
   42.2156250000000        -6.162097998693455E-152
   42.4293750000000        -4.843003366986085E-152
   42.6431250000000         4.426811909769917E-152
   42.8568750000000         3.022956892753579E-151
   43.0706250000000         8.376120347556606E-151
   43.2843750000000         1.734189092812626E-150
   43.4981250000000         2.900811447074722E-150
   43.7118750000000         3.769744084445039E-150
   43.9256250000000         2.796322180761994E-150
   44.1393750000000        -3.191109454395512E-150
   44.3531250000000        -1.948986076798118E-149
   44.5668750000000        -5.305993306131676E-149
   44.7806250000000        -1.094479589047441E-148
   44.9943750000000        -1.843462469032991E-148
   45.2081250000000        -2.461365784230690E-148
   45.4218750000000        -2.063101396678368E-148
   45.6356250000000         1.208453276316900E-148
   45.8493750000000         1.055240488356030E-147
   46.0631250000000         3.044136313849315E-147
   46.2768750000000         6.525467990993185E-147
   46.4906250000000         1.151161855506036E-146
   46.7043750000000         1.667964429280981E-146
   46.9181250000000         1.774287876622128E-146
   47.1318750000000         5.037142415797934E-147
   47.3456250000000        -3.921208331231472E-146
   47.5593750000000        -1.422661293691691E-145
   47.7731250000000        -3.369949650021692E-145
   47.9868750000000        -6.454356354132695E-145
   48.2006250000000        -1.038326983333373E-144
   48.4143750000000        -1.356168078007564E-144
   48.6281250000000        -1.180143782902401E-144
   48.8418750000000         3.412446280441045E-145
   49.0556250000000         4.657465665862471E-144
   49.2693750000000         1.382627494780322E-143
   49.4831250000000         3.006216471314931E-143
   49.6968750000000         5.429030058227131E-143
   49.9106250000000         8.293111264121735E-143
   50.1243750000000         1.020350250375478E-142
   50.3381250000000         7.824996432571716E-143
   50.5518750000000        -5.247147297455898E-143
   50.7656250000000        -3.941458366123491E-142
   50.9793750000000        -1.087348831073063E-141
   51.1931250000000        -2.272271695511544E-141
   51.4068750000000        -3.983965915242830E-141
   51.6206250000000        -5.932712109115326E-141
   51.8343750000000        -7.120628265495407E-141
   52.0481250000000        -5.275533673975596E-141
   52.2618750000000         3.820488630042090E-141
   52.4756250000000         2.681852794891176E-140
   52.6893750000000         7.243630257336441E-140
   52.9031250000000         1.489895216953372E-139
   53.1168750000000         2.578555029873320E-139
   53.3306250000000         3.802991020533021E-139
   53.5443750000000         4.552049419300693E-139
   53.7581250000000         3.472344086523075E-139
   53.9718750000000        -1.894255528670733E-139
   54.1856250000000        -1.534837523201216E-138
   54.3993750000000        -4.177588433648556E-138
   54.6131250000000        -8.573277593037022E-138
   54.8268750000000        -1.478666071460049E-137
   55.0406250000000        -2.179170122209703E-137
   55.2543750000000        -2.631877307510676E-137
   55.4681250000000        -2.124900059662210E-137
   55.6818750000000         6.154019778980342E-138
   55.8956250000000         7.531123315290212E-137
   56.1093750000000         2.108824893013100E-136
   56.3231250000000         4.356758269154355E-136
   56.5368750000000         7.533174163217906E-136
   56.7506250000000         1.115167998669589E-135
   56.9643750000000         1.367003391140414E-135
   57.1781250000000         1.176355636677215E-135
   57.3918750000000        -4.542287079495071E-137
   57.6056250000000        -3.187354278359529E-135
   57.8193750000000        -9.370495404150908E-135
   58.0331250000000        -1.963487228936741E-134
   58.2468750000000        -3.419351298344573E-134
   58.4606250000000        -5.103583309895101E-134
   58.6743750000000        -6.371610566715645E-134
   58.8881250000000        -5.839134087984288E-134
   59.1018750000000        -1.070296733320119E-134
   59.3156250000000         1.159334827423016E-133
   59.5293750000000         3.675679872775225E-133
   59.7431250000000         7.874764740945647E-133
   59.9568750000000         1.387489972891552E-132
   60.1706250000000         2.095088717149015E-132
   60.3843750000000         2.670729457773819E-132
   60.5981250000000         2.598448703801332E-132
   60.8118750000000         9.718513083291986E-133
   61.0256250000000        -3.568520006222507E-132
   61.2393750000000        -1.273941944403782E-131
   61.4531250000000        -2.818928759056261E-131
   61.6668750000000        -5.050951511524634E-131
   61.8806250000000        -7.742664180856404E-131
   62.0943750000000        -1.010017029818890E-130
   62.3081250000000        -1.039492986588968E-130
   62.5218750000000        -5.580604347474555E-131
   62.7356250000000         8.925012754542474E-131
   62.9493750000000         3.895476979745759E-130
   63.1631250000000         9.027009944759974E-130
   63.3768750000000         1.654867105971415E-129
   63.5906250000000         2.584747248420117E-129
   63.8043750000000         3.457184867039922E-129
   64.0181250000000         3.749797916725873E-129
   64.2318750000000         2.534170561694213E-129
   64.4456250000000        -1.595998202763402E-129
   64.6593750000000        -1.045258276730015E-128
   64.8731250000000        -2.588485847828016E-128
   65.0868750000000        -4.891401208136611E-128
   65.3006250000000        -7.815419061266305E-128
   65.5143750000000        -1.073758215377650E-127
   65.7281250000000        -1.222995479311419E-127
   65.9418750000000        -9.719182046552928E-128
   66.1556250000000         7.353444996359241E-129
   66.3693750000000         2.428959987158183E-127
   66.5831250000000         6.639386685592084E-127
   66.7968750000000         1.305801566194537E-126
   67.0106250000000         2.143982605864813E-126
   67.2243750000000         3.031187550833011E-126
   67.4381250000000         3.613935196440304E-126
   67.6518750000000         3.242410994187909E-126
   67.8656250000000         9.068952999018768E-127
   68.0793750000000        -4.737948063896124E-126
   68.2931250000000        -1.516622921737031E-125
   68.5068750000000        -3.146657150221989E-125
   68.7206250000000        -5.338603351640300E-125
   68.9343750000000        -7.783733754790147E-125
   69.1481250000000        -9.690261534716937E-125
   69.3618750000000        -9.562934030968530E-125
   69.5756250000000        -5.035004394251490E-125
   69.7893750000000         7.112557674129840E-125
   70.0031250000000         3.053622934180077E-124
   70.2168750000000         6.824425958599556E-124
   70.4306250000000         1.205412889404298E-123
   70.6443750000000         1.817826460648180E-123
   70.8581250000000         2.359783957878026E-123
   71.0718750000000         2.518224776826026E-123
   71.2856250000000         1.786095342531480E-123
   71.4993750000000        -5.424465073039367E-124
   71.7131250000000        -5.298677703710654E-123
   71.9268750000000        -1.323191247717236E-122
   72.1406250000000        -2.460654740901678E-122
   72.3543750000000        -3.855570391582026E-122
   72.5681250000000        -5.219168221451200E-122
   72.7818750000000        -5.957300956280638E-122
   72.9956250000000        -5.079325708447265E-122
   73.2093750000000        -1.169081379105376E-122
   73.4231250000000         7.504036224645211E-122
   73.6368750000000         2.262944990005577E-121
   73.8506250000000         4.513815478146513E-121
   74.0643750000000         7.402726311176385E-121
   74.2781250000000         1.047093419705378E-120
   74.4918750000000         1.270376155667016E-120
   74.7056250000000         1.234394220250497E-120
   74.9193750000000         6.799090174341517E-121
   75.1331250000000        -7.224788715192482E-121
   75.3468750000000        -3.318459995452690E-120
   75.5606250000000        -7.355057386715574E-120
   75.7743750000000        -1.278645764321125E-119
   75.9881250000000        -1.899415998758151E-119
   76.2018750000000        -2.444047098627499E-119
   76.4156250000000        -2.631774359698853E-119
   76.6293750000000        -2.031832982110251E-119
   76.8431250000000        -7.275995483744771E-121
   77.0568750000000         3.887929765214255E-119
   77.2706250000000         1.040041996312949E-118
   77.4843750000000         1.963409328140622E-118
   77.6981250000000         3.094688245157135E-118
   77.9118750000000         4.232963677524796E-118
   78.1256250000000         4.980251804174842E-118
   78.3393750000000         4.692883582015896E-118
   78.5531250000000         2.472430582705389E-118
   78.7668750000000        -2.763997178555944E-118
   78.9806250000000        -1.208480324488327E-117
   79.1943750000000        -2.616560660195098E-117
   79.4081250000000        -4.469504107300296E-117
   79.6218750000000        -6.556680426355503E-117
   79.8356250000000        -8.393214671444303E-117
   80.0493750000000        -9.129798582292498E-117
   80.2631250000000        -7.500388387927195E-117
   80.4768750000000        -1.858127169960162E-117
   80.6906250000000         9.634357321407620E-117
   80.9043750000000         2.858535494987021E-116
   81.1181250000000         5.565699263486217E-116
   81.3318750000000         8.951548345785292E-116
   81.5456250000000         1.254844871695455E-115
   81.7593750000000         1.540565136009659E-115
   81.9731250000000         1.595894103534035E-115
   82.1868750000000         1.197340553702068E-115
   82.4006250000000         6.382188549351802E-117
   82.6143750000000        -2.108575153041489E-115
   82.8281250000000        -5.575291732526110E-115
   83.0418750000000        -1.042514336828083E-114
   83.2556250000000        -1.640953154328913E-114
   83.4693750000000        -2.272302107795147E-114
   83.6831250000000        -2.775605169658703E-114
   83.8968750000000        -2.886570004717782E-114
   84.1106250000000        -2.224441446226370E-114
   84.3243750000000        -3.008176346948859E-115
   84.5381250000000         3.432981947560481E-114
   84.7518750000000         9.479534391768738E-114
   84.9656250000000         1.810782520389627E-113
   85.1793750000000         2.906568306970676E-113
   85.3931250000000         4.118465697136980E-113
   85.6068750000000         5.189442159340911E-113
   85.8206250000000         5.670684099503341E-113
   86.0343750000000         4.879634169602993E-113
   86.2481250000000         1.889564765867724E-113
   86.4618750000000        -4.415967965534848E-113
   86.6756250000000        -1.517837099198249E-112
   86.8893750000000        -3.123427515024019E-112
   87.1031250000000        -5.256573778829752E-112
   87.3168750000000        -7.749310550364877E-112
   87.5306250000000        -1.016217051283994E-111
   87.7443750000000        -1.166470640770651E-111
   87.9581250000000        -1.092750394973288E-111
   88.1718750000000        -6.072854742830101E-112
   88.3856250000000         5.242032253876564E-112
   88.5993750000000         2.550775821134338E-111
   88.8131250000000         5.669012973425900E-111
   89.0268750000000         9.908387737149895E-111
   89.2406250000000         1.496212190152583E-110
   89.4543750000000         1.996810437792777E-110
   89.6681250000000         2.326593222380456E-110
   89.8818750000000         2.218926965587274E-110
   90.0956250000000         1.299711377149458E-110
   90.3093750000000        -8.901506883064100E-111
   90.5231250000000        -4.822884576370919E-110
   90.7368750000000        -1.084045758612724E-109
   90.9506250000000        -1.892111067937760E-109
   91.1643750000000        -2.835040485883766E-109
   91.3781250000000        -3.731850449418254E-109
   91.5918750000000        -4.251007196461574E-109
   91.8056250000000        -3.881615195684742E-109
   92.0193750000000        -1.937412215728768E-109
   92.2331250000000         2.378128575655961E-109
   92.4468750000000         9.812129159548772E-109
   92.6606250000000         2.077595596045195E-108
   92.8743750000000         3.491323268590919E-108
   93.0881250000000         5.053426391465078E-108
   93.3018750000000         6.398314458380070E-108
   93.5156250000000         6.908367157905354E-108
   93.7293750000000         5.691165715851763E-108
   93.9431250000000         1.624990430427790E-108
   94.1568750000000        -6.483121980799222E-108
   94.3706250000000        -1.958067803264631E-107
   94.5843750000000        -3.785979878558785E-107
   94.7981250000000        -6.005177856729336E-107
   95.0118750000000        -8.258407390370150E-107
   95.2256250000000        -9.874993424125065E-107
   95.4393750000000        -9.816250335640575E-107
   95.6531250000000        -6.690194230312288E-107
   95.8668750000000         1.111477448369922E-107
   96.0806250000000         1.509571712806166E-106
   96.2943750000000         3.611968541822110E-106
   96.5081250000000         6.359218830743348E-106
   96.7218750000000         9.446732136701417E-106
   96.9356250000000         1.221710366836137E-105
   97.1493750000000         1.357354402184307E-105
   97.3631250000000         1.195725758071365E-105
   97.5768750000000         5.446918680297452E-106
   97.7906250000000        -7.952510735661787E-106
   98.0043750000000        -2.976857101499328E-105
   98.2181250000000        -6.023127942486465E-105
   98.4318750000000        -9.717637790076361E-105
   98.6456250000000        -1.348014436596342E-104
   98.8593750000000        -1.625317539224084E-104
   99.0731250000000        -1.644193371287598E-104
   99.2868750000000        -1.196669894907860E-104
   99.5006250000000        -4.990282125995818E-106
   99.7143750000000         2.004672724418785E-104
   99.9281250000000         5.071587244628999E-104
   100.141875000000         9.041061277530569E-104
   100.355625000000         1.345731424101152E-103
   100.569375000000         1.738769922428031E-103
   100.783125000000         1.933137463180278E-103
   100.996875000000         1.722368759951910E-103
   101.210625000000         8.606545108427439E-104
   101.424375000000        -8.960798606411575E-104
   101.638125000000        -3.719042762722259E-103
   101.851875000000        -7.603599303804108E-103
   102.065625000000        -1.224047696174058E-102
   102.279375000000        -1.687897774234061E-102
   102.493125000000        -2.021528433619510E-102
   102.706875000000        -2.035581656874240E-102
   102.920625000000        -1.492040894518266E-102
   103.134375000000        -1.357152854412438E-103
   103.348125000000         2.246745487432528E-102
   103.561875000000         5.737143196256973E-102
   103.775625000000         1.016853387251890E-101
   103.989375000000         1.499371788959047E-101
   104.203125000000         1.916590763183477E-101
   104.416875000000         2.107332977486684E-101
   104.630625000000         1.858383610857962E-101
   104.844375000000         9.264312176388597E-102
   105.058125000000        -9.163520177811701E-102
   105.271875000000        -3.809175311479280E-101
   105.485625000000        -7.702897675563467E-101
   105.699375000000        -1.224261860163467E-100
   105.913125000000        -1.665247661127139E-100
   106.126875000000        -1.965554866521021E-100
   106.340625000000        -1.947461220451350E-100
   106.554375000000        -1.396864960019438E-100
   106.768125000000        -9.603264797890684E-102
   106.981875000000         2.120472410706677E-100
   107.195625000000         5.286109668940202E-100
   107.409375000000         9.204371702199724E-100
   107.623125000000         1.334648418890542E-099
   107.836875000000         1.676926826663971E-099
   108.050625000000         1.808847881423153E-099
   108.264375000000         1.555147059034130E-099
   108.478125000000         7.255482151283172E-100
   108.691875000000        -8.450475586042512E-100
   108.905625000000        -3.236596865095913E-099
   109.119375000000        -6.367066783734562E-099
   109.333125000000        -9.907939000126864E-099
   109.546875000000        -1.320929720892678E-098
   109.760625000000        -1.526033850088194E-098
   109.974375000000        -1.471848738833660E-098
   110.188125000000        -1.004361293990509E-098
   110.401875000000         2.302765454646456E-100
   110.615625000000         1.706870754591243E-098
   110.829375000000         4.036798239308537E-098
   111.043125000000         6.830091495278948E-098
   111.256875000000         9.669209933630649E-098
   111.470625000000         1.186025048354571E-097
   111.684375000000         1.243619158353622E-097
   111.898125000000         1.023214443964667E-097
   112.111875000000         4.058276893145355E-098
   112.325625000000        -7.013060237751420E-098
   112.539375000000        -2.324851075163669E-097
   112.753125000000        -4.377583190060749E-097
   112.966875000000        -6.609988332956883E-097
   113.180625000000        -8.573174902663286E-097
   113.394375000000        -9.609445416310800E-097
   113.608125000000        -8.889820713282299E-097
   113.821875000000        -5.517638360107084E-097
   114.035625000000         1.287784307410400E-097
   114.249375000000         1.192520867059065E-096
   114.463125000000         2.608046838233508E-096
   114.676875000000         4.237435260886357E-096
   114.890625000000         5.806499487211696E-096
   115.104375000000         6.891190130059687E-096
   115.318125000000         6.933209496850082E-096
   115.531875000000         5.298330081337276E-096
   115.745625000000         1.388236492533233E-096
   115.959375000000        -5.190247401696472E-096
   116.173125000000        -1.440670158027787E-095
   116.386875000000        -2.556461550735121E-095
   116.600625000000        -3.708078494527518E-095
   116.814375000000        -4.635395163632236E-095
   117.028125000000        -4.980721460162683E-095
   117.241875000000        -4.319494302430226E-095
   117.455625000000        -2.225226161189611E-095
   117.669375000000         1.627407977725407E-095
   117.883125000000         7.324608791942922E-095
   118.096875000000         1.455432510311936E-094
   118.310625000000         2.245272926006859E-094
   118.524375000000         2.949701390671505E-094
   118.738125000000         3.349714690657804E-094
   118.951875000000         3.174502962425137E-094
   119.165625000000         2.137431939403597E-094
   119.379375000000        -3.694048944431630E-097
   119.593125000000        -3.362960815303252E-094
   119.806875000000        -7.826312270152224E-094
   120.020625000000        -1.295013495038800E-093
   120.234375000000        -1.788217430464279E-093
   120.448125000000        -2.133637302717320E-093
   120.661875000000        -2.165784526407035E-093
   120.875625000000        -1.701264896086344E-093
   121.089375000000        -5.726248335452260E-094
   121.303125000000         1.322792311989556E-093
   121.516875000000         3.962361790338546E-093
   121.730625000000         7.134097656254124E-093
   121.944375000000         1.038229118849110E-092
   122.158125000000         1.298116991695645E-092
   122.371875000000         1.395822352718994E-092
   122.585625000000         1.218884768872025E-092
   122.799375000000         6.578808864094926E-093
   123.013125000000        -3.660831758669940E-093
   123.226875000000        -1.866108615647567E-092
   123.440625000000        -3.750581551385475E-092
   123.654375000000        -5.787787478917999E-092
   123.868125000000        -7.584301404949851E-092