  -1.60312500000000         0.000000000000000E+000
  -1.38937500000000         0.000000000000000E+000
  -1.17562500000000         0.000000000000000E+000
 -0.961875000000000         0.000000000000000E+000
 -0.748125000000000         0.000000000000000E+000
 -0.534375000000000         0.000000000000000E+000
 -0.320625000000000         0.000000000000000E+000
 -0.106875000000000         0.000000000000000E+000
  0.106875000000000         0.000000000000000E+000
  0.320625000000000         0.000000000000000E+000
  0.534375000000000         0.000000000000000E+000
  0.748125000000000         0.000000000000000E+000
  0.961875000000000         0.000000000000000E+000
   1.17562500000000         0.000000000000000E+000
   1.38937500000000         0.000000000000000E+000
   1.60312500000000         0.000000000000000E+000
   1.81687500000000         0.000000000000000E+000
   2.03062500000000         0.000000000000000E+000
   2.24437500000000         0.000000000000000E+000
   2.45812500000000         0.000000000000000E+000
   2.67187500000000         0.000000000000000E+000
   2.88562500000000         0.000000000000000E+000
   3.09937500000000         0.000000000000000E+000
   3.31312500000000         0.000000000000000E+000
   3.52687500000000         0.000000000000000E+000
   3.74062500000000         0.000000000000000E+000
   3.95437500000000         0.000000000000000E+000
   4.16812500000000         0.000000000000000E+000
   4.38187500000000         0.000000000000000E+000
   4.59562500000000         0.000000000000000E+000
   4.80937500000000         0.000000000000000E+000
   5.02312500000000         0.000000000000000E+000
   5.23687500000000         0.000000000000000E+000
   5.45062500000000         0.000000000000000E+000
   5.66437500000000         0.000000000000000E+000
   5.87812500000000         0.000000000000000E+000
   6.09187500000000         0.000000000000000E+000
   6.30562500000000         0.000000000000000E+000
   6.51937500000000         0.000000000000000E+000
   6.73312500000000         0.000000000000000E+000
   6.94687500000000         0.000000000000000E+000
   7.16062500000000         0.000000000000000E+000
   7.37437500000000         0.000000000000000E+000
   7.58812500000000         0.000000000000000E+000
   7.80187500000000         0.000000000000000E+000
   8.01562500000000         0.000000000000000E+000
   8.22937500000000         0.000000000000000E+000
   8.44312500000000         0.000000000000000E+000
   8.65687500000000         0.000000000000000E+000
   8.87062500000000         0.000000000000000E+000
   9.08437500000000         0.000000000000000E+000
   9.29812500000000         0.000000000000000E+000
   9.51187500000000         0.000000000000000E+000
   9.72562500000000         0.000000000000000E+000
   9.93937500000000         0.000000000000000E+000
   10.1531250000000         0.000000000000000E+000
   10.3668750000000         0.000000000000000E+000
   10.5806250000000         0.000000000000000E+000
   10.7943750000000         0.000000000000000E+000
   11.0081250000000         0.000000000000000E+000
   11.2218750000000         0.000000000000000E+000
   11.4356250000000         0.000000000000000E+000
   11.6493750000000        -3.482849603672777E-256
   11.8631250000000         1.645531298243973E-249
   12.0768750000000         1.301618711471593E-243
   12.2906250000000        -5.819497377299377E-240
   12.5043750000000        -1.691045304054586E-237
   12.7181250000000        -1.720895746631396E-235
   12.9318750000000        -1.087527521758114E-233
   13.1456250000000        -4.894000544083661E-232
   13.3593750000000        -1.664593057688147E-230
   13.5731250000000        -4.454874939389055E-229
   13.7868750000000        -9.678650162217116E-228
   14.0006250000000        -1.758985896401485E-226
   14.2143750000000        -2.546343853867025E-225
   14.4281250000000        -2.650471287024845E-224
   14.6418750000000        -1.529941385174068E-223
   14.8556250000000         2.864023479114721E-222
   15.0693750000000         1.564804584300713E-220
   15.2831250000000         3.062609703772556E-219
   15.4968750000000         1.058255635490330E-218
   15.7106250000000        -7.215574303902457E-217
   15.9243750000000        -1.258197172710491E-215
   16.1381250000000         6.215640180167031E-215
   16.3518750000000         5.098307521325352E-213
   16.5656250000000         5.431471405876115E-212
   16.7793750000000        -1.350123047965250E-210
   16.9931250000000        -6.887812629508613E-209
   17.2068750000000        -1.681925258064046E-207
   17.4206250000000        -3.003736873695873E-206
   17.6343750000000        -4.370247566616411E-205
   17.8481250000000        -5.437930440613527E-204
   18.0618750000000        -5.948840388301073E-203
   18.2756250000000        -5.824227926412892E-202
   18.4893750000000        -5.167069402794487E-201
   18.7031250000000        -4.191727438318970E-200
   18.9168750000000        -3.130746303932006E-199
   19.1306250000000        -2.164002595265496E-198
   19.3443750000000        -1.389669688999021E-197
   19.5581250000000        -8.314273367960002E-197
   19.7718750000000        -4.642747123067516E-196
   19.9856250000000        -2.421602946806006E-195
   20.1993750000000        -1.179388402414966E-194
   20.4131250000000        -5.354034115596905E-194
   20.6268750000000        -2.257341894709679E-193
   20.8406250000000        -8.781964557616760E-193
   21.0543750000000        -3.117404550020007E-192
   21.2681250000000        -9.895977199689184E-192
   21.4818750000000        -2.699171720074684E-191
   21.6956250000000        -5.735391644241863E-191
   21.9093750000000        -6.271348474732689E-191
   22.1231250000000         1.568805736674890E-190
   22.3368750000000         9.881055719034522E-190
   22.5506250000000         4.802261988040439E-190
   22.7643750000000        -2.696176506424330E-188
   22.9781250000000        -2.541905591533866E-187
   23.1918750000000        -1.596657424256303E-186
   23.4056250000000        -8.237881153304383E-186
   23.6193750000000        -3.730868527554305E-185
   23.8331250000000        -1.527885284610891E-184
   24.0468750000000        -5.743522658896861E-184
   24.2606250000000        -1.996353544557730E-183
   24.4743750000000        -6.428666863330547E-183
   24.6881250000000        -1.911953969598306E-182
   24.9018750000000        -5.199558690928471E-182
   25.1156250000000        -1.263766350631727E-181
   25.3293750000000        -2.596863795049450E-181
   25.5431250000000        -3.742753474791410E-181
   25.7568750000000         7.201054896112148E-182
   25.9706250000000         3.282255562156698E-180
   26.1843750000000         1.639996068557366E-179
   26.3981250000000         5.902776382597539E-179
   26.6118750000000         1.761559653186311E-178
   26.8256250000000         4.450982823168329E-178
   27.0393750000000         9.057660692820361E-178
   27.2531250000000         1.126915083410609E-177
   27.4668750000000        -1.570663431265222E-177
   27.6806250000000        -1.822314233688672E-176
   27.8943750000000        -8.707594711638841E-176
   28.1081250000000        -3.272865617823362E-175
   28.3218750000000        -1.082066027094844E-174
   28.5356250000000        -3.277901218100192E-174
   28.7493750000000        -9.274149910228564E-174
   28.9631250000000        -2.474833647334099E-173
   29.1768750000000        -6.257245465059655E-173
   29.3906250000000        -1.499860542473017E-172
   29.6043750000000        -3.396692884789920E-172
   29.8181250000000        -7.201552709081587E-172
   30.0318750000000        -1.401493237336429E-171
   30.2456250000000        -2.392397315593138E-171
   30.4593750000000        -3.123988773635755E-171
   30.6731250000000        -9.792978787726551E-172
   30.8868750000000         1.270564175819144E-170
   31.1006250000000         6.254708112734936E-170
   31.3143750000000         2.117233518107584E-169
   31.5281250000000         6.095308972027616E-169
   31.7418750000000         1.582551777442883E-168
   31.9556250000000         3.789388265954892E-168
   32.1693750000000         8.435752050071447E-168
   32.3831250000000         1.745067640674173E-167
   32.5968750000000         3.325253017781097E-167
   32.8106250000000         5.709647356204826E-167
   33.0243750000000         8.370921730581044E-167
   33.2381250000000         8.769373608443499E-167
   33.4518750000000        -5.903438437523944E-168
   33.6656250000000        -3.770355850391018E-166
   33.8793750000000        -1.399585834323501E-165
   34.0931250000000        -3.751697030989185E-165
   34.3068750000000        -8.475823208883051E-165
   34.5206250000000        -1.677926878295876E-164
   34.7343750000000        -2.910414409929730E-164
   34.9481250000000        -4.258904969741927E-164
   35.1618750000000        -4.559353965373300E-164
   35.3756250000000        -7.882579852698696E-165
   35.5893750000000         1.335387628068137E-163
   35.8031250000000         4.878818413392032E-163
   36.0168750000000         1.205898844091115E-162
   36.2306250000000         2.415583253324541E-162
   36.4443750000000         4.018978178664508E-162
   36.6581250000000         5.228354289895802E-162
   36.8718750000000         3.710812358442848E-162
   37.0856250000000        -5.668358794155599E-162
   37.2993750000000        -3.206546045618791E-161
   37.5131250000000        -8.830682126240958E-161
   37.7268750000000        -1.852850080862427E-160
   37.9406250000000        -3.139999753987441E-160
   38.1543750000000        -4.041024725573556E-160
   38.3681250000000        -2.462007927983415E-160
   38.5818750000000         6.257710697179837E-160
   38.7956250000000         3.058833871267464E-159
   39.0093750000000         8.283024558698222E-159
   39.2231250000000         1.746402697944991E-158
   39.4368750000000         3.013439881248435E-158
   39.6506250000000         4.034715382331314E-158
   39.8643750000000         2.895366270279049E-158
   40.0781250000000        -4.937832627159332E-158
   40.2918750000000        -2.834283989746968E-157
   40.5056250000000        -8.184617643352881E-157
   40.7193750000000        -1.838662346708012E-156
   40.9331250000000        -3.457166130009118E-156
   41.1468750000000        -5.392540171748976E-156
   41.3606250000000        -6.231063369285998E-156
   41.5743750000000        -2.011368275681961E-156
   41.7881250000000         1.606290417159297E-155
   42.0018750000000         6.450687554521472E-155
   42.2156250000000         1.693682267295446E-154
   42.4293750000000         3.621561475913636E-154
   42.6431250000000         6.591357422823049E-154
   42.8568750000000         1.003958214298872E-153
   43.0706250000000         1.142704820577832E-153
   43.2843750000000         3.958080973635998E-154
   43.4981250000000        -2.686265689701495E-153
   43.7118750000000        -1.070446079441576E-152
   43.9256250000000        -2.751632561065603E-152
   44.1393750000000        -5.728033457287757E-152
   44.3531250000000        -1.008770758751428E-151
   44.5668750000000        -1.471547122461004E-151
   44.7806250000000        -1.557921294430601E-151
   44.9943750000000        -2.975875852527169E-152
   45.2081250000000         4.185122333722762E-151
   45.4218750000000         1.486841675546945E-150
   45.6356250000000         3.535515804139560E-150
   45.8493750000000         6.764741486314887E-150
   46.0631250000000         1.064406874227950E-149
   46.2768750000000         1.278487519086349E-149
   46.4906250000000         7.152682156920072E-150
   46.7043750000000        -1.801553642259263E-149
   46.9181250000000        -8.103812891232572E-149
   47.1318750000000        -2.024845867884169E-148
   47.3456250000000        -3.882114910193283E-148
   47.5593750000000        -5.880115853317417E-148
   47.7731250000000        -6.166346097511108E-148
   47.9868750000000        -3.309819526752137E-149
   48.2006250000000         1.990457473585578E-147
   48.4143750000000         6.693242529922666E-147
   48.6281250000000         1.536143616238795E-146
   48.8418750000000         2.803494692874521E-146
   49.0556250000000         4.044406288480374E-146
   49.2693750000000         3.819532947866199E-146
   49.4831250000000        -1.224308154072453E-146
   49.6968750000000        -1.740140001336487E-145
   49.9106250000000        -5.446217087638350E-145
   50.1243750000000        -1.237128750811958E-144
   50.3381250000000        -2.302765799118344E-144
   50.5518750000000        -3.538057530122473E-144
   50.7656250000000        -4.103283309957996E-144
   50.9793750000000        -1.895304733703598E-144
   51.1931250000000         7.279184634561020E-144
   51.4068750000000         3.040378347890274E-143
   51.6206250000000         7.692131049104643E-143
   51.8343750000000         1.554807786927384E-142
   52.0481250000000         2.644965165817315E-142
   52.2618750000000         3.718772286323919E-142
   52.4756250000000         3.790670467943213E-142
   52.6893750000000         6.797577801191939E-143
   52.9031250000000        -9.591799053205035E-142
   53.1168750000000        -3.311361180096923E-141
   53.3306250000000        -7.728868693512195E-141
   53.5443750000000        -1.473848244281547E-140
   53.7581250000000        -2.380504382092656E-140
   53.9718750000000        -3.168293172099642E-140
   54.1856250000000        -2.973497882670325E-140
   54.3993750000000        -3.496502392888903E-142
   54.6131250000000         8.647719034638267E-140
   54.8268750000000         2.734852964081463E-139
   55.0406250000000         6.074912786298771E-139
   55.2543750000000         1.111749685351904E-138
   55.4681250000000         1.725403314015102E-138
   55.6818750000000         2.195294263987724E-138
   55.8956250000000         1.913860249130352E-138
   56.1093750000000        -2.754455376100273E-139
   56.3231250000000        -6.223293012733015E-138
   56.5368750000000        -1.838158058355593E-137
   56.7506250000000        -3.912717909805508E-137
   56.9643750000000        -6.897446947959315E-137
   57.1781250000000        -1.030228510778788E-136
   57.3918750000000        -1.250955267781091E-136
   57.6056250000000        -9.968606859877965E-137
   57.8193750000000         3.650522541340440E-137
   58.0331250000000         3.784718964423751E-136
   58.2468750000000         1.042202574151878E-135
   58.4606250000000         2.122743703541055E-135
   58.6743750000000         3.598099526853140E-135
   58.8881250000000         5.154642751905826E-135
   59.1018750000000         5.921724772592969E-135
   59.3156250000000         4.141780858183168E-135
   59.5293750000000        -3.116018904096801E-135
   59.7431250000000        -1.995095446613019E-134
   59.9568750000000        -5.088902822604204E-134
   60.1706250000000        -9.873635147775717E-134
   60.3843750000000        -1.602141635232872E-133
   60.5981250000000        -2.186966287713268E-133
   60.8118750000000        -2.341200817620811E-133
   61.0256250000000        -1.319421632759165E-133
   61.2393750000000         2.036341238545305E-133
   61.4531250000000         9.218691284266458E-133
   61.6668750000000         2.166481974789773E-132
   61.8806250000000         3.983127701219956E-132
   62.0943750000000         6.150369333982174E-132
   62.3081250000000         7.922890833555754E-132
   62.5218750000000         7.710495607610094E-132
   62.7356250000000         2.786472271725820E-132
   62.9493750000000        -1.076701652533106E-131
   63.1631250000000        -3.751497527029056E-131
   63.3768750000000        -8.100436090763618E-131
   63.5906250000000        -1.403674279494643E-130
   63.8043750000000        -2.047183524650405E-130
   64.0181250000000        -2.454494151708980E-130
   64.2318750000000        -2.078366595121839E-130
   64.4456250000000        -5.632476137137796E-132
   64.6593750000000         4.744150351516339E-130
   64.8731250000000         1.347391196703755E-129
   65.0868750000000         2.670732513143588E-129
   65.3006250000000         4.337378003524349E-129
   65.5143750000000         5.916892794849050E-129
   65.7281250000000         6.461601445176928E-129
   65.9418750000000         4.335215125475478E-129
   66.1556250000000        -2.816989162589913E-129
   66.3693750000000        -1.776047178439405E-128
   66.5831250000000        -4.275913531098650E-128
   66.7968750000000        -7.777044439006365E-128
   67.0106250000000        -1.175625535403439E-127
   67.2243750000000        -1.478935655553843E-127
   67.4381250000000        -1.415476320589557E-127
   67.6518750000000        -5.607228691585162E-128
   67.8656250000000         1.635503752301711E-127
   68.0793750000000         5.726371357296248E-127
   68.2931250000000         1.199486885601531E-126
   68.5068750000000         1.998563675626265E-126
   68.7206250000000         2.784169270077359E-126
   68.9343750000000         3.154314461015339E-126
   69.1481250000000         2.430868358786029E-126
   69.3618750000000        -3.352609176193010E-127
   69.5756250000000        -6.220071209721998E-126
   69.7893750000000        -1.605179196626077E-125
   70.0031250000000        -2.972027705252677E-125
   70.2168750000000        -4.514079222411809E-125
   70.4306250000000        -5.697655998471248E-125
   70.6443750000000        -5.546091206759127E-125
   70.8581250000000        -2.600017202157268E-125
   71.0718750000000         4.936525525890302E-125
   71.2856250000000         1.872403106521169E-124
   71.4993750000000         3.934804252177981E-124
   71.7131250000000         6.483576603155432E-124
   71.9268750000000         8.872634655465968E-124
   72.1406250000000         9.811298644589114E-124
   72.3543750000000         7.255105368805847E-124
   72.5681250000000        -1.469823104594812E-124
   72.7818750000000        -1.911085576610400E-123
   72.9956250000000        -4.729016800063960E-123
   73.2093750000000        -8.452415557163234E-123
   73.4231250000000        -1.235376456804640E-122
   73.6368750000000        -1.483629765501689E-122
   73.8506250000000        -1.323434185805669E-122
   74.0643750000000        -3.894248426985410E-123
   74.2781250000000         1.720075374884588E-122
   74.4918750000000         5.296991085524118E-122
   74.7056250000000         1.027236356523710E-121
   74.9193750000000         1.586454858563586E-121
   75.1331250000000         2.018242764628250E-121
   75.3468750000000         1.991905219659516E-121
   75.5606250000000         1.037234339625046E-121
   75.7743750000000        -1.387212229187822E-121
   75.9881250000000        -5.721400870701042E-121
   76.2018750000000        -1.199639650438839E-120
   76.4156250000000        -1.939211230301274E-120
   76.6293750000000        -2.572184492295044E-120
   76.8431250000000        -2.700298003831489E-120
   77.0568750000000        -1.739974892098234E-120
   77.2706250000000         1.004890606867761E-120
   77.4843750000000         6.143271978293288E-120
   77.6981250000000         1.382976208139153E-119
   77.9118750000000         2.322305398456479E-119
   78.1256250000000         3.183555993409318E-119
   78.3393750000000         3.495618267419285E-119
   78.5531250000000         2.548235720867451E-119
   78.7668750000000        -5.341902454669744E-120
   78.9806250000000        -6.568344048690568E-119
   79.1943750000000        -1.588366927316713E-118
   79.4081250000000        -2.767285032159015E-118
   79.6218750000000        -3.918513172913740E-118
   79.8356250000000        -4.496141140640450E-118
   80.0493750000000        -3.649324534335545E-118
   80.2631250000000        -2.887270469198854E-119
   80.4768750000000         6.673912591538401E-118
   80.6906250000000         1.784337675383446E-117
   80.9043750000000         3.258216059328389E-117
   81.1181250000000         4.802846032593235E-117
   81.3318750000000         5.809416665300453E-117
   81.5456250000000         5.285716769425248E-117
   81.7593750000000         1.900407599870213E-117
   81.9731250000000        -5.782105583006773E-117
   82.1868750000000        -1.878755161492840E-116
   82.4006250000000        -3.688124268212531E-116
   82.6143750000000        -5.741024539095487E-116
   82.8281250000000        -7.402545113709045E-116
   83.0418750000000        -7.570355225413857E-116
   83.2556250000000        -4.677159947000827E-116
   83.4693750000000         3.109996401722391E-116
   83.6831250000000         1.738530814592882E-115
   83.8968750000000         3.860804487658786E-115
   84.1106250000000         6.480569183848227E-115
   84.3243750000000         9.002235810782440E-115
   84.5381250000000         1.029004605298197E-114
   84.7518750000000         8.609692829278168E-115
   84.9656250000000         1.756048884073404E-115
   85.1793750000000        -1.250843828323818E-114
   85.3931250000000        -3.558734476519711E-114
   85.6068750000000        -6.669877449741096E-114
   85.8206250000000        -1.011198588050032E-113
   86.0343750000000        -1.283414915906530E-113
   86.2481250000000        -1.307712526649926E-113
   86.4618750000000        -8.399342775001247E-114
   86.6756250000000         4.008691707487118E-114
   86.8893750000000         2.657927074339223E-113
   87.1031250000000         6.008534160908111E-113
   87.3168750000000         1.018234771176813E-112
   87.5306250000000         1.434680814162483E-112
   87.7443750000000         1.691099911769120E-112
   87.9581250000000         1.543784287509539E-112
   88.1718750000000         6.793535483276748E-113
   88.3856250000000        -1.231144328144047E-112
   88.5993750000000        -4.424458546275701E-112
   88.8131250000000        -8.876182126711591E-112
   89.0268750000000        -1.407887374485949E-111
   89.2406250000000        -1.880176030424554E-111
   89.4543750000000        -2.090271409685141E-111
   89.6681250000000        -1.730476480820351E-111
   89.8818750000000        -4.286102468123980E-112
   90.0956250000000         2.175264198451977E-111
   90.3093750000000         6.291037855121463E-111
   90.5231250000000         1.177654153010441E-110
   90.7368750000000         1.788789665610315E-110
   90.9506250000000         2.302898081154038E-110
   91.1643750000000         2.458551425626671E-110
   91.3781250000000         1.897032890866439E-110
   91.5918750000000         2.037677339865909E-111
   91.8056250000000        -2.997232462223670E-110
   92.0193750000000        -7.884615325743968E-110
   92.2331250000000        -1.421771943337968E-109
   92.4468750000000        -2.107430467971657E-109
   92.6606250000000        -2.660230877783468E-109
   92.8743750000000        -2.787815971117260E-109
   93.0881250000000        -2.100201674061539E-109
   93.3018750000000        -1.585355525229055E-110
   93.5156250000000         3.421916005375555E-109
   93.7293750000000         8.805286234807933E-109
   93.9431250000000         1.570885917246671E-108
   94.1568750000000         2.314239208365496E-108
   94.3706250000000         2.916825821226778E-108
   94.5843750000000         3.077277095159337E-108
   94.7981250000000         2.397244794011027E-108
   95.0118750000000         4.299301869558240E-109
   95.2256250000000        -3.219901830896697E-108
   95.4393750000000        -8.736327332591356E-108
   95.6531250000000        -1.587683039847110E-107
   95.8668750000000        -2.372399426546747E-107
   96.0806250000000        -3.045348059233726E-107
   96.2943750000000        -3.319799468752767E-107
   96.5081250000000        -2.811612486199241E-107
   96.7218750000000        -1.079366777828629E-107
   96.9356250000000         2.289902725188479E-107
   97.1493750000000         7.541135240632495E-107
   97.3631250000000         1.455880825641789E-106
   97.5768750000000         2.263782242928672E-106
   97.7906250000000         3.025506989916065E-106
   98.0043750000000         3.490457043261171E-106
   98.2181250000000         3.308517511900067E-106
   98.4318750000000         2.055026355509626E-106
   98.6456250000000        -7.065255182871107E-107
   98.8593750000000        -5.314488865922462E-106
   99.0731250000000        -1.184783975340238E-105
   99.2868750000000        -1.992025931142718E-105
   99.5006250000000        -2.845175346576563E-105
   99.7143750000000        -3.546084760855472E-105
   99.9281250000000        -3.794465079458707E-105
   100.141875000000        -3.193842346065215E-105
   100.355625000000        -1.286507426062442E-105
   100.569375000000         2.370988702185978E-105
   100.783125000000         8.082161545479636E-105
   100.996875000000         1.583070890131155E-104
   101.210625000000         2.505295566552635E-104
   101.424375000000         3.438578208122366E-104
   101.638125000000         4.143626180169697E-104
   101.851875000000         4.264789939845488E-104
   102.065625000000         3.336963928256582E-104
   102.279375000000         8.261676926904524E-105
   102.493125000000        -3.781351092843682E-104
   102.706875000000        -1.082802347374703E-103
   102.920625000000        -2.026449070933198E-103
   103.134375000000        -3.136531479939967E-103
   103.348125000000        -4.240819126798228E-103
   103.561875000000        -5.037564011074246E-103
   103.775625000000        -5.077871622491267E-103
   103.989375000000        -3.774732882501559E-103
   104.203125000000        -4.571823304083310E-104
   104.416875000000         5.510028402035981E-103
   104.630625000000         1.452328011888493E-102
   104.844375000000         2.644509830549968E-102
   105.058125000000         4.022871074603287E-102
   105.271875000000         5.350573671402099E-102
   105.485625000000         6.222569207105461E-102
   105.699375000000         6.049088508429102E-102
   105.913125000000         4.078644091501191E-102
   106.126875000000        -5.153017637573209E-103
   106.340625000000        -8.459473529662022E-102
   106.554375000000        -2.009969493599771E-101
   106.768125000000        -3.501234355661174E-101
   106.981875000000        -5.153719437032814E-101
   107.195625000000        -6.630521963840355E-101
   107.409375000000        -7.389233897469033E-101
   107.623125000000        -6.679311579269409E-101
   107.836875000000        -3.596285071062084E-101
   108.050625000000         2.779975496940088E-101
   108.264375000000         1.313939319219833E-100
   108.478125000000         2.757781161940490E-100
   108.691875000000         4.513050966117907E-100
   108.905625000000         6.325884988803128E-100
   109.119375000000         7.739981519009518E-100
   109.333125000000         8.075041015803733E-100
   109.546875000000         6.451765593311078E-100
   109.760625000000         1.890113979925871E-100
   109.974375000000        -6.493745041093884E-100
   110.188125000000        -1.917557860484634E-099
   110.401875000000        -3.580042868640171E-099
   110.615625000000        -5.468672264406134E-099
   110.829375000000        -7.234137052745814E-099
   111.043125000000        -8.312615112016351E-099
   111.256875000000        -7.927236626588398E-099
   111.470625000000        -5.148289990641447E-099
   111.684375000000         9.633027862442970E-100
   111.898125000000         1.111032822303062E-098
   112.111875000000         2.540710065402362E-098
   112.325625000000         4.294209126106971E-098
   112.539375000000         6.131406861883982E-098
   112.753125000000         7.624737280877210E-098
   112.966875000000         8.144228527085546E-098
   113.180625000000         6.885909828447211E-098
   113.394375000000         2.965299642253837E-098
   113.608125000000        -4.404964961820416E-098
   113.821875000000        -1.564372451831723E-097
   114.035625000000        -3.044466924341106E-097
   114.249375000000        -4.737095579306329E-097
   114.463125000000        -6.347426334245396E-097
   114.676875000000        -7.405319485059076E-097
   114.890625000000        -7.270504273484700E-097
   115.104375000000        -5.184966236121722E-097
   115.318125000000        -3.898887692696312E-098
   115.531875000000         7.680834449326841E-097
   115.745625000000         1.913032812873636E-096
   115.959375000000         3.327097588987662E-096
   116.173125000000         4.828543174009111E-096
   116.386875000000         6.095510232782523E-096
   116.600625000000         6.656792671539424E-096
   116.814375000000         5.914316109282515E-096
   117.028125000000         3.211843634746698E-096
   117.241875000000        -2.037978981278258E-096
   117.455625000000        -1.016308961952406E-095
   117.669375000000        -2.098544743770215E-095
   117.883125000000        -3.354452532864457E-095
   118.096875000000        -4.584068199645408E-095
   118.310625000000        -5.467437735446344E-095
   118.524375000000        -5.568074677574267E-095
   118.738125000000        -4.367261150304967E-095
   118.951875000000        -1.339910235252963E-095
   119.165625000000         3.920876001446259E-095
   119.379375000000         1.153094637934933E-094
   119.593125000000         2.110636863013521E-094
   119.806875000000         3.154760759175026E-094
   120.020625000000         4.086470089632287E-094
   120.234375000000         4.611087794192204E-094
   120.448125000000         4.350682034442504E-094
   120.661875000000         2.884156516635261E-094
   120.875625000000        -1.778595042060465E-095
   121.089375000000        -5.080249956451987E-094
   121.303125000000        -1.177694964909242E-093
   121.516875000000        -1.976553163327539E-093
   121.730625000000        -2.793097014844070E-093
   121.944375000000        -3.444134007444028E-093
   122.158125000000        -3.675136439622546E-093
   122.371875000000        -3.177737622885185E-093
   122.585625000000        -1.630435374266865E-093
   122.799375000000         1.233332458834775E-093
   123.013125000000         5.529584336808577E-093
   123.226875000000         1.110691296554979E-092
   123.440625000000         1.742327004248483E-092
   123.654375000000         2.344163750684162E-092
   123.868125000000         2.758016209130342E-092