  -1.60312500000000         0.000000000000000E+000
  -1.38937500000000         0.000000000000000E+000
  -1.17562500000000         0.000000000000000E+000
 -0.961875000000000         0.000000000000000E+000
 -0.748125000000000         0.000000000000000E+000
 -0.534375000000000         0.000000000000000E+000
 -0.320625000000000         0.000000000000000E+000
 -0.106875000000000         0.000000000000000E+000
  0.106875000000000         0.000000000000000E+000
  0.320625000000000         0.000000000000000E+000
  0.534375000000000         0.000000000000000E+000
  0.748125000000000         0.000000000000000E+000
  0.961875000000000         0.000000000000000E+000
   1.17562500000000         0.000000000000000E+000
   1.38937500000000         0.000000000000000E+000
   1.60312500000000         0.000000000000000E+000
   1.81687500000000         0.000000000000000E+000
   2.03062500000000         0.000000000000000E+000
   2.24437500000000         0.000000000000000E+000
   2.45812500000000         0.000000000000000E+000
   2.67187500000000         0.000000000000000E+000
   2.88562500000000         0.000000000000000E+000
   3.09937500000000         0.000000000000000E+000
   3.31312500000000         0.000000000000000E+000
   3.52687500000000         0.000000000000000E+000
   3.74062500000000         0.000000000000000E+000
   3.95437500000000         0.000000000000000E+000
   4.16812500000000         0.000000000000000E+000
   4.38187500000000         0.000000000000000E+000
   4.59562500000000         0.000000000000000E+000
   4.80937500000000         0.000000000000000E+000
   5.02312500000000         0.000000000000000E+000
   5.23687500000000         0.000000000000000E+000
   5.45062500000000         0.000000000000000E+000
   5.66437500000000         0.000000000000000E+000
   5.87812500000000         0.000000000000000E+000
   6.09187500000000         0.000000000000000E+000
   6.30562500000000         0.000000000000000E+000
   6.51937500000000         0.000000000000000E+000
   6.73312500000000         0.000000000000000E+000
   6.94687500000000         0.000000000000000E+000
   7.16062500000000         0.000000000000000E+000
   7.37437500000000         0.000000000000000E+000
   7.58812500000000         0.000000000000000E+000
   7.80187500000000         0.000000000000000E+000
   8.01562500000000         0.000000000000000E+000
   8.22937500000000         0.000000000000000E+000
   8.44312500000000         0.000000000000000E+000
   8.65687500000000         0.000000000000000E+000
   8.87062500000000         0.000000000000000E+000
   9.08437500000000         0.000000000000000E+000
   9.29812500000000         0.000000000000000E+000
   9.51187500000000         0.000000000000000E+000
   9.72562500000000         0.000000000000000E+000
   9.93937500000000         0.000000000000000E+000
   10.1531250000000         0.000000000000000E+000
   10.3668750000000         0.000000000000000E+000
   10.5806250000000         0.000000000000000E+000
   10.7943750000000         0.000000000000000E+000
   11.0081250000000         0.000000000000000E+000
   11.2218750000000         0.000000000000000E+000
   11.4356250000000         0.000000000000000E+000
   11.6493750000000         1.288674016912597E-254
   11.8631250000000        -1.126424952054164E-246
   12.0768750000000        -8.021944973450021E-243
   12.2906250000000         8.851001261532802E-238
   12.5043750000000         2.281034202967137E-235
   12.7181250000000         2.185512212999911E-233
   12.9318750000000         1.287305223537825E-231
   13.1456250000000         5.367224519032935E-230
   13.3593750000000         1.694264651108849E-228
   13.5731250000000         4.232128590272829E-227
   13.7868750000000         8.644796065789874E-226
   14.0006250000000         1.485120037686739E-224
   14.2143750000000         2.147109969375201E-223
   14.4281250000000         2.871184327041269E-222
   14.6418750000000         5.714138012609101E-221
   14.8556250000000         1.788649219452424E-219
   15.0693750000000         5.276208845515257E-218
   15.2831250000000         1.260703665435432E-216
   15.4968750000000         2.414884341148489E-215
   15.7106250000000         3.469673086995627E-214
   15.9243750000000         2.528229701275515E-213
   16.1381250000000        -4.323157170668292E-212
   16.3518750000000        -2.228987061969855E-210
   16.5656250000000        -5.515357743937717E-209
   16.7793750000000        -1.017609763099690E-207
   16.9931250000000        -1.543104160088953E-206
   17.2068750000000        -2.003073416943782E-205
   17.4206250000000        -2.275352878473309E-204
   17.6343750000000        -2.292024420246131E-203
   17.8481250000000        -2.063684605846211E-202
   18.0618750000000        -1.666712680530598E-201
   18.2756250000000        -1.205942676499733E-200
   18.4893750000000        -7.751632891508617E-200
   18.7031250000000        -4.327985563973201E-199
   18.9168750000000        -1.976112988833481E-198
   19.1306250000000        -5.879934234626946E-198
   19.3443750000000         8.907120434810969E-198
   19.5581250000000         3.252452967082147E-196
   19.7718750000000         3.359196677831068E-195
   19.9856250000000         2.605930146399890E-194
   20.1993750000000         1.730499277607006E-193
   20.4131250000000         1.029222784247920E-192
   20.6268750000000         5.597969765437969E-192
   20.8406250000000         2.814668811231940E-191
   21.0543750000000         1.315471273824482E-190
   21.2681250000000         5.725319749939830E-190
   21.4818750000000         2.317117504283880E-189
   21.6956250000000         8.671408822385359E-189
   21.9093750000000         2.963586902995546E-188
   22.1231250000000         9.004876394642400E-188
   22.3368750000000         2.275015668172662E-187
   22.5506250000000         3.710305818732776E-187
   22.7643750000000        -4.537878611498270E-187
   22.9781250000000        -7.928585029912074E-186
   23.1918750000000        -4.792137549411518E-185
   23.4056250000000        -2.225933621471431E-184
   23.6193750000000        -8.945379007112511E-184
   23.8331250000000        -3.234927522309924E-183
   24.0468750000000        -1.068654591726556E-182
   24.2606250000000        -3.234681212119249E-182
   24.4743750000000        -8.909045355155986E-182
   24.6881250000000        -2.185194966208028E-181
   24.9018750000000        -4.513417801524702E-181
   25.1156250000000        -6.468211042559154E-181
   25.3293750000000         1.795972298990068E-181
   25.5431250000000         6.045751833726863E-180
   25.7568750000000         3.001005672667260E-179
   25.9706250000000         1.078154837969519E-178
   26.1843750000000         3.202942596296488E-178
   26.3981250000000         7.983575565944407E-178
   26.6118750000000         1.559019388782254E-177
   26.8256250000000         1.566744936135723E-177
   27.0393750000000        -5.023994286743196E-177
   27.2531250000000        -4.162308150218383E-176
   27.4668750000000        -1.880899880674266E-175
   27.6806250000000        -6.898183211381603E-175
   27.8943750000000        -2.242446528804258E-174
   28.1081250000000        -6.685964647607877E-174
   28.3218750000000        -1.858284186961941E-173
   28.5356250000000        -4.853716810956166E-173
   28.7493750000000        -1.195285364013252E-172
   28.9631250000000        -2.773831218571820E-172
   29.1768750000000        -6.037656010657874E-172
   29.3906250000000        -1.219198931996093E-171
   29.6043750000000        -2.231143012964491E-171
   29.8181250000000        -3.498548391945605E-171
   30.0318750000000        -3.890593363855831E-171
   30.2456250000000         6.924916678000564E-172
   30.4593750000000         2.206089106076796E-170
   30.6731250000000         9.014594743469175E-170
   30.8868750000000         2.740903525063852E-169
   31.1006250000000         7.215476020516093E-169
   31.3143750000000         1.725087964975941E-168
   31.5281250000000         3.820359488746552E-168
   31.7418750000000         7.900693824166430E-168
   31.9556250000000         1.527767547751664E-167
   32.1693750000000         2.749416807836981E-167
   32.3831250000000         4.545898218570524E-167
   32.5968750000000         6.706840652930711E-167
   32.8106250000000         8.187310423390125E-167
   33.0243750000000         6.055448552461947E-167
   33.2381250000000        -6.392048111967553E-167
   33.4518750000000        -4.275065109594332E-166
   33.6656250000000        -1.283834196042366E-165
   33.8793750000000        -3.078270143188600E-165
   34.0931250000000        -6.562021605602038E-165
   34.3068750000000        -1.297670982430255E-164
   34.5206250000000        -2.436401210697528E-164
   34.7343750000000        -4.406299420674216E-164
   34.9481250000000        -7.735338367445943E-164
   35.1618750000000        -1.317344588169226E-163
   35.3756250000000        -2.149908265304673E-163
   35.5893750000000        -3.262374388699969E-163
   35.8031250000000        -4.300115681614173E-163
   36.0168750000000        -3.974170154826908E-163
   36.2306250000000         1.020107974060647E-163
   36.4443750000000         1.750192945460107E-162
   36.6581250000000         5.679227493191969E-162
   36.8718750000000         1.322496755082445E-161
   37.0856250000000         2.469238577145695E-161
   37.2993750000000         3.611386854366401E-161
   37.5131250000000         3.317238123172859E-161
   37.7268750000000        -1.611234453089389E-161
   37.9406250000000        -1.600612323158586E-160
   38.1543750000000        -4.231539926571622E-160
   38.3681250000000        -6.566232185134615E-160
   38.5818750000000        -1.469972691702005E-160
   38.7956250000000         3.212905496700679E-159
   39.0093750000000         1.435903283055475E-158
   39.2231250000000         4.291361738887944E-158
   39.4368750000000         1.041130411251957E-157
   39.6506250000000         2.146259604251503E-157
   39.8643750000000         3.734722082158734E-157
   40.0781250000000         5.090573102215153E-157
   40.2918750000000         3.618485673924316E-157
   40.5056250000000        -7.342151659020379E-157
   40.7193750000000        -4.189279668444063E-156
   40.9331250000000        -1.254258570307546E-155
   41.1468750000000        -2.958529834145504E-155
   41.3606250000000        -5.941070832134980E-155
   41.5743750000000        -1.027041572871852E-154
   41.7881250000000        -1.473341061079893E-154
   42.0018750000000        -1.490670696370522E-154
   42.2156250000000         1.734428806376874E-156
   42.4293750000000         5.273772205345815E-154
   42.6431250000000         1.810333834649793E-153
   42.8568750000000         4.396022016780136E-153
   43.0706250000000         8.848097949458749E-153
   43.2843750000000         1.526538552867010E-152
   43.4981250000000         2.216804947971695E-152
   43.7118750000000         2.441157020776758E-152
   43.9256250000000         9.948566402320922E-153
   44.1393750000000        -4.407059122302726E-152
   44.3531250000000        -1.737286064144493E-151
   44.5668750000000        -4.240431540668746E-151
   44.7806250000000        -8.278328406970850E-151
   44.9943750000000        -1.352031094501217E-150
   45.2081250000000        -1.793164958867479E-150
   45.4218750000000        -1.613449749179913E-150
   45.6356250000000         2.512467454593499E-151
   45.8493750000000         5.482663917917223E-150
   46.0631250000000         1.605351254521352E-149
   46.2768750000000         3.287115648387876E-149
   46.4906250000000         5.243477338633319E-149
   46.7043750000000         6.039271518628377E-149
   46.9181250000000         2.152675911798902E-149
   47.1318750000000        -1.316466198588573E-148
   47.3456250000000        -5.027172465960129E-148
   47.5593750000000        -1.205092736250973E-147
   47.7731250000000        -2.260052801637170E-147
   47.9868750000000        -3.342489198196319E-147
   48.2006250000000        -3.270380562834849E-147
   48.4143750000000         8.530454466628665E-148
   48.6281250000000         1.480068562765318E-146
   48.8418750000000         4.823329395867119E-146
   49.0556250000000         1.141847691542595E-145
   49.2693750000000         2.239098750751220E-145
   49.4831250000000         3.712372967618788E-145
   49.6968750000000         4.971132007769348E-145
   49.9106250000000         4.224966237798205E-145
   50.1243750000000        -2.593543643765218E-145
   50.3381250000000        -2.322457504560165E-144
   50.5518750000000        -7.021554144471945E-144
   50.7656250000000        -1.601595737808948E-143
   50.9793750000000        -3.075070420951281E-143
   51.1931250000000        -5.065510148316222E-143
   51.4068750000000        -6.917977383124954E-143
   51.6206250000000        -6.648881958826425E-143
   51.8343750000000         1.982696546569114E-144
   52.0481250000000         2.199854750212936E-142
   52.2618750000000         7.218508778276501E-142
   52.4756250000000         1.684651311118512E-141
   52.6893750000000         3.267661110058658E-141
   52.9031250000000         5.440945465399627E-141
   53.1168750000000         7.618252538324634E-141
   53.3306250000000         7.998761659553947E-141
   53.5443750000000         2.568152780103158E-141
   53.7581250000000        -1.611367533888577E-140
   53.9718750000000        -5.978850780405985E-140
   54.1856250000000        -1.436804584075643E-139
   54.3993750000000        -2.813189709529976E-139
   54.6131250000000        -4.706173355362606E-139
   54.8268750000000        -6.652119495414003E-139
   55.0406250000000        -7.250297850040382E-139
   55.2543750000000        -3.445407800778644E-139
   55.4681250000000         1.028847169957315E-138
   55.6818750000000         4.243311024599110E-138
   55.8956250000000         1.036079227567324E-137
   56.1093750000000         2.026639369947652E-137
   56.3231250000000         3.369377087654970E-137
   56.5368750000000         4.732146606618766E-137
   56.7506250000000         5.165030606518299E-137
   56.9643750000000         2.673212092406746E-137
   57.1781250000000        -6.223933152059180E-137
   57.3918750000000        -2.666024969426642E-136
   57.6056250000000        -6.472329916193310E-136
   57.8193750000000        -1.248766975501723E-135
   58.0331250000000        -2.040629356253339E-135
   58.2468750000000        -2.808771896256969E-135
   58.4606250000000        -2.988486349653744E-135
   58.6743750000000        -1.452398565451750E-135
   58.8881250000000         3.678696822235442E-135
   59.1018750000000         1.503806081196345E-134
   59.3156250000000         3.551903591991480E-134
   59.5293750000000         6.679859502022157E-134
   59.7431250000000         1.062478595017962E-133
   59.9568750000000         1.416334014539146E-133
   60.1706250000000         1.434868775306957E-133
   60.3843750000000         5.632123328285103E-134
   60.5981250000000        -2.075363127391557E-133
   60.8118750000000        -7.634756273421740E-133
   61.0256250000000        -1.725689799014840E-132
   61.2393750000000        -3.133927273854670E-132
   61.4531250000000        -4.812989060837970E-132
   61.6668750000000        -6.148552431365190E-132
   61.8806250000000        -5.789306064261556E-132
   62.0943750000000        -1.345369684345137E-132
   62.3081250000000         1.073985460676655E-131
   62.5218750000000         3.480768464738594E-131
   62.7356250000000         7.456187786345244E-131
   62.9493750000000         1.299143121943438E-130
   63.1631250000000         1.914188428195440E-130
   63.3768750000000         2.320426392818081E-130
   63.5906250000000         1.972182042244493E-130
   63.8043750000000        -3.524905065504579E-132
   64.0181250000000        -4.962453153919999E-130
   64.2318750000000        -1.421379142669687E-129
   64.4456250000000        -2.874094620113281E-129
   64.6593750000000        -4.785854739391945E-129
   64.8731250000000        -6.731586240739132E-129
   65.0868750000000        -7.666950647364144E-129
   65.3006250000000        -5.645452420583757E-129
   65.5143750000000         2.355361908620417E-129
   65.7281250000000         2.025302481520760E-128
   65.9418750000000         5.194012745011720E-128
   66.1556250000000         9.912492677498686E-128
   66.3693750000000         1.574333419082256E-127
   66.5831250000000         2.105450426174673E-127
   66.7968750000000         2.228901985137388E-127
   67.0106250000000         1.328980855228794E-127
   67.2243750000000        -1.488877052531069E-127
   67.4381250000000        -7.294448171098291E-127
   67.6518750000000        -1.700116567365535E-126
   67.8656250000000        -3.068407496077615E-126
   68.0793750000000        -4.644932696191110E-126
   68.2931250000000        -5.886385172591732E-126
   68.5068750000000        -5.719109161017755E-126
   68.7206250000000        -2.408902086859786E-126
   68.9343750000000         6.398271151984573E-126
   69.1481250000000         2.327041238141026E-125
   69.3618750000000         4.996626558748107E-125
   69.5756250000000         8.553942982666991E-125
   69.7893750000000         1.234348659534065E-124
   70.0031250000000         1.477770160388418E-124
   70.2168750000000         1.296903126391193E-124
   70.4306250000000         2.549655686632694E-125
   70.6443750000000        -2.200574362663609E-124
   70.8581250000000        -6.610470843365658E-124
   71.0718750000000        -1.322833205155981E-123
   71.2856250000000        -2.155342494886580E-123
   71.4993750000000        -2.966742712414362E-123
   71.7131250000000        -3.345919474924109E-123
   71.9268750000000        -2.597289125382016E-123
   72.1406250000000         2.669574547955262E-124
   72.3543750000000         6.406819645312031E-123
   72.5681250000000         1.681488482185683E-122
   72.7818750000000         3.166212614335824E-122
   72.9956250000000         4.927097614902931E-122
   73.2093750000000         6.476279114590264E-122
   73.4231250000000         6.862864886523423E-122
   73.6368750000000         4.578642731811752E-122
   73.8506250000000        -2.390473255182232E-122
   74.0643750000000        -1.622793618490487E-121
   74.2781250000000        -3.849945267380760E-121
   74.4918750000000        -6.876857233261361E-121
   74.7056250000000        -1.025726963478191E-120
   74.9193750000000        -1.289532741060619E-120
   75.1331250000000        -1.281391072200988E-120
   75.3468750000000        -7.055920151566673E-121
   75.5606250000000         8.095676271196112E-121
   75.7743750000000         3.633315801735096E-120
   75.9881250000000         7.971123415935897E-120
   76.2018750000000         1.360193072290890E-119
   76.4156250000000         1.951883629700819E-119
   76.6293750000000         2.352426905818950E-119
   76.8431250000000         2.190278144676626E-119
   77.0568750000000         9.389124325164321E-120
   77.2706250000000        -2.025051757138699E-119
   77.4843750000000        -7.263624590750785E-119
   77.6981250000000        -1.498228247251525E-118
   77.9118750000000        -2.458012171897691E-118
   78.1256250000000        -3.407301650582461E-118
   78.3393750000000        -3.949685142202900E-118
   78.5531250000000        -3.451247327263333E-118
   78.7668750000000        -1.057202169938185E-118
   78.9806250000000         4.186482135998740E-118
   79.1943750000000         1.305167324064280E-117
   79.4081250000000         2.564215881535858E-117
   79.6218750000000         4.069595910230749E-117
   79.8356250000000         5.474481714866583E-117
   80.0493750000000         6.132171188105526E-117
   80.2631250000000         5.057041423036002E-117
   80.4768750000000         9.791027160434765E-118
   80.6906250000000        -7.440166227412075E-117
   80.9043750000000        -2.116135368695195E-116
   81.1181250000000        -4.004391360636257E-116
   81.3318750000000        -6.186228898211045E-116
   81.5456250000000        -8.119053419925679E-116
   81.7593750000000        -8.845234648608022E-116
   81.9731250000000        -6.964229494230334E-116
   82.1868750000000        -7.433219285010881E-117
   82.4006250000000         1.154829018432286E-115
   82.6143750000000         3.100346739128638E-115
   82.8281250000000         5.710088524447608E-115
   83.0418750000000         8.644004316758537E-115
   83.2556250000000         1.113886510881100E-114
   83.4693750000000         1.190509717793091E-114
   83.6831250000000         9.120625288920599E-115
   83.8968750000000         6.082546852885123E-116
   84.1106250000000        -1.570743752725124E-114
   84.3243750000000        -4.098406579124640E-114
   84.5381250000000        -7.426460193832847E-114
   84.7518750000000        -1.109921779816522E-113
   84.9656250000000        -1.415059895251514E-113
   85.1793750000000        -1.500184031013200E-113
   85.3931250000000        -1.148222964505402E-113
   85.6068750000000        -1.067485426716836E-114
   85.8206250000000         1.856589172523472E-113
   86.0343750000000         4.859831783400828E-113
   86.2481250000000         8.773630146486793E-113
   86.4618750000000         1.306206781811248E-112
   86.6756250000000         1.662883249984805E-112
   86.8893750000000         1.772313746245749E-112
   87.1031250000000         1.398282102519286E-112
   87.3168750000000         2.707727488893656E-113
   87.5306250000000        -1.854580576457765E-112
   87.7443750000000        -5.099147835853313E-112
   87.9581250000000        -9.327860233578927E-112
   88.1718750000000        -1.399412362858311E-111
   88.3856250000000        -1.799496472026659E-111
   88.5993750000000        -1.958851192572347E-111
   88.8131250000000        -1.644468960384227E-111
   89.0268750000000        -5.910558688836427E-112
   89.2406250000000         1.443487190387589E-111
   89.4543750000000         4.589513964355872E-111
   89.6681250000000         8.746780597564255E-111
   89.8818750000000         1.344880488612226E-110
   90.0956250000000         1.773794229765803E-110
   90.3093750000000         2.009396158127579E-110
   90.5231250000000         1.847188045095413E-110
   90.7368750000000         1.051034296927600E-110
   90.9506250000000        -6.036280007666392E-111
   91.1643750000000        -3.261656962950755E-110
   91.3781250000000        -6.897717216492839E-110
   91.5918750000000        -1.121340906518173E-109
   91.8056250000000        -1.554096303660922E-109
   92.0193750000000        -1.878142013485953E-109
   92.2331250000000        -1.941180426224303E-109
   92.4468750000000        -1.559706698294354E-109
   92.6606250000000        -5.435695598485636E-110
   92.8743750000000         1.264902139258044E-109
   93.0881250000000         3.938671891275229E-109
   93.3018750000000         7.405436353940370E-109
   93.5156250000000         1.138676976228194E-108
   93.7293750000000         1.534728703922710E-108
   93.9431250000000         1.846445999007530E-108
   94.1568750000000         1.962750060577993E-108
   94.3706250000000         1.746934467658916E-108
   94.5843750000000         1.043113219597791E-108
   94.7981250000000        -3.142557158231665E-109
   95.0118750000000        -2.487176062762838E-108
   95.2256250000000        -5.614435382176496E-108
   95.4393750000000        -9.778629540414177E-108
   95.6531250000000        -1.494758432169189E-107
   95.8668750000000        -2.087231578877510E-107
   96.0806250000000        -2.692110348933631E-107
   96.2943750000000        -3.183460014200819E-107
   96.5081250000000        -3.340671711488135E-107
   96.7218750000000        -2.813731383552951E-107
   96.9356250000000        -1.097054519781072E-107
   97.1493750000000         2.467362707438818E-107
   97.3631250000000         8.625936282484762E-107
   97.5768750000000         1.804768769032732E-106
   97.7906250000000         3.101259551014340E-106
   98.0043750000000         4.692041107664242E-106
   98.2181250000000         6.361883164144201E-106
   98.4318750000000         7.661356553168246E-106
   98.6456250000000         7.832333228690777E-106
   98.8593750000000         5.767847119957683E-106
   99.0731250000000         5.174151771803045E-108
   99.2868750000000        -1.086240959721771E-105
   99.5006250000000        -2.826703332453031E-105
   99.7143750000000        -5.255435842715158E-105
   99.9281250000000        -8.228787904656372E-105
   100.141875000000        -1.130448451579859E-104
   100.355625000000        -1.362024586731200E-104
   100.569375000000        -1.380054041456560E-104
   100.783125000000        -9.944871310052003E-105
   100.996875000000         2.297940795790631E-106
   101.210625000000         1.900740516895809E-104
   101.424375000000         4.797071010705893E-104
   101.638125000000         8.692925691760058E-104
   101.851875000000         1.325012992417567E-103
   102.065625000000         1.764987170357989E-103
   102.279375000000         2.044453115519253E-103
   102.493125000000         1.947857913487278E-103
   102.706875000000         1.195832382559031E-103
   102.920625000000        -5.230500681357557E-104
   103.134375000000        -3.485355041929898E-103
   103.348125000000        -7.822591201012507E-103
   103.561875000000        -1.336609118629051E-102
   103.775625000000        -1.945739525995829E-102
   103.989375000000        -2.475302871644136E-102
   104.203125000000        -2.707693171454772E-102
   104.416875000000        -2.340143856044385E-102
   104.630625000000        -1.006296422578661E-102
   104.844375000000         1.666787950971648E-102
   105.058125000000         5.955319861560645E-102
   105.271875000000         1.188349346416282E-101
   105.485625000000         1.902135309946732E-101
   105.699375000000         2.625856040415826E-101
   105.913125000000         3.160123642136000E-101
   106.126875000000         3.206833861689888E-101
   106.340625000000         2.379330222093778E-101
   106.554375000000         2.457380594563999E-102
   106.768125000000        -3.581922005798028E-101
   106.981875000000        -9.303940363126447E-101
   107.195625000000        -1.673460131071489E-100
   107.409375000000        -2.506527249556589E-100
   107.623125000000        -3.262775240783115E-100
   107.836875000000        -3.672548183370689E-100
   108.050625000000        -3.363084337273421E-100
   108.264375000000        -1.887183731799131E-100
   108.478125000000         1.206030943561937E-100
   108.691875000000         6.247417940958947E-100
   108.905625000000         1.326741723074610E-099
   109.119375000000         2.176844991674892E-099
   109.333125000000         3.047977914658174E-099
   109.546875000000         3.715079028470740E-099
   109.760625000000         3.846803733333892E-099
   109.974375000000         3.020781194782877E-099
   110.188125000000         7.749887149932915E-100
   110.401875000000        -3.293326585407401E-099
   110.615625000000        -9.374868829350366E-099
   110.829375000000        -1.724581721304963E-098
   111.043125000000        -2.603645651362318E-098
   111.256875000000        -3.401421325218669E-098
   111.470625000000        -3.845057315815669E-098
   111.684375000000        -3.566653234103487E-098
   111.898125000000        -2.136779729148861E-098
   112.111875000000         8.621543367686338E-099
   112.325625000000         5.715200920286965E-098
   112.539375000000         1.240707965375911E-097
   112.753125000000         2.042043934277600E-097
   112.966875000000         2.853138908567183E-097
   113.180625000000         3.465532056066847E-097
   113.394375000000         3.581820212725361E-097
   113.608125000000         2.834530787281536E-097
   113.821875000000         8.362678919953390E-098
   114.035625000000        -2.731328112558044E-097
   114.249375000000        -7.987578566191288E-097
   114.463125000000        -1.468889084092052E-096
   114.676875000000        -2.205183941309290E-096
   114.890625000000        -2.860111919427625E-096
   115.104375000000        -3.209850716958529E-096
   115.318125000000        -2.962426263477355E-096
   115.531875000000        -1.788886589223502E-096
   115.745625000000         6.156714966562565E-097
   115.959375000000         4.437773875965783E-096
   116.173125000000         9.620909503220561E-096
   116.386875000000         1.572324974680729E-095
   116.600625000000         2.178309416816351E-095
   116.814375000000         2.623149040808413E-095
   117.028125000000         2.690432789647739E-095
   117.241875000000         2.121372839563335E-095
   117.455625000000         6.535500690864666E-096
   117.669375000000        -1.915000470398048E-095
   117.883125000000        -5.636731084050516E-095
   118.096875000000        -1.030746597340067E-094
   118.310625000000        -1.535699056621806E-094
   118.524375000000        -1.976342454482102E-094
   118.738125000000        -2.202754645380470E-094
   118.951875000000        -2.025042435152578E-094
   119.165625000000        -1.235842641320944E-094
   119.379375000000         3.490159507314064E-095
   119.593125000000         2.830700219970751E-094
   119.806875000000         6.151569737647961E-094
   120.020625000000         1.001240877616547E-093
   120.234375000000         1.379887669694474E-093
   120.448125000000         1.654081399804138E-093
   120.661875000000         1.693413209339317E-093
   120.875625000000         1.345743824541674E-093
   121.089375000000         4.611540548032404E-094
   121.303125000000        -1.070327055130622E-093
   121.516875000000        -3.268196141595720E-093
   121.730625000000        -6.002815481242353E-093
   121.944375000000        -8.937998282663758E-093
   122.158125000000        -1.148942445500627E-092
   122.371875000000        -1.281819604436010E-092
   122.585625000000        -1.188166574731886E-092
   122.799375000000        -7.562818310609080E-093
   123.013125000000         1.106963535404054E-093
   123.226875000000         1.463063468672456E-092
   123.440625000000         3.265449276951444E-092
   123.654375000000         5.355372353274911E-092
   123.868125000000         7.407921427416541E-092