  -1.60312500000000         0.000000000000000E+000
  -1.38937500000000         0.000000000000000E+000
  -1.17562500000000         0.000000000000000E+000
 -0.961875000000000         0.000000000000000E+000
 -0.748125000000000         0.000000000000000E+000
 -0.534375000000000         0.000000000000000E+000
 -0.320625000000000         0.000000000000000E+000
 -0.106875000000000         0.000000000000000E+000
  0.106875000000000         0.000000000000000E+000
  0.320625000000000         0.000000000000000E+000
  0.534375000000000         0.000000000000000E+000
  0.748125000000000         0.000000000000000E+000
  0.961875000000000         0.000000000000000E+000
   1.17562500000000         0.000000000000000E+000
   1.38937500000000         0.000000000000000E+000
   1.60312500000000         0.000000000000000E+000
   1.81687500000000         0.000000000000000E+000
   2.03062500000000         0.000000000000000E+000
   2.24437500000000         0.000000000000000E+000
   2.45812500000000         0.000000000000000E+000
   2.67187500000000         0.000000000000000E+000
   2.88562500000000         0.000000000000000E+000
   3.09937500000000         0.000000000000000E+000
   3.31312500000000         0.000000000000000E+000
   3.52687500000000         0.000000000000000E+000
   3.74062500000000         0.000000000000000E+000
   3.95437500000000         0.000000000000000E+000
   4.16812500000000         0.000000000000000E+000
   4.38187500000000         0.000000000000000E+000
   4.59562500000000         0.000000000000000E+000
   4.80937500000000         0.000000000000000E+000
   5.02312500000000         0.000000000000000E+000
   5.23687500000000         0.000000000000000E+000
   5.45062500000000         0.000000000000000E+000
   5.66437500000000         0.000000000000000E+000
   5.87812500000000         0.000000000000000E+000
   6.09187500000000         0.000000000000000E+000
   6.30562500000000         0.000000000000000E+000
   6.51937500000000         0.000000000000000E+000
   6.73312500000000         0.000000000000000E+000
   6.94687500000000         0.000000000000000E+000
   7.16062500000000         0.000000000000000E+000
   7.37437500000000         0.000000000000000E+000
   7.58812500000000         0.000000000000000E+000
   7.80187500000000         0.000000000000000E+000
   8.01562500000000         0.000000000000000E+000
   8.22937500000000         0.000000000000000E+000
   8.44312500000000         0.000000000000000E+000
   8.65687500000000         0.000000000000000E+000
   8.87062500000000         0.000000000000000E+000
   9.08437500000000         0.000000000000000E+000
   9.29812500000000         0.000000000000000E+000
   9.51187500000000         0.000000000000000E+000
   9.72562500000000         0.000000000000000E+000
   9.93937500000000         0.000000000000000E+000
   10.1531250000000         0.000000000000000E+000
   10.3668750000000         0.000000000000000E+000
   10.5806250000000         0.000000000000000E+000
   10.7943750000000         0.000000000000000E+000
   11.0081250000000         0.000000000000000E+000
   11.2218750000000         0.000000000000000E+000
   11.4356250000000        -6.420938584215764E-254
   11.6493750000000         1.413053397760359E-246
   11.8631250000000         5.699012994739597E-242
   12.0768750000000        -1.358795796126470E-237
   12.2906250000000        -3.483571256670977E-235
   12.5043750000000        -3.313554501804732E-233
   12.7181250000000        -1.921924171748866E-231
   12.9318750000000        -7.865811998007892E-230
   13.1456250000000        -2.436205625132801E-228
   13.3593750000000        -5.970593624558658E-227
   13.5731250000000        -1.195649032967019E-225
   13.7868750000000        -2.008012011969943E-224
   14.0006250000000        -2.892977336706714E-223
   14.2143750000000        -3.620066866535543E-222
   14.4281250000000        -4.314728845874273E-221
   14.6418750000000        -8.616732630221663E-220
   14.8556250000000        -3.250534232906490E-218
   15.0693750000000        -1.168808020552124E-216
   15.2831250000000        -3.388602214977341E-215
   15.4968750000000        -8.250636722678403E-214
   15.7106250000000        -1.772840769293919E-212
   15.9243750000000        -3.456140225472957E-211
   16.1381250000000        -6.157080830577853E-210
   16.3518750000000        -9.992119182393499E-209
   16.5656250000000        -1.470593095058525E-207
   16.7793750000000        -1.959088868622115E-206
   16.9931250000000        -2.364696088942771E-205
   17.2068750000000        -2.593769266672425E-204
   17.4206250000000        -2.595418864473694E-203
   17.6343750000000        -2.379020078117879E-202
   17.8481250000000        -2.005534111330674E-201
   18.0618750000000        -1.560522209870782E-200
   18.2756250000000        -1.124301569025044E-199
   18.4893750000000        -7.520052280940346E-199
   18.7031250000000        -4.679871644156434E-198
   18.9168750000000        -2.714584416062829E-197
   19.1306250000000        -1.469988093439451E-196
   19.3443750000000        -7.443884416359943E-196
   19.5581250000000        -3.533769482848069E-195
   19.7718750000000        -1.579889434319951E-194
   19.9856250000000        -6.713418341064924E-194
   20.1993750000000        -2.759401874663201E-193
   20.4131250000000        -1.130126800722550E-192
   20.6268750000000        -4.795746142428984E-192
   20.8406250000000        -2.175442851918861E-191
   21.0543750000000        -1.055520500446162E-190
   21.2681250000000        -5.315860789210718E-190
   21.4818750000000        -2.675148626917197E-189
   21.6956250000000        -1.307072172846394E-188
   21.9093750000000        -6.097057146098322E-188
   22.1231250000000        -2.691676239539680E-187
   22.3368750000000        -1.119427048086269E-186
   22.5506250000000        -4.371262366763768E-186
   22.7643750000000        -1.596563379102462E-185
   22.9781250000000        -5.420885645750441E-185
   23.1918750000000        -1.692285857891899E-184
   23.4056250000000        -4.753553761681609E-184
   23.6193750000000        -1.144012197130799E-183
   23.8331250000000        -2.026735330380847E-183
   24.0468750000000        -4.775947899418121E-184
   24.2606250000000         1.777043759644324E-182
   24.4743750000000         1.108165618379563E-181
   24.6881250000000         4.804895640959106E-181
   24.9018750000000         1.746635730578498E-180
   25.1156250000000         5.603078290830617E-180
   25.3293750000000         1.610589366628380E-179
   25.5431250000000         4.132806103031695E-179
   25.7568750000000         9.230076668941051E-179
   25.9706250000000         1.663614149730651E-178
   26.1843750000000         1.755596419397620E-178
   26.3981250000000        -2.734809116722857E-178
   26.6118750000000        -2.401101409793422E-177
   26.8256250000000        -9.081829717651481E-177
   27.0393750000000        -2.468703330654168E-176
   27.2531250000000        -4.697510098217216E-176
   27.4668750000000        -2.436735430726472E-176
   27.6806250000000         3.072938869126930E-175
   27.8943750000000         1.953987863098635E-174
   28.1081250000000         8.193144415807355E-174
   28.3218750000000         2.859240294634727E-173
   28.5356250000000         8.866304649553720E-173
   28.7493750000000         2.509632021906911E-172
   28.9631250000000         6.563078174210054E-172
   29.1768750000000         1.592149296009472E-171
   29.3906250000000         3.574077130656898E-171
   29.6043750000000         7.345650460378550E-171
   29.8181250000000         1.346859924679238E-170
   30.0318750000000         2.059855177649082E-170
   30.2456250000000         2.027054825490765E-170
   30.4593750000000        -1.650292067205264E-170
   30.6731250000000        -1.699994958981015E-169
   30.8868750000000        -6.360390184494192E-169
   31.1006250000000        -1.848460858151575E-168
   31.3143750000000        -4.690323727243474E-168
   31.5281250000000        -1.081385221116067E-167
   31.7418750000000        -2.303085762513564E-167
   31.9556250000000        -4.556262696091094E-167
   32.1693750000000        -8.351973973906852E-167
   32.3831250000000        -1.400685122390377E-166
   32.5968750000000        -2.078693827851892E-166
   32.8106250000000        -2.477128800124426E-166
   33.0243750000000        -1.404406832206324E-166
   33.2381250000000         4.137336855469397E-166
   33.4518750000000         2.093018851743791E-165
   33.6656250000000         6.315511515627008E-165
   33.8793750000000         1.583527956668678E-164
   34.0931250000000         3.555939724733576E-164
   34.3068750000000         7.320822599347188E-164
   34.5206250000000         1.383648470318489E-163
   34.7343750000000         2.358218985518672E-163
   34.9481250000000         3.435414410237897E-163
   35.1618750000000         3.553115613647997E-163
   35.3756250000000        -4.715366958236741E-164
   35.5893750000000        -1.642988990617101E-162
   35.8031250000000        -6.084599162637694E-162
   36.0168750000000        -1.642439237278599E-161
   36.2306250000000        -3.738889015447126E-161
   36.4443750000000        -7.421481692154727E-161
   36.6581250000000        -1.270839583509354E-160
   36.8718750000000        -1.748541691473194E-160
   37.0856250000000        -1.364752322876558E-160
   37.2993750000000         2.079148600395894E-160
   37.5131250000000         1.356782898939175E-159
   37.7268750000000         4.292439761745059E-159
   37.9406250000000         1.068635335829540E-158
   38.1543750000000         2.284248156795022E-158
   38.3681250000000         4.266269412918241E-158
   38.5818750000000         6.801172218284961E-158
   38.7956250000000         8.329111987354320E-158
   39.0093750000000         3.880326471867764E-158
   39.2231250000000        -1.885783375984173E-157
   39.4368750000000        -8.597902340956888E-157
   39.6506250000000        -2.457183237825979E-156
   39.8643750000000        -5.741324285231509E-156
   40.0781250000000        -1.163558851876502E-155
   40.2918750000000        -2.058689844206333E-155
   40.5056250000000        -3.068513113595986E-155
   40.7193750000000        -3.328959252060559E-155
   40.9331250000000        -4.374961762259513E-156
   41.1468750000000         1.101087627898368E-154
   41.3606250000000         4.143021664729551E-154
   41.5743750000000         1.079713905238386E-153
   41.7881250000000         2.332986257398778E-153
   42.0018750000000         4.350684193058165E-153
   42.2156250000000         6.936800912528878E-153
   42.4293750000000         8.779752484425181E-153
   42.6431250000000         6.029738662549978E-153
   42.8568750000000        -9.977399887837061E-153
   43.0706250000000        -5.554176748071083E-152
   43.2843750000000        -1.563297204242073E-151
   43.4981250000000        -3.435735820157204E-151
   43.7118750000000        -6.354746675199714E-151
   43.9256250000000        -9.880037228387598E-151
   44.1393750000000        -1.193945465528953E-150
   44.3531250000000        -7.134384674503166E-151
   44.5668750000000         1.548152845149257E-150
   44.7806250000000         7.406617178535677E-150
   44.9943750000000         1.920605322769961E-149
   45.2081250000000         3.863353135793073E-149
   45.4218750000000         6.348101251146436E-149
   45.6356250000000         8.100332247331822E-149
   45.8493750000000         5.700774547885450E-149
   46.0631250000000        -7.759779492361829E-149
   46.2768750000000        -4.341684271168289E-148
   46.4906250000000        -1.144957600256605E-147
   46.7043750000000        -2.267477356883786E-147
   46.9181250000000        -3.540746135092435E-147
   47.1318750000000        -3.903467431276017E-147
   47.3456250000000        -7.262953781838418E-148
   47.5593750000000         1.109627771474243E-146
   47.7731250000000         3.955132284754751E-146
   47.9868750000000         9.377078702347445E-146
   48.2006250000000         1.768832851171540E-145
   48.4143750000000         2.681153255187641E-145
   48.6281250000000         2.873661358088242E-145
   48.8418750000000         3.754008018594620E-146
   49.0556250000000        -8.686657751683702E-145
   49.2693750000000        -3.060220750033931E-144
   49.4831250000000        -7.337191858724345E-144
   49.6968750000000        -1.427103924981295E-143
   49.9106250000000        -2.312245082874545E-143
   50.1243750000000        -2.958801251276351E-143
   50.3381250000000        -2.190940467109625E-143
   50.5518750000000         2.462670782195471E-143
   50.7656250000000         1.532529217672701E-142
   50.9793750000000         4.264746822549735E-142
   51.1931250000000         9.111619507512727E-142
   51.4068750000000         1.628250734475419E-141
   51.6206250000000         2.437251539817823E-141
   51.8343750000000         2.820601368889917E-141
   52.0481250000000         1.546771557855709E-141
   52.2618750000000        -3.749891534970943E-141
   52.4756250000000        -1.689018144789857E-140
   52.6893750000000        -4.291093858335693E-140
   52.9031250000000        -8.635750776205008E-140
   53.1168750000000        -1.466164922371279E-139
   53.3306250000000        -2.082817006957113E-139
   53.5443750000000        -2.246266888723451E-139
   53.7581250000000        -9.398534817581555E-140
   53.9718750000000         3.660560021673045E-139
   54.1856250000000         1.430953086022767E-138
   54.3993750000000         3.433535772137584E-138
   54.6131250000000         6.618851575018616E-138
   54.8268750000000         1.079767689300193E-137
   55.0406250000000         1.468977915745915E-137
   55.2543750000000         1.488004475249978E-137
   55.4681250000000         4.454823445176567E-138
   55.6818750000000        -2.826542904372950E-137
   55.8956250000000        -9.982176101720248E-137
   56.1093750000000        -2.284261169974506E-136
   56.3231250000000        -4.240301916810925E-136
   56.5368750000000        -6.669786239626824E-136
   56.7506250000000        -8.705099981194133E-136
   56.9643750000000        -8.254447923143812E-136
   57.1781250000000        -1.347289309342622E-136
   57.3918750000000         1.834893418840610E-135
   57.6056250000000         5.923210268096759E-135
   57.8193750000000         1.295996981921565E-134
   58.0331250000000         2.319832288140746E-134
   58.2468750000000         3.520042909911086E-134
   58.4606250000000         4.401545892985430E-134
   58.6743750000000         3.869181534871008E-134
   58.8881250000000        -3.415715286386533E-136
   59.1018750000000        -1.025638271068410E-133
   59.3156250000000        -3.044126352678463E-133
   59.5293750000000        -6.373250873789417E-133
   59.7431250000000        -1.100238246250321E-132
   59.9568750000000        -1.609609785687944E-132
   60.1706250000000        -1.923250655860553E-132
   60.3843750000000        -1.544629806765407E-132
   60.5981250000000         3.638152017159408E-133
   60.8118750000000         4.992547110532135E-132
   61.0256250000000         1.370305212986798E-131
   61.2393750000000         2.747270192796662E-131
   61.4531250000000         4.574361997649283E-131
   61.6668750000000         6.447741379962351E-131
   61.8806250000000         7.339318654957218E-131
   62.0943750000000         5.280681142585769E-131
   62.3081250000000        -2.868198427475524E-131
   62.5218750000000        -2.131174538780271E-130
   62.7356250000000        -5.445249526263021E-130
   62.9493750000000        -1.046820498955459E-129
   63.1631250000000        -1.681828000325182E-129
   63.3768750000000        -2.283046833405762E-129
   63.5906250000000        -2.468234110195195E-129
   63.8043750000000        -1.549750710187298E-129
   64.0181250000000         1.511270156282225E-129
   64.2318750000000         8.022180786571020E-129
   64.4456250000000         1.921790289743785E-128
   64.6593750000000         3.549714545139229E-128
   64.8731250000000         5.507737455393524E-128
   65.0868750000000         7.200892972639452E-128
   65.3006250000000         7.374860360308304E-128
   65.5143750000000         3.898701945916864E-128
   65.7281250000000        -6.280311180273327E-128
   65.9418750000000        -2.676221390631850E-127
   66.1556250000000        -6.055006852946486E-127
   66.3693750000000        -1.077319204146113E-126
   66.5831250000000        -1.616688448187713E-126
   66.7968750000000        -2.037207476512129E-126
   67.0106250000000        -1.973185402763852E-126
   67.2243750000000        -8.353176886054912E-127
   67.4381250000000         2.177876338350111E-126
   67.6518750000000         7.949134482272321E-126
   67.8656250000000         1.710871365062266E-125
   68.0793750000000         2.941177768054992E-125
   68.2931250000000         4.277674533207171E-125
   68.5068750000000         5.203786097680084E-125
   68.7206250000000         4.766698295561272E-125
   68.9343750000000         1.503964979373279E-125
   69.1481250000000        -6.475389835667272E-125
   69.3618750000000        -2.110985426142548E-124
   69.5756250000000        -4.352902032283586E-124
   69.7893750000000        -7.256335425023037E-124
   70.0031250000000        -1.025722319521354E-123
   70.2168750000000        -1.208023534676649E-123
   70.4306250000000        -1.049490064490244E-123
   70.6443750000000        -2.226983053551265E-124
   70.8581250000000         1.675689001563712E-123
   71.0718750000000         5.029538364121945E-123
   71.2856250000000         1.000812707570790E-122
   71.4993750000000         1.624635773286087E-122
   71.7131250000000         2.240307271047750E-122
   71.9268750000000         2.565722763638959E-122
   72.1406250000000         2.129482536760938E-122
   72.3543750000000         2.667247794473383E-123
   72.5681250000000        -3.805431569969288E-122
   72.7818750000000        -1.077880514357559E-121
   72.9956250000000        -2.085669218204778E-121
   73.2093750000000        -3.313522325196704E-121
   73.4231250000000        -4.478983891092289E-121
   73.6368750000000        -5.020341899887381E-121
   73.8506250000000        -4.034087977396062E-121
   74.0643750000000        -2.891184637402167E-122
   74.2781250000000         7.607879964173706E-121
   74.4918750000000         2.080680650803679E-120
   74.7056250000000         3.948622768795342E-120
   74.9193750000000         6.176871290384206E-120
   75.1331250000000         8.235471524763817E-120
   75.3468750000000         9.114004318597917E-120
   75.5606250000000         7.235521311114851E-120
   75.7743750000000         5.095355500802886E-121
   75.9881250000000        -1.335778104054778E-119
   76.2018750000000        -3.616253338972728E-119
   76.4156250000000        -6.799915342884341E-119
   76.6293750000000        -1.055277623649381E-118
   76.8431250000000        -1.398664567509804E-118
   77.0568750000000        -1.545547160203378E-118
   77.2706250000000        -1.244355347621670E-118
   77.4843750000000        -1.676450513713040E-119
   77.6981250000000         2.037440181324043E-118
   77.9118750000000         5.640851806436616E-118
   78.1256250000000         1.064917928659606E-117
   78.3393750000000         1.655213392787657E-117
   78.5531250000000         2.202104834797267E-117
   78.7668750000000         2.462508796212287E-117
   78.9806250000000         2.068462755796831E-117
   79.1943750000000         5.440620469463824E-118
   79.4081250000000        -2.623235969160467E-117
   79.6218750000000        -7.832995719405590E-117
   79.8356250000000        -1.512613145176938E-116
   80.0493750000000        -2.384329275788140E-116
   80.2631250000000        -3.222086977550475E-116
   80.4768750000000        -3.700918603839076E-116
   80.6906250000000        -3.326369154317252E-116
   80.9043750000000        -1.453206827338448E-116
   81.1181250000000         2.628105132646394E-116
   81.3318750000000         9.507524057918426E-116
   81.5456250000000         1.935154975966968E-115
   81.7593750000000         3.147717296733414E-115
   81.9731250000000         4.383958815308705E-115
   82.1868750000000         5.252773374131310E-115
   82.4006250000000         5.143768543581410E-115
   82.6143750000000         3.237826961993407E-115
   82.8281250000000        -1.406355168643461E-115
   83.0418750000000        -9.653945130232045E-115
   83.2556250000000        -2.195360043294413E-114
   83.4693750000000        -3.784404041417003E-114
   83.6831250000000        -5.533457420919875E-114
   83.8968750000000        -7.024679258678712E-114
   84.1106250000000        -7.568662698724405E-114
   84.3243750000000        -6.191283768238507E-114
   84.5381250000000        -1.696323537277323E-114
   84.7518750000000         7.153505383158562E-114
   84.9656250000000         2.129522326700827E-113
   85.1793750000000         4.083539708326541E-113
   85.3931250000000         6.433462941675951E-113
   85.6068750000000         8.796661252725307E-113
   85.8206250000000         1.046955595720476E-112
   86.0343750000000         1.037255696986672E-112
   86.2481250000000         7.060091134253016E-113
   86.4618750000000        -1.154508789040065E-113
   86.6756250000000        -1.590212197067915E-112
   86.8893750000000        -3.823463797991589E-112
   87.1031250000000        -6.784150847500450E-112
   87.3168750000000        -1.020186867708775E-111
   87.5306250000000        -1.344835901170392E-111
   87.7443750000000        -1.542505542431056E-111
   87.9581250000000        -1.449404746492473E-111
   88.1718750000000        -8.508227816143885E-112
   88.3856250000000         4.985978392755768E-112
   88.5993750000000         2.828877452413716E-111
   88.8131250000000         6.274961114310434E-111
   89.0268750000000         1.075827957063250E-110
   89.2406250000000         1.583180742583213E-110
   89.4543750000000         2.050332736353206E-110
   89.6681250000000         2.307032665596093E-110
   89.8818750000000         2.102457884549077E-110
   90.0956250000000         1.111268420953268E-110
   90.3093750000000        -1.033469027221728E-110
   90.5231250000000        -4.667675128791249E-110
   90.7368750000000        -9.972116014270987E-110
   90.9506250000000        -1.679013131855937E-109
   91.1643750000000        -2.439223447927898E-109
   91.3781250000000        -3.121236951209892E-109
   91.5918750000000        -3.460953860596918E-109
   91.8056250000000        -3.074565737603609E-109
   92.0193750000000        -1.471173434447581E-109
   92.2331250000000         1.892888051702172E-109
   92.4468750000000         7.499383703371911E-109
   92.6606250000000         1.557675665316596E-108
   92.8743750000000         2.582434602955552E-108
   93.0881250000000         3.706288022830705E-108
   93.3018750000000         4.685198563903159E-108
   93.5156250000000         5.115842909919217E-108
   93.7293750000000         4.421280736535175E-108
   93.9431250000000         1.875088507077601E-108
   94.1568750000000        -3.311436889171547E-108
   94.3706250000000        -1.181241882437271E-107
   94.5843750000000        -2.389835731729544E-107
   94.7981250000000        -3.902626365760472E-107
   95.0118750000000        -5.532815844679159E-107
   95.2256250000000        -6.906233895078886E-107
   95.4393750000000        -7.415574177420673E-107
   95.6531250000000        -6.204528190777641E-107
   95.8668750000000        -2.211102226869669E-107
   96.0806250000000         5.693599400487307E-107
   96.2943750000000         1.843266416240258E-106
   96.5081250000000         3.628561353414356E-106
   96.7218750000000         5.827716796221918E-106
   96.9356250000000         8.142831727690008E-106
   97.1493750000000         9.997612083950751E-106
   97.3631250000000         1.047667774228798E-105
   97.5768750000000         8.314562272414980E-106
   97.7906250000000         1.978937963689829E-106
   98.0043750000000        -1.009847801775071E-105
   98.2181250000000        -2.908967586098895E-105
   98.4318750000000        -5.509904351727906E-105
   98.6456250000000        -8.625606494584602E-105
   98.8593750000000        -1.176490591949927E-104
   99.0731250000000        -1.402891154545828E-104
   99.2868750000000        -1.404408997874388E-104
   99.5006250000000        -9.982376139583715E-105
   99.7143750000000         2.663162425434767E-106
   99.9281250000000         1.869646405427956E-104
   100.141875000000         4.650041277558374E-104
   100.355625000000         8.306507483425827E-104
   100.569375000000         1.246977220974759E-103
   100.783125000000         1.632464373869684E-103
   100.996875000000         1.849466660212481E-103
   101.210625000000         1.700234217182611E-103
   101.424375000000         9.377381235477885E-104
   101.638125000000        -7.001592394673812E-104
   101.851875000000        -3.424929376443050E-103
   102.065625000000        -7.294764985450508E-103
   102.279375000000        -1.207690396501861E-102
   102.493125000000        -1.708863941875232E-102
   102.706875000000        -2.104793306940393E-102
   102.920625000000        -2.198572013383632E-102
   103.134375000000        -1.729382865219384E-102
   103.348125000000        -3.998823151862842E-103
   103.561875000000         2.064611588236369E-102
   103.775625000000         5.818362291935852E-102
   103.989375000000         1.075845279914344E-101
   104.203125000000         1.635982940694952E-101
   104.416875000000         2.150945555747597E-101
   104.630625000000         2.438762125970724E-101
   104.844375000000         2.246642775599008E-101
   105.058125000000         1.271306329515860E-101
   105.271875000000        -7.909733642372172E-102
   105.485625000000        -4.157247671427821E-101
   105.699375000000        -8.831763709876489E-101
   105.913125000000        -1.444881822817729E-100
   106.126875000000        -2.010738465589554E-100
   106.340625000000        -2.423915380069489E-100
   106.554375000000        -2.457195382220155E-100
   106.768125000000        -1.826747157129000E-100
   106.981875000000        -2.318491750537945E-101
   107.195625000000         2.572284318378008E-100
   107.409375000000         6.665809743651529E-100
   107.623125000000         1.182517852317636E-099
   107.836875000000         1.737161850007240E-099
   108.050625000000         2.204113625290370E-099
   108.264375000000         2.392751533023167E-099
   108.478125000000         2.056484834532751E-099
   108.691875000000         9.222829558511373E-100
   108.905625000000        -1.252123754384979E-099
   109.119375000000        -4.590322070094480E-099
   109.333125000000        -8.981984954491746E-099
   109.546875000000        -1.395361563443081E-098
   109.760625000000        -1.855137128605473E-098
   109.974375000000        -2.127625349677559E-098
   110.188125000000        -2.012448303377516E-098
   110.401875000000        -1.279221126905571E-098
   110.615625000000         2.901957636945885E-099
   110.829375000000         2.834717057181346E-098
   111.043125000000         6.324154831255542E-098
   111.256875000000         1.045566614489199E-097
   111.470625000000         1.455545092048488E-097
   111.684375000000         1.751549739231574E-097
   111.898125000000         1.780503459605731E-097
   112.111875000000         1.360190490283264E-097
   112.325625000000         3.086079858553983E-098
   112.539375000000        -1.507861330010917E-097
   112.753125000000        -4.108182589488154E-097
   112.966875000000        -7.318283530853642E-097
   113.180625000000        -1.069349805753198E-096
   113.394375000000        -1.346271732661272E-096
   113.608125000000        -1.452252427774463E-096
   113.821875000000        -1.251417546122275E-096
   114.035625000000        -6.015134175338634E-097
   114.249375000000         6.133285236808862E-097
   114.463125000000         2.436259996585043E-096
   114.676875000000         4.781398911074818E-096
   114.890625000000         7.375884662162551E-096
   115.104375000000         9.714192663132081E-096
   115.318125000000         1.104390998576208E-095
   115.531875000000         1.040577890789680E-095
   115.745625000000         6.750758718638104E-096
   115.959375000000        -8.490398906783220E-097
   116.173125000000        -1.289241141369978E-095
   116.386875000000        -2.906367171197814E-095
   116.600625000000        -4.782066584964720E-095
   116.814375000000        -6.604397241535342E-095
   117.028125000000        -7.887182756912838E-095
   117.241875000000        -7.987236678824433E-095
   117.455625000000        -6.170977049529123E-095
   117.669375000000        -1.742965872009571E-095
   117.883125000000         5.759167451036277E-095
   118.096875000000         1.631284785943292E-094
   118.310625000000         2.913076345101751E-094
   118.524375000000         4.240598065922195E-094
   118.738125000000         5.315924194681598E-094
   118.951875000000         5.728521321938382E-094
   119.165625000000         4.990133360128774E-094
   119.379375000000         2.608831586289143E-094
   119.593125000000        -1.793339894851182E-094
   119.806875000000        -8.322798077257542E-094
   120.020625000000        -1.663242294941932E-093
   120.234375000000        -2.574535639583026E-093
   120.448125000000        -3.393056179762266E-093
   120.661875000000        -3.868958092480518E-093
   120.875625000000        -3.692060839334212E-093
   121.089375000000        -2.532048778004472E-093
   121.303125000000        -1.062039637384125E-094
   121.516875000000         3.726100286270381E-093
   121.730625000000         8.849760323905964E-093
   121.944375000000         1.477759667893485E-092
   122.158125000000         2.055753153311420E-092
   122.371875000000         2.473847180492682E-092
   122.585625000000         2.543560252359596E-092
   122.799375000000         2.053468702019660E-092
   123.013125000000         8.063859166351271E-093
   123.226875000000        -1.326256262032516E-092
   123.440625000000        -4.336185655889016E-092
   123.654375000000        -8.004695256103089E-092
   123.868125000000        -1.183803989939544E-091