  -1.60312500000000         0.000000000000000E+000
  -1.38937500000000         0.000000000000000E+000
  -1.17562500000000         0.000000000000000E+000
 -0.961875000000000         0.000000000000000E+000
 -0.748125000000000         0.000000000000000E+000
 -0.534375000000000         0.000000000000000E+000
 -0.320625000000000         0.000000000000000E+000
 -0.106875000000000         0.000000000000000E+000
  0.106875000000000         0.000000000000000E+000
  0.320625000000000         0.000000000000000E+000
  0.534375000000000         0.000000000000000E+000
  0.748125000000000         0.000000000000000E+000
  0.961875000000000         0.000000000000000E+000
   1.17562500000000         0.000000000000000E+000
   1.38937500000000         0.000000000000000E+000
   1.60312500000000         0.000000000000000E+000
   1.81687500000000         0.000000000000000E+000
   2.03062500000000         0.000000000000000E+000
   2.24437500000000         0.000000000000000E+000
   2.45812500000000         0.000000000000000E+000
   2.67187500000000         0.000000000000000E+000
   2.88562500000000         0.000000000000000E+000
   3.09937500000000         0.000000000000000E+000
   3.31312500000000         0.000000000000000E+000
   3.52687500000000         0.000000000000000E+000
   3.74062500000000         0.000000000000000E+000
   3.95437500000000         0.000000000000000E+000
   4.16812500000000         0.000000000000000E+000
   4.38187500000000         0.000000000000000E+000
   4.59562500000000         0.000000000000000E+000
   4.80937500000000         0.000000000000000E+000
   5.02312500000000         0.000000000000000E+000
   5.23687500000000         0.000000000000000E+000
   5.45062500000000         0.000000000000000E+000
   5.66437500000000         0.000000000000000E+000
   5.87812500000000         0.000000000000000E+000
   6.09187500000000         0.000000000000000E+000
   6.30562500000000         0.000000000000000E+000
   6.51937500000000         0.000000000000000E+000
   6.73312500000000         0.000000000000000E+000
   6.94687500000000         0.000000000000000E+000
   7.16062500000000         0.000000000000000E+000
   7.37437500000000         0.000000000000000E+000
   7.58812500000000         0.000000000000000E+000
   7.80187500000000         0.000000000000000E+000
   8.01562500000000         0.000000000000000E+000
   8.22937500000000         0.000000000000000E+000
   8.44312500000000         0.000000000000000E+000
   8.65687500000000         0.000000000000000E+000
   8.87062500000000         0.000000000000000E+000
   9.08437500000000         0.000000000000000E+000
   9.29812500000000         0.000000000000000E+000
   9.51187500000000         0.000000000000000E+000
   9.72562500000000         0.000000000000000E+000
   9.93937500000000         0.000000000000000E+000
   10.1531250000000         0.000000000000000E+000
   10.3668750000000         0.000000000000000E+000
   10.5806250000000         0.000000000000000E+000
   10.7943750000000         0.000000000000000E+000
   11.0081250000000         0.000000000000000E+000
   11.2218750000000         0.000000000000000E+000
   11.4356250000000         3.014442144824789E-254
   11.6493750000000        -2.634912168547753E-246
   11.8631250000000        -1.876478356365592E-242
   12.0768750000000         2.070409654455451E-237
   12.2906250000000         5.335752709208390E-235
   12.5043750000000         5.112102229210050E-233
   12.7181250000000         3.010706713725213E-231
   12.9318750000000         1.254979884636242E-229
   13.1456250000000         3.960180926047512E-228
   13.3593750000000         9.887161089482567E-227
   13.5731250000000         2.018211326147084E-225
   13.7868750000000         3.464065284436180E-224
   14.0006250000000         5.002257715343651E-223
   14.2143750000000         6.681480998045385E-222
   14.4281250000000         1.331617991325228E-220
   14.6418750000000         4.177258561696804E-219
   14.8556250000000         1.232864259064947E-217
   15.0693750000000         2.944830447288842E-216
   15.2831250000000         5.636510251001108E-215
   15.4968750000000         8.086704211324615E-214
   15.7106250000000         5.857499082722877E-213
   15.9243750000000        -1.019381029599591E-211
   16.1381250000000        -5.219918810926622E-210
   16.3518750000000        -1.289130897489368E-208
   16.5656250000000        -2.375159710029755E-207
   16.7793750000000        -3.596698952853836E-206
   16.9931250000000        -4.661748115351544E-205
   17.2068750000000        -5.286366869877005E-204
   17.4206250000000        -5.314605113629692E-203
   17.6343750000000        -4.774107782599948E-202
   17.8481250000000        -3.845128506030729E-201
   18.0618750000000        -2.772645217406480E-200
   18.2756250000000        -1.774260028878494E-199
   18.4893750000000        -9.841850985551410E-199
   18.7031250000000        -4.441161777586890E-198
   18.9168750000000        -1.274183784381199E-197
   19.1306250000000         2.545785596174143E-197
   19.3443750000000         7.745619437259455E-196
   19.5581250000000         7.836934637184227E-195
   19.7718750000000         6.019662261354547E-194
   19.9856250000000         3.969373826499871E-193
   20.1993750000000         2.346581246278179E-192
   20.4131250000000         1.268987096532694E-191
   20.6268750000000         6.343266743408535E-191
   20.8406250000000         2.946179125544099E-190
   21.0543750000000         1.273415875746582E-189
   21.2681250000000         5.112445326085222E-189
   21.4818750000000         1.894474116348860E-188
   21.6956250000000         6.390351234075222E-188
   21.9093750000000         1.903563862550612E-187
   22.1231250000000         4.628437375141774E-187
   22.3368750000000         6.572674103552132E-187
   22.5506250000000        -1.593659480624779E-186
   22.7643750000000        -1.941430552464410E-185
   22.9781250000000        -1.110352927086909E-184
   23.1918750000000        -5.021398295139908E-184
   23.4056250000000        -1.980389532671664E-183
   23.6193750000000        -7.046395696287208E-183
   23.8331250000000        -2.290528191006856E-182
   24.0468750000000        -6.809797566990073E-182
   24.2606250000000        -1.834009535305130E-181
   24.4743750000000        -4.354916596482115E-181
   24.6881250000000        -8.473715242126563E-181
   24.9018750000000        -1.001875105579211E-180
   25.1156250000000         1.475880725266614E-180
   25.3293750000000         1.565514137539832E-179
   25.5431250000000         6.977885262403181E-179
   25.7568750000000         2.380578525455557E-178
   25.9706250000000         6.790273752116401E-178
   26.1843750000000         1.615303094263132E-177
   26.3981250000000         2.897602641292643E-177
   26.6118750000000         1.797397379043936E-177
   26.8256250000000        -1.539886239888995E-176
   27.0393750000000        -1.010288337738469E-175
   27.2531250000000        -4.282245468553998E-175
   27.4668750000000        -1.516246174587080E-174
   27.6806250000000        -4.805512375992587E-174
   27.8943750000000        -1.402607327829174E-173
   28.1081250000000        -3.822314699605885E-173
   28.3218750000000        -9.789755195778664E-173
   28.5356250000000        -2.361302796063294E-172
   28.7493750000000        -5.353121725090536E-172
   28.9631250000000        -1.132718279916871E-171
   29.1768750000000        -2.203077918453592E-171
   29.3906250000000        -3.806730788067144E-171
   29.6043750000000        -5.331811602221083E-171
   29.8181250000000        -3.881755206763367E-171
   30.0318750000000         9.803602478937218E-171
   30.2456250000000         6.070522672426619E-170
   30.4593750000000         2.092478497471151E-169
   30.6731250000000         5.895425998727889E-169
   30.8868750000000         1.476962934776415E-168
   31.1006250000000         3.394146461917089E-168
   31.3143750000000         7.248682775894605E-168
   31.5281250000000         1.444586165892512E-167
   31.7418750000000         2.680073915501776E-167
   31.9556250000000         4.583268831392604E-167
   32.1693750000000         7.059954785541194E-167
   32.3831250000000         9.257131801388848E-167
   32.5968750000000         8.517923286127722E-167
   32.8106250000000        -1.523724211622839E-167
   33.0243750000000        -3.410376265580743E-166
   33.2381250000000        -1.141663149670299E-165
   33.4518750000000        -2.853599333152494E-165
   33.6656250000000        -6.200616683576996E-165
   33.8793750000000        -1.234663721534426E-164
   34.0931250000000        -2.315424486810281E-164
   34.3068750000000        -4.164208304414794E-164
   34.5206250000000        -7.271645469576518E-164
   34.7343750000000        -1.239517463566881E-163
   34.9481250000000        -2.050794493805390E-163
   35.1618750000000        -3.219589306573284E-163
   35.3756250000000        -4.549777311183027E-163
   35.5893750000000        -5.029724950431575E-163
   35.8031250000000        -1.665019335969447E-163
   36.0168750000000         1.244496761561358E-162
   36.2306250000000         5.023649031445146E-162
   36.4443750000000         1.304612092581499E-161
   36.6581250000000         2.684157802424410E-161
   36.8718750000000         4.447522404272508E-161
   37.0856250000000         5.354128887213935E-161
   37.2993750000000         1.983624669069393E-161
   37.5131250000000        -1.221665802913637E-160
   37.7268750000000        -4.520084527428935E-160
   37.9406250000000        -9.521442061433141E-160
   38.1543750000000        -1.161548505725387E-159
   38.3681250000000         6.459806397355851E-160
   38.5818750000000         9.051529158395655E-159
   38.7956250000000         3.393223415140341E-158
   39.0093750000000         9.286716232088608E-158
   39.2231250000000         2.099508965956513E-157
   39.4368750000000         4.016662995000488E-157
   39.6506250000000         6.300799230191295E-157
   39.8643750000000         6.887283036172282E-157
   40.0781250000000        -2.718980309577083E-158
   40.2918750000000        -2.908239710230531E-156
   40.5056250000000        -1.064591400195672E-155
   40.7193750000000        -2.762191938520099E-155
   40.9331250000000        -5.940589163277420E-155
   41.1468750000000        -1.096330353643845E-154
   41.3606250000000        -1.710382665397196E-154
   41.5743750000000        -2.056687667523730E-154
   41.7881250000000        -1.084512569587532E-154
   42.0018750000000         3.486983272850664E-154
   42.2156250000000         1.582325824962886E-153
   42.4293750000000         4.230641885013840E-153
   42.6431250000000         9.049461511685505E-153
   42.8568750000000         1.646260611651219E-152
   43.0706250000000         2.542541172371921E-152
   43.2843750000000         3.115778135732912E-152
   43.4981250000000         2.139458404467251E-152
   43.7118750000000        -2.858358614595554E-152
   43.9256250000000        -1.601921904813915E-151
   44.1393750000000        -4.296542054193456E-151
   44.3531250000000        -8.888247084066606E-151
   44.5668750000000        -1.530068384286867E-150
   44.7806250000000        -2.170732024407820E-150
   44.9943750000000        -2.258086826129577E-150
   45.2081250000000        -6.115056249794046E-151
   45.4218750000000         4.782249600764529E-150
   45.6356250000000         1.659909629730324E-149
   45.8493750000000         3.696436444386939E-149
   46.0631250000000         6.406664927710303E-149
   46.2768750000000         8.510236454063083E-149
   46.4906250000000         6.437791509334502E-149
   46.7043750000000        -7.229944858092217E-149
   46.9181250000000        -4.492148188190441E-148
   47.1318750000000        -1.226301767752051E-147
   47.3456250000000        -2.510985067583897E-147
   47.5593750000000        -4.110726444540719E-147
   47.7731250000000        -4.999757805720108E-147
   47.9868750000000        -2.363339792275258E-147
   48.2006250000000         9.814116128325606E-147
   48.4143750000000         4.227149986079073E-146
   48.6281250000000         1.108309906713646E-145
   48.8418750000000         2.324773883663306E-145
   49.0556250000000         4.109393710326333E-145
   49.2693750000000         6.012924622400452E-145
   49.4831250000000         6.390721069048249E-145
   49.6968750000000         1.199048585214984E-145
   49.9106250000000        -1.769514772288785E-144
   50.1243750000000        -6.420945329450258E-144
   50.3381250000000        -1.581801118150977E-143
   50.5518750000000        -3.203157865153055E-143
   50.7656250000000        -5.550678377787335E-143
   50.9793750000000        -8.102723767268473E-143
   51.1931250000000        -8.989256051868263E-143
   51.4068750000000        -3.703793708795809E-143
   51.6206250000000         1.664619190124412E-142
   51.8343750000000         6.701153090282056E-142
   52.0481250000000         1.683902178435278E-141
   52.2618750000000         3.426118914847293E-141
   52.4756250000000         5.955111654341540E-141
   52.6893750000000         8.786652992470445E-141
   52.9031250000000         1.017682205442336E-140
   53.1168750000000         5.983195775799589E-141
   53.3306250000000        -1.181309884964091E-140
   53.5443750000000        -5.640336139985899E-140
   53.7581250000000        -1.458635335302059E-139
   53.9718750000000        -2.984018317395989E-139
   54.1856250000000        -5.181999137986849E-139
   54.3993750000000        -7.647646248624482E-139
   54.6131250000000        -8.979952715518203E-139
   54.8268750000000        -5.951168408602966E-139
   55.0406250000000         7.501079987451106E-139
   55.2543750000000         4.102636151956383E-138
   55.4681250000000         1.073181708696369E-137
   55.6818750000000         2.182911135839983E-137
   55.8956250000000         3.748089514591207E-137
   56.1093750000000         5.458006690263502E-137
   56.3231250000000         6.328671898645883E-137
   56.5368750000000         4.200359108452239E-137
   56.7506250000000        -4.816221085876049E-137
   56.9643750000000        -2.664085089725727E-136
   57.1781250000000        -6.861628488110684E-136
   57.3918750000000        -1.368406222453192E-135
   57.6056250000000        -2.297460768559201E-135
   57.8193750000000        -3.259406700898265E-135
   58.0331250000000        -3.649134317556131E-135
   58.2468750000000        -2.217209341287498E-135
   58.4606250000000         3.172803112994669E-135
   58.6743750000000         1.559575010968231E-134
   58.8881250000000         3.857417398225778E-134
   59.1018750000000         7.448032537468858E-134
   59.3156250000000         1.210772730017734E-133
   59.5293750000000         1.654475405424128E-133
   59.7431250000000         1.750521787922646E-133
   59.9568750000000         8.710881410268854E-134
   60.1706250000000        -1.995606273007346E-133
   60.3843750000000        -8.211068778242141E-133
   60.5981250000000        -1.917653475146257E-132
   60.8118750000000        -3.551236225206280E-132
   61.0256250000000        -5.544916132192975E-132
   61.2393750000000        -7.221752659235394E-132
   61.4531250000000        -7.051754754410578E-132
   61.6668750000000        -2.283782464148736E-132
   61.8806250000000         1.123551519770772E-131
   62.0943750000000         3.866470332404233E-131
   62.3081250000000         8.456854814440019E-131
   62.5218750000000         1.492912824717799E-130
   62.7356250000000         2.224716433846968E-130
   62.9493750000000         2.733496256282844E-130
   63.1631250000000         2.388966715496239E-130
   63.3768750000000         1.356575767229399E-131
   63.5906250000000        -5.510351914557021E-130
   63.8043750000000        -1.622136887991694E-129
   64.0181250000000        -3.316618099658908E-129
   64.2318750000000        -5.562220595839255E-129
   64.4456250000000        -7.870118354905866E-129
   64.6593750000000        -9.023372211990289E-129
   64.8731250000000        -6.739405632683514E-129
   65.0868750000000         2.540663906796179E-129
   65.3006250000000         2.344400597891124E-128
   65.5143750000000         6.058123330009676E-128
   65.7281250000000         1.159877556526241E-127
   65.9418750000000         1.844956770988989E-127
   66.1556250000000         2.467677531183822E-127
   66.3693750000000         2.606318499239307E-127
   66.5831250000000         1.531154540479838E-127
   66.7968750000000        -1.816303089931882E-127
   67.0106250000000        -8.696559152440841E-127
   67.2243750000000        -2.017176380427389E-126
   67.4381250000000        -3.628605525409190E-126
   67.6518750000000        -5.471257728579615E-126
   67.8656250000000        -6.888458780878537E-126
   68.0793750000000        -6.591760646816646E-126
   68.2931250000000        -2.512693484974609E-126
   68.5068750000000         8.134463358437310E-126
   68.7206250000000         2.834474927018088E-125
   68.9343750000000         6.006857185560245E-125
   69.1481250000000         1.019134372760152E-124
   69.3618750000000         1.456585203397887E-124
   69.5756250000000         1.718563751249717E-124
   69.7893750000000         1.455849969875366E-124
   70.0031250000000         1.463262382622894E-125
   70.2168750000000        -2.860361618070524E-124
   70.4306250000000        -8.181233892525860E-124
   70.6443750000000        -1.605950037901504E-123
   70.8581250000000        -2.579592441847063E-123
   71.0718750000000        -3.495427860935706E-123
   71.2856250000000        -3.845402356159956E-123
   71.4993750000000        -2.784975391900651E-123
   71.7131250000000         8.642189170347311E-124
   71.9268750000000         8.451174104607332E-123
   72.1406250000000         2.106224273846560E-122
   72.3543750000000         3.870860202821355E-122
   72.5681250000000         5.907674034630695E-122
   72.7818750000000         7.592068146707017E-122
   72.9956250000000         7.742845614630267E-122
   73.2093750000000         4.528110576890042E-122
   73.4231250000000        -4.438915515271385E-122
   73.6368750000000        -2.164523541919455E-121
   73.8506250000000        -4.867036003910319E-121
   74.0643750000000        -8.446544893245701E-121
   74.2781250000000        -1.229020728601375E-120
   74.4918750000000        -1.498789325707871E-120
   74.7056250000000        -1.407829281250254E-120
   74.9193750000000        -5.980446987667777E-121
   75.1331250000000         1.365943218488778E-120
   75.3468750000000         4.891131460399061E-120
   75.5606250000000         1.014949196933747E-119
   75.7743750000000         1.675217728378079E-119
   75.9881250000000         2.331839747642994E-119
   76.2018750000000         2.701219387385331E-119
   76.4156250000000         2.321014815270317E-119
   76.6293750000000         5.576479882475057E-120
   76.8431250000000        -3.306466604216417E-119
   77.0568750000000        -9.860420822959821E-119
   77.2706250000000        -1.918722110705782E-118
   77.4843750000000        -3.030931161491592E-118
   77.6981250000000        -4.050642603093831E-118
   77.9118750000000        -4.465668779721488E-118
   78.1256250000000        -3.489293497789962E-118
   78.3393750000000        -1.027969045166572E-119
   78.5531250000000         6.766042040385297E-118
   78.7668750000000         1.786603383219199E-117
   78.9806250000000         3.300321733469236E-117
   79.1943750000000         5.018871737861951E-117
   79.4081250000000         6.466499616763669E-117
   79.6218750000000         6.807639376212221E-117
   79.8356250000000         4.824737492104744E-117
   80.0493750000000        -9.764685189019438E-118
   80.2631250000000        -1.205396133815684E-116
   80.4768750000000        -2.923323427005398E-116
   80.6906250000000        -5.179054129355657E-116
   80.9043750000000        -7.626607574023510E-116
   81.1181250000000        -9.520686618750525E-116
   81.3318750000000        -9.624940489565893E-116
   81.5456250000000        -6.219896492156679E-116
   81.7593750000000         2.701342516246416E-116
   81.9731250000000         1.895184262013317E-115
   82.1868750000000         4.330413959895483E-115
   82.4006250000000         7.426149548488297E-115
   82.6143750000000         1.065557779184871E-114
   82.8281250000000         1.296762006463134E-114
   83.0418750000000         1.269889259500210E-114
   83.2556250000000         7.628287394555283E-115
   83.4693750000000        -4.721028818457089E-115
   83.6831250000000        -2.642536255588867E-114
   83.8968750000000        -5.807733992086981E-114
   84.1106250000000        -9.729197772288868E-114
   84.3243750000000        -1.369758231838064E-113
   84.5381250000000        -1.637616659424697E-113
   84.7518750000000        -1.572897955247319E-113
   84.9656250000000        -9.128941548460321E-114
   85.1793750000000         6.241799549616630E-114
   85.3931250000000         3.259498218342729E-113
   85.6068750000000         7.028800320535380E-113
   85.8206250000000         1.161773175689477E-112
   86.0343750000000         1.618021280459257E-112
   86.2481250000000         1.918651704026118E-112
   86.4618750000000         1.837474234704388E-112
   86.6756250000000         1.090308688735676E-112
   86.8893750000000        -6.189500525509228E-113
   87.1031250000000        -3.512376602003236E-112
   87.3168750000000        -7.609035506379068E-112
   87.5306250000000        -1.256121774208814E-111
   87.7443750000000        -1.748135592309044E-111
   87.9581250000000        -2.080696091866619E-111
   88.1718750000000        -2.027392862383078E-111
   88.3856250000000        -1.308628841436343E-111
   88.5993750000000         3.626374541343411E-112
   88.8131250000000         3.199521225002818E-111
   89.0268750000000         7.223289241571502E-111
   89.2406250000000         1.211829200757781E-110
   89.4543750000000         1.708372726824951E-110
   89.6681250000000         2.072348753629564E-110
   89.8818750000000         2.103195719320183E-110
   90.0956250000000         1.554422618749365E-110
   90.3093750000000         1.716814393675058E-111
   90.5231250000000        -2.241782131461939E-110
   90.7368750000000        -5.732903031256263E-110
   90.9506250000000        -1.008816668977393E-109
   91.1643750000000        -1.472301570930106E-109
   91.3781250000000        -1.860058971282099E-109
   91.5918750000000        -2.021811887746523E-109
   91.8056250000000        -1.770294987059135E-109
   92.0193750000000        -9.054599358207735E-110
   92.2331250000000         7.448779302727450E-110
   92.4468750000000         3.269265184504653E-109
   92.6606250000000         6.607272134625490E-109
   92.8743750000000         1.048477532426619E-108
   93.0881250000000         1.436382272440309E-108
   93.3018750000000         1.742245116024961E-108
   93.5156250000000         1.857742850359473E-108
   93.7293750000000         1.655600053284997E-108
   93.9431250000000         1.001219547731654E-108
   94.1568750000000        -2.327755119265825E-109
   94.3706250000000        -2.151197288842580E-108
   94.5843750000000        -4.821497505221251E-108
   94.7981250000000        -8.257986625404983E-108
   95.0118750000000        -1.239808109088498E-107
   95.2256250000000        -1.705603152666979E-107
   95.4393750000000        -2.183192734389564E-107
   95.6531250000000        -2.595014327101969E-107
   95.8668750000000        -2.800823197109803E-107
   96.0806250000000        -2.564277041691954E-107
   96.2943750000000        -1.517102602466683E-107
   96.5081250000000         8.648622939131356E-108
   96.7218750000000         5.248227349022375E-107
   96.9356250000000         1.235343647015620E-106
   97.1493750000000         2.274383813395518E-106
   97.3631250000000         3.644520463833566E-106
   97.5768750000000         5.236645433370445E-106
   97.7906250000000         6.753853423699436E-106
   98.0043750000000         7.627189738315466E-106
   98.2181250000000         6.945767123985983E-106
   98.4318750000000         3.439649273793160E-106
   98.6456250000000        -4.429261832071483E-106
   98.8593750000000        -1.820021452859121E-105
   99.0731250000000        -3.890118530333425E-105
   99.2868750000000        -6.624274816900196E-105
   99.5006250000000        -9.752502650276933E-105
   99.7143750000000        -1.263645513965693E-104
   99.9281250000000        -1.414982145750509E-104
   100.141875000000        -1.261159757346345E-104
   100.355625000000        -5.838727248577794E-105
   100.569375000000         8.597367385403464E-105
   100.783125000000         3.281949589273604E-104
   100.996875000000         6.772462334271368E-104
   101.210625000000         1.116746573742220E-103
   101.424375000000         1.588815245582281E-103
   101.638125000000         1.977323722449073E-103
   101.851875000000         2.095192049548500E-103
   102.065625000000         1.682900872752481E-103
   102.279375000000         4.277678201854708E-104
   102.493125000000        -1.985077737918651E-103
   102.706875000000        -5.779901711398915E-103
   102.920625000000        -1.095014602219634E-102
   103.134375000000        -1.707495001842516E-102
   103.348125000000        -2.311283308622365E-102
   103.561875000000        -2.721591592735857E-102
   103.775625000000        -2.663611118163943E-102
   103.989375000000        -1.782347708675889E-102
   104.203125000000         3.161614399994162E-103
   104.416875000000         3.979875435967510E-102
   104.630625000000         9.372939899452715E-102
   104.844375000000         1.628448253599839E-101
   105.058125000000         2.389872634664603E-101
   105.271875000000         3.056382043954776E-101
   105.485625000000         3.362588757893670E-101
   105.699375000000         2.942662765355015E-101
   105.913125000000         1.359012447424708E-101
   106.126875000000        -1.826417356823902E-101
   106.340625000000        -6.926539888265477E-101
   106.554375000000        -1.394444965588728E-100
   106.768125000000        -2.233842905867332E-100
   106.981875000000        -3.076650129805111E-100
   107.195625000000        -3.686861317529694E-100
   107.409375000000        -3.717696163068132E-100
   107.623125000000        -2.727534348103157E-100
   107.836875000000        -2.346411613808357E-101
   108.050625000000         4.176291114787271E-100
   108.264375000000         1.068798896101838E-099
   108.478125000000         1.902830800645164E-099
   108.691875000000         2.821376909282847E-099
   108.905625000000         3.630650754570752E-099
   109.119375000000         4.026283489084361E-099
   109.333125000000         3.598208273206664E-099
   109.546875000000         1.868598406258988E-099
   109.760625000000        -1.624088499854648E-099
   109.974375000000        -7.185532206644671E-099
   110.188125000000        -1.476984276067902E-098
   110.401875000000        -2.374235682887407E-098
   110.615625000000        -3.263740497694089E-098
   110.829375000000        -3.897447411525805E-098
   111.043125000000        -3.922431822020365E-098
   111.256875000000        -2.903886934393806E-098
   111.470625000000        -3.865073892042568E-099
   111.684375000000         3.995970962963291E-098
   111.898125000000         1.035978379151374E-097
   112.111875000000         1.836720619751071E-097
   112.325625000000         2.700567325611808E-097
   112.539375000000         3.439821853213813E-097
   112.753125000000         3.771768288166718E-097
   112.966875000000         3.329796776115193E-097
   113.180625000000         1.704517670545448E-097
   113.394375000000        -1.476026359731719E-097
   113.608125000000        -6.422344609894786E-097
   113.821875000000        -1.301955298208089E-096
   114.035625000000        -2.064057651037807E-096
   114.249375000000        -2.797090696692977E-096
   114.463125000000        -3.289885578222600E-096
   114.676875000000        -3.254322421837595E-096
   114.890625000000        -2.350097720816935E-096
   115.104375000000        -2.393317989467400E-097
   115.318125000000         3.323892696456204E-096
   115.531875000000         8.369819321949971E-096
   115.745625000000         1.456528763786968E-095
   115.959375000000         2.106488422588141E-095
   116.173125000000         2.639877396688072E-095
   116.386875000000         2.844955477179637E-095
   116.600625000000         2.458067990941949E-095
   116.814375000000         1.197949410131900E-095
   117.028125000000        -1.173745499988487E-095
   117.241875000000        -4.764637942833386E-095
   117.455625000000        -9.441808912190372E-095
   117.669375000000        -1.471410796055434E-094
   117.883125000000        -1.963149825263772E-094
   118.096875000000        -2.273744908109367E-094
   118.310625000000        -2.211920133665581E-094
   118.524375000000        -1.560363950312667E-094
   118.738125000000        -1.139180834397091E-095
   118.951875000000         2.261782465636320E-094
   119.165625000000         5.553352949436221E-094
   119.379375000000         9.512380962085833E-094
   119.593125000000         1.357322523255334E-093
   119.806875000000         1.679931826010461E-093
   120.020625000000         1.788843733168836E-093
   120.234375000000         1.527112332602553E-093
   120.448125000000         7.333930751926164E-094
   120.661875000000        -7.212574859940687E-094
   120.875625000000        -2.882477554470356E-093
   121.089375000000        -5.651627788707125E-093
   121.303125000000        -8.723626190406927E-093
   121.516875000000        -1.153798462248358E-092
   121.730625000000        -1.326269506682583E-092
   121.944375000000        -1.283417303804426E-092
   122.158125000000        -9.076485992272160E-093
   122.371875000000        -9.175234907896718E-094
   122.585625000000         1.229328124854042E-092
   122.799375000000         3.038275855607699E-092
   123.013125000000         5.191450993528338E-092
   123.226875000000         7.379539002131088E-092
   123.440625000000         9.104816104333225E-092
   123.654375000000         9.689993334421280E-092
   123.868125000000         8.334664980500790E-092