  -1.60312500000000         0.000000000000000E+000
  -1.38937500000000        -2.378378688243109E-012
  -1.17562500000000        -1.661435542449697E-011
 -0.961875000000000        -7.941642958345063E-011
 -0.748125000000000        -3.061005215196447E-010
 -0.534375000000000        -9.907244292577427E-010
 -0.320625000000000        -2.740838879143951E-009
 -0.106875000000000        -6.574305446086148E-009
  0.106875000000000        -1.386912212348844E-008
  0.320625000000000        -2.612029240750912E-008
  0.534375000000000        -4.460299568790477E-008
  0.748125000000000        -7.012451523630472E-008
  0.961875000000000        -1.029121153626257E-007
   1.17562500000000        -1.427161362149391E-007
   1.38937500000000        -1.889828201609430E-007
   1.60312500000000        -2.408069225012227E-007
   1.81687500000000        -2.970316651527780E-007
   2.03062500000000        -3.563031831223877E-007
   2.24437500000000        -4.159624159865444E-007
   2.45812500000000        -4.770511718749096E-007
   2.67187500000000        -5.352131251538112E-007
   2.88562500000000        -5.926895210374376E-007
   3.09937500000000        -6.459616417806846E-007
   3.31312500000000        -6.937578240316242E-007
   3.52687500000000        -7.354203416751758E-007
   3.74062500000000        -7.701436437424166E-007
   3.95437500000000        -7.975771050108115E-007
   4.16812500000000        -8.172828289965891E-007
   4.38187500000000        -8.287738127616538E-007
   4.59562500000000        -8.322590166493230E-007
   4.80937500000000        -8.281044890346629E-007
   5.02312500000000        -8.179343662521675E-007
   5.23687500000000        -8.017872262737007E-007
   5.45062500000000        -7.812116464402796E-007
   5.66437500000000        -7.579719332614100E-007
   5.87812500000000        -7.341650680846560E-007
   6.09187500000000        -7.121347728051347E-007
   6.30562500000000        -6.940627731639904E-007
   6.51937500000000        -6.824475562129452E-007
   6.73312500000000        -6.807566587677937E-007
   6.94687500000000        -6.863678543881464E-007
   7.16062500000000        -7.045725377000685E-007
   7.37437500000000        -7.340036793024966E-007
   7.58812500000000        -7.731525984953838E-007
   7.80187500000000        -8.198013857254952E-007
   8.01562500000000        -8.707667257947487E-007
   8.22937500000000        -9.222196310300157E-007
   8.44312500000000        -9.700301681424015E-007
   8.65687500000000        -1.009940305280679E-006
   8.87062500000000        -1.038046475367668E-006
   9.08437500000000        -1.051808417001105E-006
   9.29812500000000        -1.048649901436267E-006
   9.51187500000000        -1.028659804058881E-006
   9.72562500000000        -9.910565684567948E-007
   9.93937500000000        -9.387303862555709E-007
   10.1531250000000        -8.744941906307977E-007
   10.3668750000000        -8.019485114503272E-007
   10.5806250000000        -7.251767154432436E-007
   10.7943750000000        -6.483727131538309E-007
   11.0081250000000        -5.754193379787807E-007
   11.2218750000000        -5.131138048069868E-007
   11.4356250000000        -4.557941482475129E-007
   11.6493750000000        -4.153922202406363E-007
   11.8631250000000        -3.790433590528865E-007
   12.0768750000000        -3.622906762715792E-007
   12.2906250000000        -3.473566938017093E-007
   12.5043750000000        -3.485633011251129E-007
   12.7181250000000        -3.486318543377382E-007
   12.9318750000000        -3.586347285020201E-007
   13.1456250000000        -3.672559970063052E-007
   13.3593750000000        -3.803637867745170E-007
   13.5731250000000        -3.937680349987365E-007
   13.7868750000000        -4.072373830628764E-007
   14.0006250000000        -4.200516780257723E-007
   14.2143750000000        -4.316067086720713E-007
   14.4281250000000        -4.415305114045803E-007
   14.6418750000000        -4.495492545725567E-007
   14.8556250000000        -4.555863755815795E-007
   15.0693750000000        -4.599323271270108E-007
   15.2831250000000        -4.622246725029449E-007
   15.4968750000000        -4.614970109241667E-007
   15.7106250000000        -4.601298590892770E-007
   15.9243750000000        -4.560313291210756E-007
   16.1381250000000        -4.493957098813751E-007
   16.3518750000000        -4.400612187791597E-007
   16.5656250000000        -4.290755498873211E-007
   16.7793750000000        -4.163820029901507E-007
   16.9931250000000        -4.014584794395792E-007
   17.2068750000000        -3.850102732498762E-007
   17.4206250000000        -3.640472238243244E-007
   17.6343750000000        -3.417528027193565E-007
   17.8481250000000        -3.258580584582288E-007
   18.0618750000000        -3.042680707889827E-007
   18.2756250000000        -2.922283546879460E-007
   18.4893750000000        -2.726731123502398E-007
   18.7031250000000        -2.589371687556819E-007
   18.9168750000000        -2.406199671279812E-007
   19.1306250000000        -2.220093057762211E-007
   19.3443750000000        -2.012450189334528E-007
   19.5581250000000        -1.780807498391158E-007
   19.7718750000000        -1.534368721601473E-007
   19.9856250000000        -1.287603332884748E-007
   20.1993750000000        -1.054686868988609E-007
   20.4131250000000        -8.547485770806495E-008
   20.6268750000000        -7.067450780534536E-008
   20.8406250000000        -6.342471117399395E-008
   21.0543750000000        -6.514707512757848E-008
   21.2681250000000        -7.685325517202320E-008
   21.4818750000000        -9.870364536191865E-008
   21.6956250000000        -1.318380019919254E-007
   21.9093750000000        -1.749900280679733E-007
   22.1231250000000        -2.264582286287171E-007
   22.3368750000000        -2.840250360851962E-007
   22.5506250000000        -3.451307679809319E-007
   22.7643750000000        -4.069388894583406E-007
   22.9781250000000        -4.664396110584309E-007
   23.1918750000000        -5.212000262622308E-007
   23.4056250000000        -5.695464714216126E-007
   23.6193750000000        -6.105805338596501E-007
   23.8331250000000        -6.437308526180890E-007
   24.0468750000000        -6.695322986018755E-007
   24.2606250000000        -6.886336848010665E-007
   24.4743750000000        -7.018157173590404E-007
   24.6881250000000        -7.096624211761386E-007
   24.9018750000000        -7.130092618879755E-007
   25.1156250000000        -7.129547857225035E-007
   25.3293750000000        -7.102211944403198E-007
   25.5431250000000        -7.030631980849266E-007
   25.7568750000000        -6.940210056873649E-007
   25.9706250000000        -6.840154674489256E-007
   26.1843750000000        -6.760467627656243E-007
   26.3981250000000        -6.562416664277205E-007
   26.6118750000000        -6.432035296341992E-007
   26.8256250000000        -6.175281651092730E-007
   27.0393750000000        -5.995798700193908E-007
   27.2531250000000        -5.721209679671707E-007
   27.4668750000000        -5.480560750096072E-007
   27.6806250000000        -5.262271056999095E-007
   27.8943750000000        -5.069106887776259E-007
   28.1081250000000        -4.901345764084055E-007
   28.3218750000000        -4.767790580753013E-007
   28.5356250000000        -4.659030855848270E-007
   28.7493750000000        -4.565578085625298E-007
   28.9631250000000        -4.476562075185808E-007
   29.1768750000000        -4.375495271352484E-007
   29.3906250000000        -4.248056975370841E-007
   29.6043750000000        -4.083793327549736E-007
   29.8181250000000        -3.878844320412451E-007
   30.0318750000000        -3.629057009349141E-007
   30.2456250000000        -3.321663684197113E-007
   30.4593750000000        -2.977560880089996E-007
   30.6731250000000        -2.597705954605771E-007
   30.8868750000000        -2.191668660105301E-007
   31.1006250000000        -1.770739575186247E-007
   31.3143750000000        -1.346119383681545E-007
   31.5281250000000        -9.272070545640376E-008
   31.7418750000000        -5.206908699469231E-008
   31.9556250000000        -1.299947523001283E-008
   32.1693750000000         2.444994947983067E-008
   32.3831250000000         6.048287081090136E-008
   32.5968750000000         9.511593523317425E-008
   32.8106250000000         1.293876163546955E-007
   33.0243750000000         1.630982967865605E-007
   33.2381250000000         1.962077970686877E-007
   33.4518750000000         2.281867182205527E-007
   33.6656250000000         2.580575710505211E-007
   33.8793750000000         2.844855233602328E-007
   34.0931250000000         3.058090026152696E-007
   34.3068750000000         3.199468192944806E-007
   34.5206250000000         3.249649067996791E-007
   34.7343750000000         3.201954890821902E-007
   34.9481250000000         3.041008167956280E-007
   35.1618750000000         2.765819024518089E-007
   35.3756250000000         2.376039928706528E-007
   35.5893750000000         1.888779435486157E-007
   35.8031250000000         1.323323038927354E-007
   36.0168750000000         7.088680712267563E-008
   36.2306250000000         7.913572843353482E-009
   36.4443750000000        -5.311902714887778E-008
   36.6581250000000        -1.086478279402130E-007
   36.8718750000000        -1.592478706617753E-007
   37.0856250000000        -1.928409603075144E-007
   37.2993750000000        -2.163082167204827E-007
   37.5131250000000        -2.228098284059556E-007
   37.7268750000000        -2.256109920558379E-007
   37.9406250000000        -2.053244056493014E-007
   38.1543750000000        -1.799342252691578E-007
   38.3681250000000        -1.471926386812683E-007
   38.5818750000000        -1.101454811367731E-007
   38.7956250000000        -7.154963712717584E-008
   39.0093750000000        -3.398180642151330E-008
   39.2231250000000         5.354192454903023E-010
   39.4368750000000         3.021226875599269E-008
   39.6506250000000         5.741008305929836E-008
   39.8643750000000         7.305017384963776E-008
   40.0781250000000         7.968958875122094E-008
   40.2918750000000         7.615091314018784E-008
   40.5056250000000         6.208896078604024E-008
   40.7193750000000         3.787291650511435E-008
   40.9331250000000         1.989060640382221E-010
   41.1468750000000        -3.766241159298143E-008
   41.3606250000000        -8.934321463053566E-008
   41.5743750000000        -1.438434584230358E-007
   41.7881250000000        -1.996734344510202E-007
   42.0018750000000        -2.546919964741746E-007
   42.2156250000000        -3.063430468359391E-007
   42.4293750000000        -3.519184086473348E-007
   42.6431250000000        -3.887508150784713E-007
   42.8568750000000        -4.175065495493167E-007
   43.0706250000000        -4.243244307985225E-007
   43.2843750000000        -4.211900592658249E-007
   43.4981250000000        -3.936088142509307E-007
   43.7118750000000        -3.509360251557528E-007
   43.9256250000000        -2.924324027524861E-007
   44.1393750000000        -2.192934752842196E-007
   44.3531250000000        -1.335608353476830E-007
   44.5668750000000        -3.789950868744091E-008
   44.7806250000000         6.460084980768635E-008
   44.9943750000000         1.707108674605379E-007
   45.2081250000000         2.771351182442140E-007
   45.4218750000000         3.808206404051173E-007
   45.6356250000000         4.789561551291622E-007
   45.8493750000000         5.690556541052973E-007
   46.0631250000000         6.491067286580539E-007
   46.2768750000000         7.174830598919672E-007
   46.4906250000000         7.728505368863067E-007
   46.7043750000000         8.143022786093046E-007
   46.9181250000000         8.414348933040140E-007
   47.1318750000000         8.546178326744234E-007
   47.3456250000000         8.525999991856675E-007
   47.5593750000000         8.328971628531935E-007
   47.7731250000000         8.027817190774485E-007
   47.9868750000000         7.581041158476808E-007
   48.2006250000000         7.077712977169353E-007
   48.4143750000000         6.443572685301515E-007
   48.6281250000000         5.787251652338462E-007
   48.8418750000000         5.101136179358298E-007
   49.0556250000000         4.439769274928581E-007
   49.2693750000000         3.786326401538582E-007
   49.4831250000000         3.181692241534248E-007
   49.6968750000000         2.653093010621361E-007
   49.9106250000000         2.218569851976897E-007
   50.1243750000000         1.891692059135091E-007
   50.3381250000000         1.683741244264526E-007
   50.5518750000000         1.602688249567280E-007
   50.7656250000000         1.695913047888462E-007
   50.9793750000000         1.821175662191325E-007
   51.1931250000000         2.113906591939898E-007
   51.4068750000000         2.405914073977956E-007
   51.6206250000000         2.812617331779571E-007
   51.8343750000000         3.186053876199493E-007
   52.0481250000000         3.614155808340320E-007
   52.2618750000000         3.971641130173801E-007
   52.4756250000000         4.319713401682231E-007
   52.6893750000000         4.604910008852996E-007
   52.9031250000000         4.818934280075245E-007
   53.1168750000000         4.978049698923286E-007
   53.3306250000000         5.066677568178159E-007
   53.5443750000000         5.096385106464987E-007
   53.7581250000000         5.080852397820824E-007
   53.9718750000000         5.027084435433115E-007
   54.1856250000000         4.946173451650805E-007
   54.3993750000000         4.850454473759175E-007
   54.6131250000000         4.751918539317794E-007
   54.8268750000000         4.660786853049377E-007
   55.0406250000000         4.585211075151640E-007
   55.2543750000000         4.531727114540950E-007
   55.4681250000000         4.504644016295355E-007
   55.6818750000000         4.506872526777733E-007
   55.8956250000000         4.541049939999281E-007
   56.1093750000000         4.608124190662050E-007
   56.3231250000000         4.711236313875196E-007
   56.5368750000000         4.851221431943568E-007
   56.7506250000000         5.011050375114636E-007
   56.9643750000000         5.224314050895804E-007
   57.1781250000000         5.478696867846453E-007
   57.3918750000000         5.783035589110027E-007
   57.6056250000000         6.138916230067791E-007
   57.8193750000000         6.541171625464084E-007
   58.0331250000000         6.985238837127091E-007
   58.2468750000000         7.463663931024328E-007
   58.4606250000000         7.964686915246697E-007
   58.6743750000000         8.474726940569692E-007
   58.8881250000000         8.942002908867061E-007
   59.1018750000000         9.439846062915011E-007
   59.3156250000000         9.832082927687232E-007
   59.5293750000000         1.023049806417738E-006
   59.7431250000000         1.056771606941386E-006
   59.9568750000000         1.085370565641639E-006
   60.1706250000000         1.109269016593419E-006
   60.3843750000000         1.128077554362329E-006
   60.5981250000000         1.142582834555281E-006
   60.8118750000000         1.153280031120178E-006
   61.0256250000000         1.164517592255761E-006
   61.2393750000000         1.164635958435416E-006
   61.4531250000000         1.170992456176196E-006
   61.6668750000000         1.168924496736361E-006
   61.8806250000000         1.163625509038691E-006
   62.0943750000000         1.153879520871530E-006
   62.3081250000000         1.140231085552298E-006
   62.5218750000000         1.123275869233069E-006
   62.7356250000000         1.101861511979918E-006
   62.9493750000000         1.080311398736458E-006
   63.1631250000000         1.045072570752433E-006
   63.3768750000000         1.010720485038470E-006
   63.5906250000000         9.645752860415080E-007
   63.8043750000000         9.159145138565378E-007
   64.0181250000000         8.689316419671562E-007
   64.2318750000000         8.132390430083640E-007
   64.4456250000000         7.593045328446398E-007
   64.6593750000000         7.089758273837153E-007
   64.8731250000000         6.646217746189875E-007
   65.0868750000000         6.293198440152951E-007
   65.3006250000000         6.055765293945691E-007
   65.5143750000000         5.959525428399904E-007
   65.7281250000000         6.024690680012340E-007
   65.9418750000000         6.258624755181261E-007
   66.1556250000000         6.662083590924684E-007
   66.3693750000000         7.227515075934039E-007
   66.5831250000000         7.926389605200502E-007
   66.7968750000000         8.726492180473026E-007
   67.0106250000000         9.586797208010320E-007
   67.2243750000000         1.046181744890867E-006
   67.4381250000000         1.130549115307100E-006
   67.6518750000000         1.210905629562470E-006
   67.8656250000000         1.274015608002926E-006
   68.0793750000000         1.328904969651398E-006
   68.2931250000000         1.362810239279308E-006
   68.5068750000000         1.383434538429853E-006
   68.7206250000000         1.385118651861444E-006
   68.9343750000000         1.376393681650637E-006
   69.1481250000000         1.358167746088323E-006
   69.3618750000000         1.333249087260153E-006
   69.5756250000000         1.304485765423979E-006
   69.7893750000000         1.274392961048230E-006
   70.0031250000000         1.245142547313300E-006
   70.2168750000000         1.218196290478307E-006
   70.4306250000000         1.194502558487966E-006
   70.6443750000000         1.175073603917154E-006
   70.8581250000000         1.159273030445632E-006
   71.0718750000000         1.147690779635366E-006
   71.2856250000000         1.143027668292282E-006
   71.4993750000000         1.138578039708750E-006
   71.7131250000000         1.152919400292270E-006
   71.9268750000000         1.171075318432562E-006
   72.1406250000000         1.209645925664689E-006
   72.3543750000000         1.256779412546728E-006
   72.5681250000000         1.326432191765091E-006
   72.7818750000000         1.411322576211694E-006
   72.9956250000000         1.507589435048405E-006
   73.2093750000000         1.618241794479350E-006
   73.4231250000000         1.736567930934736E-006
   73.6368750000000         1.856156373959268E-006
   73.8506250000000         1.970951082871577E-006
   74.0643750000000         2.074659054816151E-006
   74.2781250000000         2.161560924715057E-006
   74.4918750000000         2.227009199128737E-006
   74.7056250000000         2.267905521135764E-006
   74.9193750000000         2.284078418577445E-006
   75.1331250000000         2.272331106455394E-006
   75.3468750000000         2.235470059699296E-006
   75.5606250000000         2.185671147322369E-006
   75.7743750000000         2.117032022336255E-006
   75.9881250000000         2.043755583646735E-006
   76.2018750000000         1.968033157849288E-006
   76.4156250000000         1.895989072974939E-006
   76.6293750000000         1.827045436339435E-006
   76.8431250000000         1.764317383746594E-006
   77.0568750000000         1.708634077051309E-006
   77.2706250000000         1.659606401146937E-006
   77.4843750000000         1.616524347221065E-006
   77.6981250000000         1.584013596379322E-006
   77.9118750000000         1.545933121156380E-006
   78.1256250000000         1.518914572573204E-006
   78.3393750000000         1.483235481086185E-006
   78.5531250000000         1.459957852182047E-006
   78.7668750000000         1.429248406201933E-006
   78.9806250000000         1.414933306310810E-006
   79.1943750000000         1.398025318808216E-006
   79.4081250000000         1.395130458348036E-006
   79.6218750000000         1.404109290933503E-006
   79.8356250000000         1.425758370370206E-006
   80.0493750000000         1.459842830181780E-006
   80.2631250000000         1.504997097786547E-006
   80.4768750000000         1.558239606280931E-006
   80.6906250000000         1.616520517488433E-006
   80.9043750000000         1.676409757081073E-006
   81.1181250000000         1.729432964365849E-006
   81.3318750000000         1.785440985733913E-006
   81.5456250000000         1.829139112556785E-006
   81.7593750000000         1.870785299301485E-006
   81.9731250000000         1.901766848685586E-006
   82.1868750000000         1.919181224945373E-006
   82.4006250000000         1.938189452145146E-006
   82.6143750000000         1.945714421495878E-006
   82.8281250000000         1.952229656450890E-006
   83.0418750000000         1.953326387680396E-006
   83.2556250000000         1.953922103144026E-006
   83.4693750000000         1.953054592870768E-006
   83.6831250000000         1.951778804099601E-006
   83.8968750000000         1.951226034026163E-006
   84.1106250000000         1.956727135573373E-006
   84.3243750000000         1.955235127268519E-006
   84.5381250000000         1.962893265394467E-006
   84.7518750000000         1.965291637118587E-006
   84.9656250000000         1.970182877190590E-006
   85.1793750000000         1.976792611953965E-006
   85.3931250000000         1.986961095883332E-006
   85.6068750000000         1.998243004108175E-006
   85.8206250000000         2.022987488434765E-006
   86.0343750000000         2.052049115313862E-006
   86.2481250000000         2.094105619585862E-006
   86.4618750000000         2.147979919313557E-006
   86.6756250000000         2.212846235008510E-006
   86.8893750000000         2.287385966498656E-006
   87.1031250000000         2.363308152566866E-006
   87.3168750000000         2.456327364565510E-006
   87.5306250000000         2.544461460972253E-006
   87.7443750000000         2.644784076552243E-006
   87.9581250000000         2.735508526934539E-006
   88.1718750000000         2.830991683943281E-006
   88.3856250000000         2.918344864941965E-006
   88.5993750000000         2.996282968765006E-006
   88.8131250000000         3.063738879004914E-006
   89.0268750000000         3.119519175366081E-006
   89.2406250000000         3.162552894128149E-006
   89.4543750000000         3.193164973490742E-006
   89.6681250000000         3.211060801748341E-006
   89.8818750000000         3.216171939278029E-006
   90.0956250000000         3.209413084644344E-006
   90.3093750000000         3.190557855921264E-006
   90.5231250000000         3.160229887199044E-006
   90.7368750000000         3.119420014480172E-006
   90.9506250000000         3.068769442273628E-006
   91.1643750000000         3.009286790492158E-006
   91.3781250000000         2.942404581602179E-006
   91.5918750000000         2.869569029942463E-006
   91.8056250000000         2.792600174254716E-006
   92.0193750000000         2.713563347292203E-006
   92.2331250000000         2.634824357833108E-006
   92.4468750000000         2.558952625270849E-006
   92.6606250000000         2.488644057441447E-006
   92.8743750000000         2.426515067467127E-006
   93.0881250000000         2.375060992165568E-006
   93.3018750000000         2.336367623724597E-006
   93.5156250000000         2.312250268524863E-006
   93.7293750000000         2.302580403293307E-006
   93.9431250000000         2.309001809874459E-006
   94.1568750000000         2.328157359058735E-006
   94.3706250000000         2.358556231979088E-006
   94.5843750000000         2.397999378815501E-006
   94.7981250000000         2.443622640193601E-006
   95.0118750000000         2.492136056788594E-006
   95.2256250000000         2.539768669892032E-006
   95.4393750000000         2.583860661883743E-006
   95.6531250000000         2.621945606313157E-006
   95.8668750000000         2.655889843721907E-006
   96.0806250000000         2.675141102506548E-006
   96.2943750000000         2.687721591611742E-006
   96.5081250000000         2.694953227099834E-006
   96.7218750000000         2.699022028327744E-006
   96.9356250000000         2.701935654130977E-006
   97.1493750000000         2.706175713488306E-006
   97.3631250000000         2.713744169356597E-006
   97.5768750000000         2.723931525248966E-006
   97.7906250000000         2.741176401749589E-006
   98.0043750000000         2.765301027582683E-006
   98.2181250000000         2.796024354836079E-006
   98.4318750000000         2.831821697554989E-006
   98.6456250000000         2.871292630711332E-006
   98.8593750000000         2.911787422842218E-006
   99.0731250000000         2.952993241306008E-006
   99.2868750000000         2.994009467412904E-006
   99.5006250000000         3.039259364646379E-006
   99.7143750000000         3.076273237610618E-006
   99.9281250000000         3.119443265096112E-006
   100.141875000000         3.156037455929140E-006
   100.355625000000         3.196185217761264E-006
   100.569375000000         3.236979335561883E-006
   100.783125000000         3.279529677005308E-006
   100.996875000000         3.326281381358853E-006
   101.210625000000         3.376455918058323E-006
   101.424375000000         3.429278425955806E-006
   101.638125000000         3.483379240583302E-006
   101.851875000000         3.536926135504849E-006
   102.065625000000         3.583697858076548E-006
   102.279375000000         3.632774383796015E-006
   102.493125000000         3.670185596512457E-006
   102.706875000000         3.710136762771699E-006
   102.920625000000         3.741206999009209E-006
   103.134375000000         3.765852569990916E-006
   103.348125000000         3.785674912331981E-006
   103.561875000000         3.804695216134896E-006
   103.775625000000         3.819688059235499E-006
   103.989375000000         3.834083937952047E-006
   104.203125000000         3.849398588539128E-006
   104.416875000000         3.866348190533540E-006
   104.630625000000         3.885230281353105E-006
   104.844375000000         3.905664225339625E-006
   105.058125000000         3.926743316595333E-006
   105.271875000000         3.946586867693514E-006
   105.485625000000         3.963982518044087E-006
   105.699375000000         3.977468907900800E-006
   105.913125000000         3.984256891394520E-006
   106.126875000000         3.983507896014754E-006
   106.340625000000         3.974939440370148E-006
   106.554375000000         3.958940449614145E-006
   106.768125000000         3.936311859963654E-006
   106.981875000000         3.909516097953500E-006
   107.195625000000         3.880955909081352E-006
   107.409375000000         3.853390898879286E-006
   107.623125000000         3.829523008886791E-006
   107.836875000000         3.811607449701798E-006
   108.050625000000         3.800978770089505E-006
   108.264375000000         3.798252500000537E-006
   108.478125000000         3.804824043016415E-006
   108.691875000000         3.822074633044296E-006
   108.905625000000         3.839321790287946E-006
   109.119375000000         3.861652616458473E-006
   109.333125000000         3.883691158207241E-006
   109.546875000000         3.902665002602155E-006
   109.760625000000         3.916958938146484E-006
   109.974375000000         3.922694955186605E-006
   110.188125000000         3.920073366039942E-006
   110.401875000000         3.909050391951695E-006
   110.615625000000         3.891268969497628E-006
   110.829375000000         3.868078905273615E-006
   111.043125000000         3.841793767635834E-006
   111.256875000000         3.820899239061377E-006
   111.470625000000         3.791242045627076E-006
   111.684375000000         3.768620040987460E-006
   111.898125000000         3.758422353890147E-006
   112.111875000000         3.744772709081169E-006
   112.325625000000         3.742391685401925E-006
   112.539375000000         3.749113742523571E-006
   112.753125000000         3.763738532850555E-006
   112.966875000000         3.786986588651344E-006
   113.180625000000         3.818367712916898E-006
   113.394375000000         3.857397679981583E-006
   113.608125000000         3.903395557702253E-006
   113.821875000000         3.955953613031584E-006
   114.035625000000         4.015297745185671E-006
   114.249375000000         4.081008459063566E-006
   114.463125000000         4.152165196489140E-006
   114.676875000000         4.227643116742544E-006
   114.890625000000         4.305997138084428E-006
   115.104375000000         4.385396746881102E-006
   115.318125000000         4.463782153051690E-006
   115.531875000000         4.538974313090067E-006
   115.745625000000         4.608958158382641E-006
   115.959375000000         4.672010292782665E-006
   116.173125000000         4.726885918361932E-006
   116.386875000000         4.772918075946766E-006
   116.600625000000         4.810072543504234E-006
   116.814375000000         4.839056942043043E-006
   117.028125000000         4.861120878767662E-006
   117.241875000000         4.878905485724250E-006
   117.455625000000         4.891081518300737E-006
   117.669375000000         4.900661332517959E-006
   117.883125000000         4.908459169703464E-006
   118.096875000000         4.915763429091608E-006
   118.310625000000         4.922015035882256E-006
   118.524375000000         4.927058332380346E-006
   118.738125000000         4.930118359955273E-006
   118.951875000000         4.930381911102441E-006
   119.165625000000         4.927439552624705E-006
   119.379375000000         4.922371383242795E-006
   119.593125000000         4.914423715883040E-006
   119.806875000000         4.904863683204797E-006
   120.020625000000         4.894886927045388E-006
   120.234375000000         4.886344692487545E-006
   120.448125000000         4.881079534006722E-006
   120.661875000000         4.881066820203697E-006
   120.875625000000         4.887860892654422E-006
   121.089375000000         4.905170364128668E-006
   121.303125000000         4.923395064928877E-006
   121.516875000000         4.945522995526913E-006
   121.730625000000         4.969069813211589E-006
   121.944375000000         4.992416006094849E-006
   122.158125000000         5.012731602650959E-006
   122.371875000000         5.027733078848933E-006
   122.585625000000         5.036020668317429E-006
   122.799375000000         5.037269359674276E-006
   123.013125000000         5.032554709291557E-006
   123.226875000000         5.024261844798752E-006
   123.440625000000         5.014993784582517E-006
   123.654375000000         5.007921843556383E-006
   123.868125000000         5.006852775438456E-006