  -1.60312500000000         0.000000000000000E+000
  -1.38937500000000         0.000000000000000E+000
  -1.17562500000000         0.000000000000000E+000
 -0.961875000000000         0.000000000000000E+000
 -0.748125000000000         0.000000000000000E+000
 -0.534375000000000         0.000000000000000E+000
 -0.320625000000000         0.000000000000000E+000
 -0.106875000000000         0.000000000000000E+000
  0.106875000000000         0.000000000000000E+000
  0.320625000000000         0.000000000000000E+000
  0.534375000000000         0.000000000000000E+000
  0.748125000000000         0.000000000000000E+000
  0.961875000000000         0.000000000000000E+000
   1.17562500000000         0.000000000000000E+000
   1.38937500000000         0.000000000000000E+000
   1.60312500000000         0.000000000000000E+000
   1.81687500000000         0.000000000000000E+000
   2.03062500000000         0.000000000000000E+000
   2.24437500000000         0.000000000000000E+000
   2.45812500000000         0.000000000000000E+000
   2.67187500000000         0.000000000000000E+000
   2.88562500000000         0.000000000000000E+000
   3.09937500000000         0.000000000000000E+000
   3.31312500000000         0.000000000000000E+000
   3.52687500000000         0.000000000000000E+000
   3.74062500000000         0.000000000000000E+000
   3.95437500000000         0.000000000000000E+000
   4.16812500000000         0.000000000000000E+000
   4.38187500000000         0.000000000000000E+000
   4.59562500000000         0.000000000000000E+000
   4.80937500000000         0.000000000000000E+000
   5.02312500000000         0.000000000000000E+000
   5.23687500000000         0.000000000000000E+000
   5.45062500000000         0.000000000000000E+000
   5.66437500000000         0.000000000000000E+000
   5.87812500000000         0.000000000000000E+000
   6.09187500000000         0.000000000000000E+000
   6.30562500000000         0.000000000000000E+000
   6.51937500000000         0.000000000000000E+000
   6.73312500000000         0.000000000000000E+000
   6.94687500000000         0.000000000000000E+000
   7.16062500000000         0.000000000000000E+000
   7.37437500000000         0.000000000000000E+000
   7.58812500000000         0.000000000000000E+000
   7.80187500000000         0.000000000000000E+000
   8.01562500000000         0.000000000000000E+000
   8.22937500000000         0.000000000000000E+000
   8.44312500000000         0.000000000000000E+000
   8.65687500000000         0.000000000000000E+000
   8.87062500000000         0.000000000000000E+000
   9.08437500000000         0.000000000000000E+000
   9.29812500000000         0.000000000000000E+000
   9.51187500000000         0.000000000000000E+000
   9.72562500000000         0.000000000000000E+000
   9.93937500000000         0.000000000000000E+000
   10.1531250000000         0.000000000000000E+000
   10.3668750000000         0.000000000000000E+000
   10.5806250000000         0.000000000000000E+000
   10.7943750000000         0.000000000000000E+000
   11.0081250000000         0.000000000000000E+000
   11.2218750000000         0.000000000000000E+000
   11.4356250000000         0.000000000000000E+000
   11.6493750000000        -2.744951244752239E-254
   11.8631250000000         6.040803275425532E-247
   12.0768750000000         2.436328055248432E-242
   12.2906250000000        -5.808852022399856E-238
   12.5043750000000        -1.489226468594036E-235
   12.7181250000000        -1.416602638041747E-233
   12.9318750000000        -8.217715060694993E-232
   13.1456250000000        -3.364051231786415E-230
   13.3593750000000        -1.042299676250342E-228
   13.5731250000000        -2.555792825730612E-227
   13.7868750000000        -5.121822612696510E-226
   14.0006250000000        -8.609809279428811E-225
   14.2143750000000        -1.241869634054817E-223
   14.4281250000000        -1.556188394723373E-222
   14.6418750000000        -1.856965277951801E-221
   14.8556250000000        -3.699215083366995E-220
   15.0693750000000        -1.391460349845476E-218
   15.2831250000000        -5.000353502943697E-217
   15.4968750000000        -1.450018907252659E-215
   15.7106250000000        -3.532147552447961E-214
   15.9243750000000        -7.593394477804028E-213
   16.1381250000000        -1.481032093942137E-211
   16.3518750000000        -2.639745449549836E-210
   16.5656250000000        -4.286441271412641E-209
   16.7793750000000        -6.313182935870692E-208
   16.9931250000000        -8.417969326073669E-207
   17.2068750000000        -1.017220760958906E-205
   17.4206250000000        -1.117254330828535E-204
   17.6343750000000        -1.119713772172093E-203
   17.8481250000000        -1.028203626703678E-202
   18.0618750000000        -8.685629703155838E-202
   18.2756250000000        -6.774052809867959E-201
   18.4893750000000        -4.893245504613619E-200
   18.7031250000000        -3.282562878200677E-199
   18.9168750000000        -2.049577582923011E-198
   19.1306250000000        -1.193310466648866E-197
   19.3443750000000        -6.489156857745952E-197
   19.5581250000000        -3.301591634658761E-196
   19.7718750000000        -1.575578022495009E-195
   19.9856250000000        -7.084186495183666E-195
   20.1993750000000        -3.027544143054756E-194
   20.4131250000000        -1.250486166370353E-193
   20.6268750000000        -5.134046487394378E-193
   20.8406250000000        -2.175230092525433E-192
   21.0543750000000        -9.813422840692568E-192
   21.2681250000000        -4.729873148659887E-191
   21.4818750000000        -2.370664715794510E-190
   21.6956250000000        -1.190924769493700E-189
   21.9093750000000        -5.824800010497776E-189
   22.1231250000000        -2.725584406906403E-188
   22.3368750000000        -1.208939592508190E-187
   22.5506250000000        -5.058109071259440E-187
   22.7643750000000        -1.989608621042330E-186
   22.9781250000000        -7.331119352788969E-186
   23.1918750000000        -2.516389475662546E-185
   23.4056250000000        -7.967633977766764E-185
   23.6193750000000        -2.283783180685142E-184
   23.8331250000000        -5.687415540510846E-184
   24.0468750000000        -1.094807671806326E-183
   24.2606250000000        -7.729133267512111E-184
   24.4743750000000         6.502054400673157E-183
   24.6881250000000         4.660116685897512E-182
   24.9018750000000         2.119113430516749E-181
   25.1156250000000         7.932879416812827E-181
   25.3293750000000         2.607227312381764E-180
   25.5431250000000         7.678557484017608E-180
   25.7568750000000         2.027497340284226E-179
   25.9706250000000         4.713713524374061E-179
   26.1843750000000         9.139447830382757E-179
   26.3981250000000         1.221888821729888E-178
   26.6118750000000        -2.551861143607464E-179
   26.8256250000000        -9.042819705136983E-178
   27.0393750000000        -3.908000815732081E-177
   27.2531250000000        -1.145798870906027E-176
   27.4668750000000        -2.398985648561069E-176
   27.6806250000000        -2.187503267541591E-176
   27.8943750000000         1.073782801695656E-175
   28.1081250000000         8.134547787992504E-175
   28.3218750000000         3.609947517927208E-174
   28.5356250000000         1.303670703836271E-173
   28.7493750000000         4.151339989476937E-173
   28.9631250000000         1.203234759748832E-172
   29.1768750000000         3.220849918422490E-172
   29.3906250000000         8.009673000189326E-172
   29.6043750000000         1.850002965198072E-171
   29.8181250000000         3.941232871830762E-171
   30.0318750000000         7.607829143201814E-171
   30.2456250000000         1.274711375628059E-170
   30.4593750000000         1.627348852217484E-170
   30.6731250000000         5.692115168978100E-171
   30.8868750000000        -5.640129597426358E-170
   31.1006250000000        -2.662145652181485E-169
   31.3143750000000        -8.466183128340619E-169
   31.5281250000000        -2.271327958614733E-168
   31.7418750000000        -5.469540133105249E-168
   31.9556250000000        -1.211701959336021E-167
   32.1693750000000        -2.494756315889469E-167
   32.3831250000000        -4.782170833181199E-167
   32.5968750000000        -8.482685214108328E-167
   32.8106250000000        -1.366858694724804E-166
   33.0243750000000        -1.907241083464025E-166
   33.2381250000000        -1.967242615493007E-166
   33.4518750000000        -1.385295777508586E-167
   33.6656250000000         6.980412975711699E-166
   33.8793750000000         2.686028215155461E-165
   34.0931250000000         7.467623312329766E-165
   34.3068750000000         1.788767053839150E-164
   34.5206250000000         3.876413992453900E-164
   34.7343750000000         7.703864264450692E-164
   34.9481250000000         1.395780015554622E-163
   35.1618750000000         2.239026086821770E-163
   35.3756250000000         2.914736940389140E-163
   35.5893750000000         2.037444149357149E-163
   35.8031250000000        -4.109040994498965E-163
   36.0168750000000        -2.397421727091899E-162
   36.2306250000000        -7.432331838815905E-162
   36.4443750000000        -1.838117226812835E-161
   36.6581250000000        -3.915916607277736E-161
   36.8718750000000        -7.270956446315321E-161
   37.0856250000000        -1.139093233832564E-160
   37.2993750000000        -1.310527262661261E-160
   37.5131250000000        -2.502572071633190E-161
   37.7268750000000         4.489719630303713E-160
   37.9406250000000         1.809992277429681E-159
   38.1543750000000         5.017388023701655E-159
   38.3681250000000         1.157515314772840E-158
   38.5818750000000         2.325568976392713E-158
   38.7956250000000         4.065016438089660E-158
   39.0093750000000         5.886264350986685E-158
   39.2231250000000         5.723856004813127E-158
   39.4368750000000        -2.175459581345654E-158
   39.6506250000000        -3.103217650277756E-157
   39.8643750000000        -1.072200429984062E-156
   40.0781250000000        -2.764737896964245E-156
   40.2918750000000        -6.046414521756105E-156
   40.5056250000000        -1.156563698094631E-155
   40.7193750000000        -1.916430808237894E-155
   40.9331250000000        -2.579693778350520E-155
   41.1468750000000        -2.103460423574489E-155
   41.3606250000000         2.127455830915004E-155
   41.5743750000000         1.560795719314433E-154
   41.7881250000000         4.828522527985600E-154
   42.0018750000000         1.153431196969421E-153
   42.2156250000000         2.342769745330925E-153
   42.4293750000000         4.118913587075516E-153
   42.6431250000000         6.096113932422689E-153
   42.8568750000000         6.696626865315631E-153
   43.0706250000000         1.830775480372346E-153
   43.2843750000000        -1.704747873268824E-152
   43.4981250000000        -6.500018000097625E-152
   43.7118750000000        -1.639251850444087E-151
   43.9256250000000        -3.366656003657640E-151
   44.1393750000000        -5.862967765579784E-151
   44.3531250000000        -8.470772868793917E-151
   44.5668750000000        -8.912917213929889E-151
   44.7806250000000        -1.852419455780841E-151
   44.9943750000000         2.275037122431013E-150
   45.2081250000000         8.025345809263499E-150
   45.4218750000000         1.879087177794640E-149
   45.6356250000000         3.516347865791452E-149
   45.8493750000000         5.341979213528994E-149
   46.0631250000000         5.953428985012481E-149
   46.2768750000000         2.024673480544312E-149
   46.4906250000000        -1.260727127423195E-148
   46.7043750000000        -4.692226393042555E-148
   46.9181250000000        -1.095419282810138E-147
   47.1318750000000        -1.982891612056272E-147
   47.3456250000000        -2.764151609680635E-147
   47.5593750000000        -2.293382886229863E-147
   47.7731250000000         1.979507113371753E-147
   47.9868750000000         1.461480763109669E-146
   48.2006250000000         4.206651856590709E-146
   48.4143750000000         9.023241201868003E-146
   48.6281250000000         1.566858202251788E-145
   48.8418750000000         2.130814350769523E-145
   49.0556250000000         1.727342045046707E-145
   49.2693750000000        -1.582731838075259E-145
   49.4831250000000        -1.135510166134834E-144
   49.6968750000000        -3.294922703412182E-144
   49.9106250000000        -7.236379445429869E-144
   50.1243750000000        -1.317977043270086E-143
   50.3381250000000        -1.988525479463627E-143
   50.5518750000000        -2.254604092959450E-143
   50.7656250000000        -9.357337200750626E-144
   50.9793750000000         4.296958312591348E-143
   51.1931250000000         1.729605894632505E-142
   51.4068750000000         4.324913170720825E-142
   51.6206250000000         8.690377784514921E-142
   51.8343750000000         1.474416350344202E-141
   52.0481250000000         2.074844863651932E-141
   52.2618750000000         2.135661191327517E-141
   52.4756250000000         4.717662324518530E-142
   52.6893750000000        -5.084891377649117E-141
   52.9031250000000        -1.787266001193323E-140
   53.1168750000000        -4.200272594592550E-140
   53.3306250000000        -8.055121044330541E-140
   53.5443750000000        -1.310431529933421E-139
   53.7581250000000        -1.765791199362329E-139
   53.9718750000000        -1.712218893385032E-139
   54.1856250000000        -2.009017900971025E-140
   54.3993750000000         4.405105549362294E-139
   54.6131250000000         1.447746363579107E-138
   54.8268750000000         3.270069603256688E-138
   55.0406250000000         6.063753235337431E-138
   55.2543750000000         9.549950193070472E-138
   55.4681250000000         1.242497236703109E-137
   55.6818750000000         1.145438721588346E-137
   55.8956250000000         3.415014508367268E-139
   56.1093750000000        -3.121941561897060E-137
   56.3231250000000        -9.731066356557338E-137
   56.5368750000000        -2.124923225626376E-136
   56.7506250000000        -3.824440253096199E-136
   56.9643750000000        -5.846353467586868E-136
   57.1781250000000        -7.353216740240180E-136
   57.3918750000000        -6.422319647330837E-136
   57.6056250000000         4.909526253034293E-137
   57.8193750000000         1.889940424878281E-135
   58.0331250000000         5.589482360245032E-135
   58.2468750000000         1.180722345667997E-134
   58.4606250000000         2.063766580011493E-134
   58.6743750000000         3.062383214919268E-134
   58.8881250000000         3.717841686168849E-134
   59.1018750000000         3.047781032069966E-134
   59.3156250000000        -6.667619226486025E-135
   59.5293750000000        -9.965859125630466E-134
   59.7431250000000        -2.791240940809835E-133
   59.9568750000000        -5.700104415283167E-133
   60.1706250000000        -9.672322774625795E-133
   60.3843750000000        -1.392200096908703E-132
   60.5981250000000        -1.627561519854791E-132
   60.8118750000000        -1.236669098175138E-132
   61.0256250000000         5.067523698976956E-133
   61.2393750000000         4.621385687343424E-132
   61.4531250000000         1.225133244410342E-131
   61.6668750000000         2.417678322729411E-131
   61.8806250000000         3.981542684344247E-131
   62.0943750000000         5.555237047723622E-131
   62.3081250000000         6.239033872799663E-131
   62.5218750000000         4.329082219977835E-131
   62.7356250000000        -2.871737280485993E-131
   62.9493750000000        -1.894935950479658E-130
   63.1631250000000        -4.762331361083185E-130
   63.3768750000000        -9.084750651869813E-130
   63.5906250000000        -1.452235657389282E-129
   63.8043750000000        -1.963645147295427E-129
   64.0181250000000        -2.114754085994351E-129
   64.2318750000000        -1.317577155484777E-129
   64.4456250000000         1.314728200264760E-129
   64.6593750000000         6.898076333169903E-129
   64.8731250000000         1.648975788073497E-128
   65.0868750000000         3.044365395497722E-128
   65.3006250000000         4.727357533876862E-128
   65.5143750000000         6.197118199529521E-128
   65.7281250000000         6.394052615756323E-128
   65.9418750000000         3.512285169962676E-128
   66.1556250000000        -5.046793829194836E-128
   66.3693750000000        -2.237286912638356E-127
   66.5831250000000        -5.110218980644118E-127
   66.7968750000000        -9.148630028640830E-127
   67.0106250000000        -1.381928094273346E-126
   67.2243750000000        -1.758399762545630E-126
   67.4381250000000        -1.739026406152194E-126
   67.6518750000000        -8.273576279009573E-127
   67.8656250000000         1.659228585019223E-126
   68.0793750000000         6.486617457740232E-126
   68.2931250000000         1.423276354345432E-125
   68.5068750000000         2.477367608720089E-125
   68.7206250000000         3.647894911103667E-125
   68.9343750000000         4.515131130072531E-125
   69.1481250000000         4.290839939785744E-125
   69.3618750000000         1.746901975324773E-125
   69.5756250000000        -4.733622756973648E-125
   69.7893750000000        -1.686175421268755E-124
   70.0031250000000        -3.575445669894713E-124
   70.2168750000000        -6.071138337222544E-124
   70.4306250000000        -8.739746280637387E-124
   70.6443750000000        -1.055770836291834E-123
   70.8581250000000        -9.691781536030552E-124
   71.0718750000000        -3.394137881233472E-124
   71.2856250000000         1.180949497059076E-123
   71.4993750000000         3.939060536741780E-123
   71.7131250000000         8.126267427857101E-123
   71.9268750000000         1.351637412047091E-122
   72.1406250000000         1.909473224241365E-122
   72.3543750000000         2.261991196512392E-122
   72.5681250000000         2.023498067455103E-122
   72.7818750000000         6.351692003505218E-123
   72.9956250000000        -2.584441131423461E-122
   73.2093750000000        -8.281066707474908E-122
   73.4231250000000        -1.674974907163937E-121
   73.6368750000000        -2.742872284189444E-121
   73.8506250000000        -3.821171069365793E-121
   74.0643750000000        -4.467444894526260E-121
   74.2781250000000        -3.944769212614735E-121
   74.4918750000000        -1.215076209842001E-121
   74.7056250000000         4.950140569570995E-121
   74.9193750000000         1.566528612675808E-120
   75.1331250000000         3.135626533596347E-120
   75.3468750000000         5.087192689512340E-120
   75.5606250000000         7.031863379796956E-120
   75.7743750000000         8.180378050013935E-120
   75.9881250000000         7.249689827456280E-120
   76.2018750000000         2.469926655179758E-120
   76.4156250000000        -8.209793196652133E-120
   76.6293750000000        -2.659971143565079E-119
   76.8431250000000        -5.332291160766315E-119
   77.0568750000000        -8.639262169669489E-119
   77.2706250000000        -1.193950527063575E-118
   77.4843750000000        -1.395888128075212E-118
   77.6981250000000        -1.265618786524808E-118
   77.9118750000000        -5.248824505591841E-119
   78.1256250000000         1.145845360726844E-118
   78.3393750000000         4.027641694460628E-118
   78.5531250000000         8.221882614894077E-118
   78.7668750000000         1.344163986321894E-117
   78.9806250000000         1.874910771870160E-117
   79.1943750000000         2.228431814425039E-117
   79.4081250000000         2.107497296939738E-117
   79.6218750000000         1.106998437608940E-117
   79.8356250000000        -1.241108373106151E-117
   80.0493750000000        -5.359422758022469E-117
   80.2631250000000        -1.143411602710045E-116
   80.4768750000000        -1.913384458705075E-116
   80.6906250000000        -2.725554305851249E-116
   80.9043750000000        -3.335407272175700E-116
   81.1181250000000        -3.346800224538436E-116
   81.3318750000000        -2.211892327969368E-116
   81.5456250000000         7.176663102216927E-117
   81.7593750000000         6.060895194289418E-116
   81.9731250000000         1.417415775375703E-115
   82.1868750000000         2.480231912973413E-115
   82.4006250000000         3.662976392816839E-115
   82.6143750000000         4.679192965354466E-115
   82.8281250000000         5.047147419069020E-115
   83.0418750000000         4.077976130759387E-115
   83.2556250000000         9.200858758948227E-116
   83.4693750000000        -5.307188054324230E-115
   83.6831250000000        -1.525824140116286E-114
   83.8968750000000        -2.896271852875669E-114
   84.1106250000000        -4.528874523201435E-114
   84.3243750000000        -6.131875156580353E-114
   84.5381250000000        -7.175648334123395E-114
   84.7518750000000        -6.857053468766408E-114
   84.9656250000000        -4.117524782823113E-114
   85.1793750000000         2.246654477879625E-114
   85.3931250000000         1.333960747027284E-113
   85.6068750000000         2.974970855354431E-113
   85.8206250000000         5.094533432567352E-113
   86.0343750000000         7.450706027059464E-113
   86.2481250000000         9.528801537185375E-113
   86.4618750000000         1.046889498695263E-112
   86.6756250000000         9.035249029870749E-113
   86.8893750000000         3.670737844487289E-113
   87.1031250000000        -7.310058706543294E-113
   87.3168750000000        -2.533150702857713E-112
   87.5306250000000        -5.092304730109344E-112
   87.7443750000000        -8.282324180361137E-112
   87.9581250000000        -1.168651592400211E-111
   88.1718750000000        -1.447852947161646E-111
   88.3856250000000        -1.532378331540362E-111
   88.5993750000000        -1.234702370871337E-111
   88.8131250000000        -3.230332206334988E-112
   89.0268750000000         1.447843505496374E-111
   89.2406250000000         4.276131295811892E-111
   89.4543750000000         8.215941180039608E-111
   89.6681250000000         1.304130374372185E-110
   89.8818750000000         1.807850582546290E-110
   90.0956250000000         2.202931120016915E-110
   90.3093750000000         2.282917832503813E-110
   90.5231250000000         1.761123110879626E-110
   90.7368750000000         2.874867149455542E-111
   90.9506250000000        -2.501956485221221E-110
   91.1643750000000        -6.890294423738575E-110
   91.3781250000000        -1.292963672511298E-109
   91.5918750000000        -2.023358239016087E-109
   91.8056250000000        -2.772521447916480E-109
   92.0193750000000        -3.337735091841628E-109
   92.2331250000000        -3.401448091142820E-109
   92.4468750000000        -2.528525449738950E-109
   92.6606250000000        -1.954615579513290E-110
   92.8743750000000         4.130538019489498E-109
   93.0881250000000         1.084444636968366E-108
   93.3018750000000         1.997491931709076E-108
   93.5156250000000         3.087367023036966E-108
   93.7293750000000         4.184514775699542E-108
   93.9431250000000         4.977464537905753E-108
   94.1568750000000         4.986115112475214E-108
   94.3706250000000         3.561825267784916E-108
   94.5843750000000        -6.369393494411602E-110
   94.7981250000000        -6.654722485358884E-108
   95.0118750000000        -1.674742164857013E-107
   95.2256250000000        -3.030751022136229E-107
   95.4393750000000        -4.627157155003236E-107
   95.6531250000000        -6.200908982983565E-107
   95.8668750000000        -7.279592956560678E-107
   96.0806250000000        -7.146155184970350E-107
   96.2943750000000        -4.845579212852354E-107
   96.5081250000000         7.338087444567525E-108
   96.7218750000000         1.066652057299402E-106
   96.9356250000000         2.564729804830545E-106
   97.1493750000000         4.547712620886879E-106
   97.3631250000000         6.838708970719490E-106
   97.5768750000000         9.026492355714990E-106
   97.7906250000000         1.039318434217689E-105
   98.0043750000000         9.872488335192391E-106
   98.2181250000000         6.076084989588464E-106
   98.4318750000000        -2.563348095380384E-106
   98.6456250000000        -1.747875611404833E-105
   98.8593750000000        -3.943781585972957E-105
   99.0731250000000        -6.777372891990772E-105
   99.2868750000000        -9.941141271656367E-105
   99.5006250000000        -1.278122135790378E-104
   99.7143750000000        -1.420860707132840E-104
   99.9281250000000        -1.266737116421644E-104
   100.141875000000        -6.215868688123893E-105
   100.355625000000         7.211555297345602E-105
   100.569375000000         2.929445080352151E-104
   100.783125000000         6.051983149401652E-104
   100.996875000000         9.908230278645051E-104
   101.210625000000         1.395845312181001E-103
   101.424375000000         1.717673155710071E-103
   101.638125000000         1.796728359997681E-103
   101.851875000000         1.418355080837766E-103
   102.065625000000         3.325710515682767E-104
   102.279375000000        -1.700156950442326E-103
   102.493125000000        -4.830305393477175E-103
   102.706875000000        -9.005550301958941E-103
   102.920625000000        -1.382829678064735E-102
   103.134375000000        -1.840444565917397E-102
   103.348125000000        -2.122140852946022E-102
   103.561875000000        -2.011394255659533E-102
   103.775625000000        -1.239519398974975E-102
   103.989375000000         4.759556241430436E-103
   104.203125000000         3.359719172658845E-102
   104.416875000000         7.469782695613963E-102
   104.630625000000         1.255501142347982E-101
   104.844375000000         1.789549078413880E-101
   105.058125000000         2.215940928916558E-101
   105.271875000000         2.333032534281910E-101
   105.485625000000         1.877799815705147E-101
   105.699375000000         5.558091547465168E-102
   105.913125000000        -1.897779170267052E-101
   106.126875000000        -5.621060637799271E-101
   106.340625000000        -1.049368611066239E-100
   106.554375000000        -1.598329888759634E-100
   106.768125000000        -2.099819636965356E-100
   106.981875000000        -2.379264298432281E-100
   107.195625000000        -2.198935159300853E-100
   107.409375000000        -1.279612752325683E-100
   107.623125000000         6.506985061101756E-101
   107.836875000000         3.775651066332210E-100
   108.050625000000         8.077065414891126E-100
   108.264375000000         1.319823681444854E-099
   108.478125000000         1.830607821856516E-099
   108.691875000000         2.198970948207605E-099
   108.905625000000         2.224883785482878E-099
   109.119375000000         1.663688043208027E-099
   109.333125000000         2.625211005174881E-100
   109.546875000000        -2.176110524837194E-099
   109.760625000000        -5.702649583201684E-099
   109.974375000000        -1.010682174962559E-098
   110.188125000000        -1.479824795307324E-098
   110.401875000000        -1.871003824656447E-098
   110.615625000000        -2.026691827059456E-098
   110.829375000000        -1.746945135677010E-098
   111.043125000000        -8.148502851144307E-099
   111.256875000000         9.566310546847326E-099
   111.470625000000         3.654946991826894E-098
   111.684375000000         7.179086323192017E-098
   111.898125000000         1.114282212704187E-097
   112.111875000000         1.479073861300652E-097
   112.325625000000         1.695763647300283E-097
   112.539375000000         1.611003775253834E-097
   112.753125000000         1.051152928720616E-097
   112.966875000000        -1.452442817523513E-098
   113.180625000000        -2.077413280719317E-097
   113.394375000000        -4.716714701347272E-097
   113.608125000000        -7.832724937846254E-097
   113.821875000000        -1.092509383008310E-096
   114.035625000000        -1.318253494751898E-096
   114.249375000000        -1.349656369004037E-096
   114.463125000000        -1.056055550878319E-096
   114.676875000000        -3.081552204639311E-097
   114.890625000000         9.879924836061647E-097
   115.104375000000         2.845035472610559E-096
   115.318125000000         5.140809847095129E-096
   115.531875000000         7.566306991523849E-096
   115.745625000000         9.589280330221013E-096
   115.959375000000         1.045225634374164E-095
   116.173125000000         9.226315776956029E-096
   116.386875000000         4.940750464384984E-096
   116.600625000000        -3.198403879914625E-096
   116.814375000000        -1.550258418633918E-095
   117.028125000000        -3.143220208747821E-095
   117.241875000000        -4.922029047214156E-095
   117.455625000000        -6.557763888945265E-095
   117.669375000000        -7.560121735887855E-095
   117.883125000000        -7.302881799229357E-095
   118.096875000000        -5.098077650569850E-095
   118.310625000000        -3.291393393217809E-096
   118.524375000000         7.355323724740132E-095
   118.738125000000         1.779941739249560E-094
   118.951875000000         3.008089965700396E-094
   119.165625000000         4.228884604378217E-094
   119.379375000000         5.141371977155448E-094
   119.593125000000         5.344160107516826E-094
   119.806875000000         4.374719172106566E-094
   120.020625000000         1.786163929489225E-094
   120.234375000000        -2.735641638770190E-094
   120.448125000000        -9.219975929728206E-094
   120.661875000000        -1.724095680725388E-093
   120.875625000000        -2.575977177508242E-093
   121.089375000000        -3.302451689540764E-093
   121.303125000000        -3.658428030105154E-093
   121.516875000000        -3.347853884038935E-093
   121.730625000000        -2.065520157724566E-093
   121.944375000000         4.354186544308618E-094
   122.158125000000         4.251902422520083E-093
   122.371875000000         9.223763384837178E-093
   122.585625000000         1.482759911912629E-092
   122.799375000000         2.009748346367445E-092
   123.013125000000         2.360617782026034E-092
   123.226875000000         2.354478325728961E-092
   123.440625000000         1.793643230007134E-092
   123.654375000000         5.007589578364077E-093
   123.868125000000        -1.628363991976935E-092