  -1.60312500000000         0.000000000000000E+000
  -1.38937500000000         0.000000000000000E+000
  -1.17562500000000         0.000000000000000E+000
 -0.961875000000000         0.000000000000000E+000
 -0.748125000000000         0.000000000000000E+000
 -0.534375000000000         0.000000000000000E+000
 -0.320625000000000         0.000000000000000E+000
 -0.106875000000000         0.000000000000000E+000
  0.106875000000000         0.000000000000000E+000
  0.320625000000000         0.000000000000000E+000
  0.534375000000000         0.000000000000000E+000
  0.748125000000000         0.000000000000000E+000
  0.961875000000000         0.000000000000000E+000
   1.17562500000000         0.000000000000000E+000
   1.38937500000000         0.000000000000000E+000
   1.60312500000000         0.000000000000000E+000
   1.81687500000000         0.000000000000000E+000
   2.03062500000000         0.000000000000000E+000
   2.24437500000000         0.000000000000000E+000
   2.45812500000000         0.000000000000000E+000
   2.67187500000000         0.000000000000000E+000
   2.88562500000000         0.000000000000000E+000
   3.09937500000000         0.000000000000000E+000
   3.31312500000000         0.000000000000000E+000
   3.52687500000000         0.000000000000000E+000
   3.74062500000000         0.000000000000000E+000
   3.95437500000000         0.000000000000000E+000
   4.16812500000000         0.000000000000000E+000
   4.38187500000000         0.000000000000000E+000
   4.59562500000000         0.000000000000000E+000
   4.80937500000000         0.000000000000000E+000
   5.02312500000000         0.000000000000000E+000
   5.23687500000000         0.000000000000000E+000
   5.45062500000000         0.000000000000000E+000
   5.66437500000000         0.000000000000000E+000
   5.87812500000000         0.000000000000000E+000
   6.09187500000000         0.000000000000000E+000
   6.30562500000000         0.000000000000000E+000
   6.51937500000000         0.000000000000000E+000
   6.73312500000000         0.000000000000000E+000
   6.94687500000000         0.000000000000000E+000
   7.16062500000000         0.000000000000000E+000
   7.37437500000000         0.000000000000000E+000
   7.58812500000000         0.000000000000000E+000
   7.80187500000000         0.000000000000000E+000
   8.01562500000000         0.000000000000000E+000
   8.22937500000000         0.000000000000000E+000
   8.44312500000000         0.000000000000000E+000
   8.65687500000000         0.000000000000000E+000
   8.87062500000000         0.000000000000000E+000
   9.08437500000000         0.000000000000000E+000
   9.29812500000000         0.000000000000000E+000
   9.51187500000000         0.000000000000000E+000
   9.72562500000000         0.000000000000000E+000
   9.93937500000000         0.000000000000000E+000
   10.1531250000000         0.000000000000000E+000
   10.3668750000000         0.000000000000000E+000
   10.5806250000000         0.000000000000000E+000
   10.7943750000000         0.000000000000000E+000
   11.0081250000000         0.000000000000000E+000
   11.2218750000000         0.000000000000000E+000
   11.4356250000000        -7.622939524471044E-255
   11.6493750000000         3.601588443216347E-248
   11.8631250000000         2.848855610483687E-242
   12.0768750000000        -1.274287607253222E-238
   12.2906250000000        -3.675726565151729E-236
   12.5043750000000        -3.692640958706643E-234
   12.7181250000000        -2.305319158947268E-232
   12.9318750000000        -1.023924694335471E-230
   13.1456250000000        -3.431457089600455E-229
   13.3593750000000        -9.032468828607526E-228
   13.5731250000000        -1.927008483686043E-226
   13.7868750000000        -3.435981572387335E-225
   14.0006250000000        -4.824404800927895E-224
   14.2143750000000        -4.724965357333508E-223
   14.4281250000000        -2.244105066300648E-222
   14.6418750000000         6.880217871135540E-221
   14.8556250000000         3.296180947755813E-219
   15.0693750000000         6.024445807771887E-218
   15.2831250000000         1.009829738963948E-217
   15.4968750000000        -1.618899344665433E-215
   15.7106250000000        -2.435653896371700E-214
   15.9243750000000         1.895394282285615E-213
   16.1381250000000         1.085908196517472E-211
   16.3518750000000         9.669766241737207E-211
   16.5656250000000        -3.181623979615355E-209
   16.7793750000000        -1.447251527323348E-207
   16.9931250000000        -3.382689519010900E-206
   17.2068750000000        -5.853128710427302E-205
   17.4206250000000        -8.287146282456282E-204
   17.6343750000000        -1.005474405614517E-202
   17.8481250000000        -1.073551635217845E-201
   18.0618750000000        -1.026249806101583E-200
   18.2756250000000        -8.889900556385725E-200
   18.4893750000000        -7.040100323844905E-199
   18.7031250000000        -5.130487215175749E-198
   18.9168750000000        -3.457655995594756E-197
   19.1306250000000        -2.162829742862951E-196
   19.3443750000000        -1.258798919213655E-195
   19.5581250000000        -6.826271426285927E-195
   19.7718750000000        -3.449832781909463E-194
   19.9856250000000        -1.622916391170074E-193
   20.1993750000000        -7.085760635704823E-193
   20.4131250000000        -2.855112012490504E-192
   20.6268750000000        -1.051167154011333E-191
   20.8406250000000        -3.472922710917132E-191
   21.0543750000000        -9.935341867456457E-191
   21.2681250000000        -2.258126296942180E-190
   21.4818750000000        -2.903640064974876E-190
   21.6956250000000         5.472344926482902E-190
   21.9093750000000         4.923577206683202E-189
   22.1231250000000         1.338681308729299E-188
   22.3368750000000        -2.930907963662796E-188
   22.5506250000000        -5.895089637689094E-187
   22.7643750000000        -4.372749010249359E-186
   22.9781250000000        -2.440930082585462E-185
   23.1918750000000        -1.159742961227353E-184
   23.4056250000000        -4.909179389091338E-184
   23.6193750000000        -1.891241236637487E-183
   23.8331250000000        -6.699281567509752E-183
   24.0468750000000        -2.189665286389817E-182
   24.2606250000000        -6.588692950538814E-182
   24.4743750000000        -1.807557227482987E-181
   24.6881250000000        -4.417944531177270E-181
   24.9018750000000        -9.084231251316722E-181
   25.1156250000000        -1.289776875765058E-180
   25.3293750000000         4.097430641650057E-181
   25.5431250000000         1.227591098885994E-179
   25.7568750000000         6.049498425920461E-179
   25.9706250000000         2.168453360193458E-178
   26.1843750000000         6.458897688475176E-178
   26.3981250000000         1.630595907986818E-177
   26.6118750000000         3.322767139412107E-177
   26.8256250000000         4.196310002355634E-177
   27.0393750000000        -5.242365672016814E-177
   27.2531250000000        -6.388241231267122E-176
   27.4668750000000        -3.054319705278626E-175
   27.6806250000000        -1.142512518699201E-174
   27.8943750000000        -3.750521470788464E-174
   28.1081250000000        -1.126240772934573E-173
   28.3218750000000        -3.154049671500354E-173
   28.5356250000000        -8.317994051909089E-173
   28.7493750000000        -2.074443499685302E-172
   28.9631250000000        -4.891746599997131E-172
   29.1768750000000        -1.085368766746957E-171
   29.3906250000000        -2.238383303115162E-171
   29.6043750000000        -4.176114320522037E-171
   29.8181250000000        -6.584770348463674E-171
   30.0318750000000        -6.775497129722013E-171
   30.2456250000000         5.675595121131970E-171
   30.4593750000000         6.295341150643475E-170
   30.6731250000000         2.525823054938150E-169
   30.8868750000000         7.913600707432728E-169
   31.1006250000000         2.174149038716898E-168
   31.3143750000000         5.441811696368120E-168
   31.5281250000000         1.258973818620415E-167
   31.7418750000000         2.700461643904136E-167
   31.9556250000000         5.339412021431927E-167
   32.1693750000000         9.561501885826026E-167
   32.3831250000000         1.485460423793762E-166
   32.5968750000000         1.760178295006170E-166
   32.8106250000000         6.060094490940602E-167
   33.0243750000000        -4.952656878249065E-166
   33.2381250000000        -2.135777973132705E-165
   33.4518750000000        -6.074429127969502E-165
   33.6656250000000        -1.425763775920815E-164
   33.8793750000000        -2.910020198775775E-164
   34.0931250000000        -5.191647303396029E-164
   34.3068750000000        -7.834083696030859E-164
   34.5206250000000        -8.801733986690663E-164
   34.7343750000000        -2.538967136354395E-164
   34.9481250000000         2.293856574931525E-163
   35.1618750000000         8.911421580897627E-163
   35.3756250000000         2.269917069506036E-162
   35.5893750000000         4.660234292898374E-162
   35.8031250000000         7.959758951489155E-162
   36.0168750000000         1.076116207202794E-161
   36.2306250000000         8.617172131875993E-162
   36.4443750000000        -8.623919873791945E-162
   36.6581250000000        -5.968426344235559E-161
   36.8718750000000        -1.720680791194937E-160
   37.0856250000000        -3.724727446406647E-160
   37.2993750000000        -6.532035789569852E-160
   37.5131250000000        -8.916100219305534E-160
   37.7268750000000        -6.946253381467038E-160
   37.9406250000000         8.451140829140463E-160
   38.1543750000000         5.428086359128636E-159
   38.3681250000000         1.562890862024825E-158
   38.5818750000000         3.416771659591735E-158
   38.7956250000000         6.108962918381792E-158
   39.0093750000000         8.660304057061647E-158
   39.2231250000000         7.637209479364433E-158
   39.4368750000000        -5.379004706445060E-158
   39.6506250000000        -4.728975590460293E-157
   39.8643750000000        -1.465088014311109E-156
   40.0781250000000        -3.408213590040718E-156
   40.2918750000000        -6.587644311097170E-156
   40.5056250000000        -1.061889192872215E-155
   40.7193750000000        -1.309510784836926E-155
   40.9331250000000        -6.935363544365811E-156
   41.1468750000000         2.400685818849612E-155
   41.3606250000000         1.107096100109531E-154
   41.5743750000000         3.032361925498230E-154
   41.7881250000000         6.647039195944724E-154
   42.0018750000000         1.234811500251470E-153
   42.2156250000000         1.924455545076880E-153
   42.4293750000000         2.280451121734496E-153
   42.6431250000000         1.047140709565341E-153
   42.8568750000000        -4.510398210460249E-153
   43.0706250000000        -1.938414318510458E-152
   43.2843750000000        -5.111019872318160E-152
   43.4981250000000        -1.080372642281546E-151
   43.7118750000000        -1.924677205080759E-151
   43.9256250000000        -2.834845680184674E-151
   44.1393750000000        -3.027580690683620E-151
   44.3531250000000        -5.867695509603201E-152
   44.5668750000000         8.238343514708326E-151
   44.7806250000000         2.947549823653049E-150
   44.9943750000000         7.052839418181529E-150
   45.2081250000000         1.357126665221289E-149
   45.4218750000000         2.145687901602154E-149
   45.6356250000000         2.583882200652975E-149
   45.8493750000000         1.422882279077811E-149
   46.0631250000000        -3.805113767393719E-149
   46.2768750000000        -1.701282332621165E-148
   46.4906250000000        -4.275864829918382E-148
   46.7043750000000        -8.285215725365432E-148
   46.9181250000000        -1.278727603271748E-147
   47.1318750000000        -1.406911038168492E-147
   47.3456250000000        -3.080209860183097E-148
   47.5593750000000         3.746565600750603E-147
   47.7731250000000         1.339838038705563E-146
   47.9868750000000         3.151781138799928E-146
   48.2006250000000         5.864049820422533E-146
   48.4143750000000         8.679120032564023E-146
   48.6281250000000         8.766468197704802E-146
   48.8418750000000        -5.786829403617327E-147
   49.0556250000000        -3.208174683426761E-145
   49.2693750000000        -1.054731153944005E-144
   49.4831250000000        -2.436743095210974E-144
   49.6968750000000        -4.570826771445841E-144
   49.9106250000000        -7.045435292482459E-144
   50.1243750000000        -8.166724941188348E-144
   50.3381250000000        -3.713244995949379E-144
   50.5518750000000         1.466578464306653E-143
   50.7656250000000         6.069733551853734E-143
   50.9793750000000         1.524765537049534E-142
   51.1931250000000         3.053271114082741E-142
   51.4068750000000         5.120028052184703E-142
   51.6206250000000         7.013044137105735E-142
   51.8343750000000         6.665987004504896E-142
   52.0481250000000        -3.578593538295713E-143
   52.2618750000000        -2.192885745658074E-141
   52.4756250000000        -6.966242455605898E-141
   52.6893750000000        -1.567255652378555E-140
   52.9031250000000        -2.900093630601408E-140
   53.1168750000000        -4.520395310450621E-140
   53.3306250000000        -5.673362713205155E-140
   53.5443750000000        -4.502056983129884E-140
   53.7581250000000         2.601658718738730E-140
   53.9718750000000         2.150589278202643E-139
   54.1856250000000         6.005239370608925E-139
   54.3993750000000         1.257226759648598E-138
   54.6131250000000         2.192675007855369E-138
   54.8268750000000         3.217353741061490E-138
   55.0406250000000         3.726327816428638E-138
   55.2543750000000         2.394341576633796E-138
   55.4681250000000        -3.146544726991811E-138
   55.6818750000000        -1.644430688044859E-137
   55.8956250000000        -4.175773516655124E-137
   56.1093750000000        -8.226348895608457E-137
   56.3231250000000        -1.359283766371860E-136
   56.5368750000000        -1.879511303974824E-136
   56.7506250000000        -1.992094249480153E-136
   56.9643750000000        -9.194960427887118E-137
   57.1781250000000         2.621131895200388E-136
   57.3918750000000         1.039245090212997E-135
   57.6056250000000         2.424690500770390E-135
   57.8193750000000         4.503821390880729E-135
   58.0331250000000         7.042473385846620E-135
   58.2468750000000         9.122762185800470E-135
   58.4606250000000         8.641339356063773E-135
   58.6743750000000         1.776954861803075E-135
   58.8881250000000        -1.727899766745138E-134
   59.1018750000000        -5.574695114606362E-134
   59.3156250000000        -1.198942492608635E-133
   59.5293750000000        -2.096155026107927E-133
   59.7431250000000        -3.086764627284366E-133
   59.9568750000000        -3.700940349083175E-133
   60.1706250000000        -2.983315491276474E-133
   60.3843750000000         6.555938409746141E-134
   60.5981250000000         9.424358894929250E-133
   60.8118750000000         2.573950198188436E-132
   61.0256250000000         5.108407918071913E-132
   61.2393750000000         8.375280570523164E-132
   61.4531250000000         1.152087202032240E-131
   61.6668750000000         1.252012732953443E-131
   61.8806250000000         7.673519375277949E-132
   62.0943750000000        -8.639269698051652E-132
   62.3081250000000        -4.344402395035446E-131
   62.5218750000000        -1.031237642474850E-130
   62.7356250000000        -1.888737695410715E-130
   62.9493750000000        -2.887883713504217E-130
   63.1631250000000        -3.664208888590373E-130
   63.3768750000000        -3.474284770995790E-130
   63.5906250000000        -1.091696174275456E-130
   63.8043750000000         5.169697191689782E-130
   64.0181250000000         1.714717135300631E-129
   64.2318750000000         3.602425147513852E-129
   64.4456250000000         6.081178135658301E-129
   64.6593750000000         8.600059374458584E-129
   64.8731250000000         9.857176537332392E-129
   65.0868750000000         7.513924671597876E-129
   65.3006250000000        -1.907036264008762E-129
   65.5143750000000        -2.264888103135887E-128
   65.7281250000000        -5.846245958820733E-128
   65.9418750000000        -1.100004616720674E-127
   66.1556250000000        -1.705283038744504E-127
   66.3693750000000        -2.200785123307862E-127
   66.5831250000000        -2.191475378266890E-127
   66.7968750000000        -1.046377362460237E-127
   67.0106250000000         2.070757554992496E-127
   67.2243750000000         8.027511072583042E-127
   67.4381250000000         1.731911475458170E-126
   67.6518750000000         2.936092571453367E-126
   67.8656250000000         4.146815189158919E-126
   68.0793750000000         4.766195177947728E-126
   68.2931250000000         3.769546380007874E-126
   68.5068750000000        -2.948450862532145E-127
   68.7206250000000        -9.093213578482046E-126
   68.9343750000000        -2.393551614606423E-125
   69.1481250000000        -4.470836262346208E-125
   69.3618750000000        -6.825880954982098E-125
   69.5756250000000        -8.638633074241954E-125
   69.7893750000000        -8.397555388069573E-125
   70.0031250000000        -3.834681627195372E-125
   70.2168750000000         7.845964033507784E-125
   70.4306250000000         2.922234545240590E-124
   70.6443750000000         6.116363654626831E-124
   70.8581250000000         1.004719395029328E-123
   71.0718750000000         1.368153004074841E-123
   71.2856250000000         1.496311270831340E-123
   71.4993750000000         1.064524371277339E-123
   71.7131250000000        -3.495679051565418E-124
   71.9268750000000        -3.174488562087240E-123
   72.1406250000000        -7.649220784310062E-123
   72.3543750000000        -1.350155783480432E-122
   72.5681250000000        -1.951474532467925E-122
   72.7818750000000        -2.306521297745256E-122
   72.9956250000000        -1.981803705527369E-122
   73.2093750000000        -3.894810793806373E-123
   73.4231250000000         3.105373247509037E-122
   73.6368750000000         8.939752011612583E-122
   73.8506250000000         1.693652093235902E-121
   74.0643750000000         2.572805853646043E-121
   74.2781250000000         3.211743495626337E-121
   74.4918750000000         3.060813009838953E-121
   74.7056250000000         1.350022318111215E-121
   74.9193750000000        -2.789083185395011E-121
   75.1331250000000        -1.002702673169095E-120
   75.3468750000000        -2.031850259710924E-120
   75.5606250000000        -3.216909274026792E-120
   75.7743750000000        -4.179867058336674E-120
   75.9881250000000        -4.247859084817351E-120
   76.2018750000000        -2.452928783419449E-120
   76.4156250000000         2.333125523612244E-120
   76.6293750000000         1.104990391206483E-119
   76.8431250000000         2.382269549237741E-119
   77.0568750000000         3.905841550661587E-119
   77.2706250000000         5.238706468226464E-119
   77.4843750000000         5.577065039740577E-119
   77.6981250000000         3.735690133880535E-119
   77.9118750000000        -1.708912179243942E-119
   78.1256250000000        -1.202012671945002E-118
   78.3393750000000        -2.756556496561515E-118
   78.5531250000000        -4.672985837217804E-118
   78.7668750000000        -6.460469257580347E-118
   78.9806250000000        -7.181524946485762E-118
   79.1943750000000        -5.414547133564958E-118
   79.4081250000000         6.060523585393471E-119
   79.6218750000000         1.255443079025784E-117
   79.8356250000000         3.117692717007740E-117
   80.0493750000000         5.501931411069676E-117
   80.2631250000000         7.883817163117821E-117
   80.4768750000000         9.207508960897967E-117
   80.6906250000000         7.812197234629986E-117
   80.9043750000000         1.548545438416576E-117
   81.1181250000000        -1.177654587588944E-116
   81.3318750000000        -3.349314791876994E-116
   81.5456250000000        -6.263226070090249E-116
   81.7593750000000        -9.405323239718372E-116
   81.9731250000000        -1.165034377548158E-115
   82.1868750000000        -1.113668076528226E-115
   82.4006250000000        -5.330185187390659E-116
   82.6143750000000         8.566157300106585E-116
   82.8281250000000         3.269295496944685E-115
   83.0418750000000         6.699645872834102E-115
   83.2556250000000         1.071144996750632E-114
   83.4693750000000         1.420067526113763E-114
   83.6831250000000         1.520588212212194E-114
   83.8968750000000         1.088862401419456E-114
   84.1106250000000        -2.147079933085162E-115
   84.3243750000000        -2.700550891659660E-114
   84.5381250000000        -6.496442044314947E-114
   84.7518750000000        -1.132282090817897E-113
   84.9656250000000        -1.622016915340914E-113
   85.1793750000000        -1.929218686561440E-113
   85.3931250000000        -1.758084497849987E-113
   85.6068750000000        -7.243866243432799E-114
   85.8206250000000         1.575749452495880E-113
   86.0343750000000         5.426215893860853E-113
   86.2481250000000         1.077010192304113E-112
   86.4618750000000         1.691926156504166E-112
   86.6756250000000         2.224283887071824E-112
   86.8893750000000         2.393459447714377E-112
   87.1031250000000         1.801758274841217E-112
   87.3168750000000        -2.047124736541784E-114
   87.5306250000000        -3.502521974028948E-112
   87.7443750000000        -8.836572688840340E-112
   87.9581250000000        -1.569555328307038E-111
   88.1718750000000        -2.289535131717484E-111
   88.3856250000000        -2.807709923266497E-111
   88.5993750000000        -2.754290181165864E-111
   88.8131250000000        -1.643649478936044E-111
   89.0268750000000         1.050152996161507E-111
   89.2406250000000         5.738644269140310E-111
   89.4543750000000         1.247323269382855E-110
   89.6681250000000         2.061918659729917E-110
   89.8818750000000         2.849715314811774E-110
   90.0956250000000         3.309105349677746E-110
   90.3093750000000         2.997938551077654E-110
   90.5231250000000         1.369805850176506E-110
   90.7368750000000        -2.123639482778893E-110
   90.9506250000000        -7.845533514089723E-110
   91.1643750000000        -1.569679568787092E-109
   91.3781250000000        -2.477062474458995E-109
   91.5918750000000        -3.299991194458000E-109
   91.8056250000000        -3.690998622066362E-109
   92.0193750000000        -3.164261127300239E-109
   92.2331250000000        -1.145747165858742E-109
   92.4468750000000         2.907875704866513E-109
   92.6606250000000         9.306720103482528E-109
   92.8743750000000         1.784233131046435E-108
   93.0881250000000         2.744752804859835E-108
   93.3018750000000         3.586822199207581E-108
   93.5156250000000         3.946061864442766E-108
   93.7293750000000         3.327279276580469E-108
   93.9431250000000         1.159927441123291E-108
   94.1568750000000        -3.080971036723324E-108
   94.3706250000000        -9.677049926965042E-108
   94.5843750000000        -1.839572819164032E-107
   94.7981250000000        -2.817484613318329E-107
   95.0118750000000        -3.682538705619795E-107
   95.2256250000000        -4.085427412396865E-107
   95.4393750000000        -3.554630967061508E-107
   95.6531250000000        -1.546673891845850E-107
   95.8668750000000         2.446269367261809E-107
   96.0806250000000         8.721939154867460E-107
   96.2943750000000         1.712966625376842E-106
   96.5081250000000         2.679106680766513E-106
   96.7218750000000         3.582966480536770E-106
   96.9356250000000         4.119066816980344E-106
   97.1493750000000         3.866221812586722E-106
   97.3631250000000         2.322965495480314E-106
   97.5768750000000        -1.010672309143803E-106
   97.7906250000000        -6.495530383060203E-106
   98.0043750000000        -1.415852174043210E-105
   98.2181250000000        -2.345313224646134E-105
   98.4318750000000        -3.300704008549737E-105
   98.6456250000000        -4.041254892981476E-105
   98.8593750000000        -4.214110411752398E-105
   99.0731250000000        -3.368571352377593E-105
   99.2868750000000        -1.004780074692153E-105
   99.5006250000000         3.332088531143249E-105
   99.7143750000000         9.904538874608623E-105
   99.9281250000000         1.858219463349084E-104
   100.141875000000         2.860010941588658E-104
   100.355625000000         3.830591201659365E-104
   100.569375000000         4.494897909199250E-104
   100.783125000000         4.459217154079827E-104
   100.996875000000         3.225497149088756E-104
   101.210625000000         2.420265276454966E-105
   101.424375000000        -4.995389641063480E-104
   101.638125000000        -1.277951834471411E-103
   101.851875000000        -2.295931923017015E-103
   102.065625000000        -3.464659017630806E-103
   102.279375000000        -4.589112656815852E-103
   102.493125000000        -5.338594100873082E-103
   102.706875000000        -5.230562248200208E-103
   102.920625000000        -3.642790557330296E-103
   103.134375000000         1.268304016635490E-104
   103.348125000000         6.731211930256734E-103
   103.561875000000         1.655620035668267E-102
   103.775625000000         2.940411288602672E-102
   103.989375000000         4.408958516282794E-102
   104.203125000000         5.799331470964383E-102
   104.416875000000         6.666893163773363E-102
   104.630625000000         6.366001643754020E-102
   104.844375000000         4.074923301213373E-102
   105.058125000000        -1.108769681026137E-102
   105.271875000000        -9.974095246437769E-102
   105.485625000000        -2.288241818005617E-101
   105.699375000000        -3.933028212718418E-101
   105.913125000000        -5.742077632541933E-101
   106.126875000000        -7.332665034757907E-101
   106.340625000000        -8.089572073033868E-101
   106.554375000000        -7.162386433904913E-101
   106.768125000000        -3.528639251686056E-101
   106.981875000000         3.845177487808980E-101
   107.195625000000         1.571690365016500E-100
   107.409375000000         3.214411002257489E-100
   107.623125000000         5.194031262969556E-100
   107.836875000000         7.207926535579163E-100
   108.050625000000         8.717966421955083E-100
   108.264375000000         8.927740051458329E-100
   108.478125000000         6.816247574717912E-100
   108.691875000000         1.259912446393544E-100
   108.905625000000        -8.727197947623203E-100
   109.119375000000        -2.361696595136265E-099
   109.333125000000        -4.286222592741679E-099
   109.546875000000        -6.431246408027203E-099
   109.760625000000        -8.365694541520849E-099
   109.974375000000        -9.407009703323869E-099
   110.188125000000        -8.630110363509650E-099
   110.401875000000        -4.949639481230957E-099
   110.615625000000         2.695713168250868E-099
   110.829375000000         1.503613100113710E-098
   111.043125000000         3.203953998177337E-098
   111.256875000000         5.238820889614439E-098
   111.470625000000         7.294188058550763E-098
   111.684375000000         8.832382279458185E-098
   111.898125000000         9.082582935919696E-098
   112.111875000000         7.087512850702700E-098
   112.325625000000         1.831919292990563E-098
   112.539375000000        -7.526250222004086E-098
   112.753125000000        -2.131449234233884E-097
   112.966875000000        -3.891106202598642E-097
   113.180625000000        -5.826977709501135E-097
   113.394375000000        -7.550284967832026E-097
   113.608125000000        -8.467004444274969E-097
   113.821875000000        -7.796581881269735E-097
   114.035625000000        -4.651751881664072E-097
   114.249375000000         1.801260422582729E-097
   114.463125000000         1.209124402859844E-096
   114.676875000000         2.610489900921165E-096
   114.890625000000         4.269561945571979E-096
   115.104375000000         5.930389640822934E-096
   115.318125000000         7.169430871435322E-096
   115.531875000000         7.395140709689649E-096
   115.745625000000         5.890149489783789E-096
   115.959375000000         1.912510437425248E-096
   116.173125000000        -5.132049410032000E-096
   116.386875000000        -1.544537316817363E-095
   116.600625000000        -2.853547281723747E-095
   116.814375000000        -4.289858020787593E-095
   117.028125000000        -5.575404707612768E-095
   117.241875000000        -6.293164851480248E-095
   117.455625000000        -5.903485500347695E-095
   117.669375000000        -3.801172485787651E-095
   117.883125000000         5.754576888787891E-096
   118.096875000000         7.578315509976144E-095
   118.310625000000         1.713172805139105E-094
   118.524375000000         2.848494580945335E-094
   118.738125000000         3.997756329061692E-094
   118.951875000000         4.888336944202389E-094
   119.165625000000         5.141896140249872E-094
   119.379375000000         4.301580652662343E-094
   119.593125000000         1.895019646833775E-094
   119.806875000000        -2.460426184149462E-094
   120.020625000000        -8.910045503720844E-094
   120.234375000000        -1.718186851195773E-093
   120.448125000000        -2.639843525039591E-093
   120.661875000000        -3.492062248014094E-093
   120.875625000000        -4.028041572104118E-093
   121.089375000000        -3.927218336761657E-093
   121.303125000000        -2.827552637007022E-093
   121.516875000000        -3.870872399326072E-094
   121.730625000000         3.622461260100748E-093
   121.944375000000         9.193328500041800E-093
   122.158125000000         1.594257375965811E-092
   122.371875000000         2.297931658985028E-092
   122.585625000000         2.881358277997766E-092
   122.799375000000         3.135288768230166E-092
   123.013125000000         2.803902467395589E-092
   123.226875000000         1.617517208180460E-092
   123.440625000000        -6.522121406589416E-093
   123.654375000000        -4.114426466717257E-092
   123.868125000000        -8.663566699244201E-092