  -1.60312500000000         0.000000000000000E+000
  -1.38937500000000         0.000000000000000E+000
  -1.17562500000000         0.000000000000000E+000
 -0.961875000000000         0.000000000000000E+000
 -0.748125000000000         0.000000000000000E+000
 -0.534375000000000         0.000000000000000E+000
 -0.320625000000000         0.000000000000000E+000
 -0.106875000000000         0.000000000000000E+000
  0.106875000000000         0.000000000000000E+000
  0.320625000000000         0.000000000000000E+000
  0.534375000000000         0.000000000000000E+000
  0.748125000000000         0.000000000000000E+000
  0.961875000000000         0.000000000000000E+000
   1.17562500000000         0.000000000000000E+000
   1.38937500000000         0.000000000000000E+000
   1.60312500000000         0.000000000000000E+000
   1.81687500000000         0.000000000000000E+000
   2.03062500000000         0.000000000000000E+000
   2.24437500000000         0.000000000000000E+000
   2.45812500000000         0.000000000000000E+000
   2.67187500000000         0.000000000000000E+000
   2.88562500000000         0.000000000000000E+000
   3.09937500000000         0.000000000000000E+000
   3.31312500000000         0.000000000000000E+000
   3.52687500000000         0.000000000000000E+000
   3.74062500000000         0.000000000000000E+000
   3.95437500000000         0.000000000000000E+000
   4.16812500000000         0.000000000000000E+000
   4.38187500000000         0.000000000000000E+000
   4.59562500000000         0.000000000000000E+000
   4.80937500000000         0.000000000000000E+000
   5.02312500000000         0.000000000000000E+000
   5.23687500000000         0.000000000000000E+000
   5.45062500000000         0.000000000000000E+000
   5.66437500000000         0.000000000000000E+000
   5.87812500000000         0.000000000000000E+000
   6.09187500000000         0.000000000000000E+000
   6.30562500000000         0.000000000000000E+000
   6.51937500000000         0.000000000000000E+000
   6.73312500000000         0.000000000000000E+000
   6.94687500000000         0.000000000000000E+000
   7.16062500000000         0.000000000000000E+000
   7.37437500000000         0.000000000000000E+000
   7.58812500000000         0.000000000000000E+000
   7.80187500000000         0.000000000000000E+000
   8.01562500000000         0.000000000000000E+000
   8.22937500000000         0.000000000000000E+000
   8.44312500000000         0.000000000000000E+000
   8.65687500000000         0.000000000000000E+000
   8.87062500000000         0.000000000000000E+000
   9.08437500000000         0.000000000000000E+000
   9.29812500000000         0.000000000000000E+000
   9.51187500000000         0.000000000000000E+000
   9.72562500000000         0.000000000000000E+000
   9.93937500000000         0.000000000000000E+000
   10.1531250000000         0.000000000000000E+000
   10.3668750000000         0.000000000000000E+000
   10.5806250000000         0.000000000000000E+000
   10.7943750000000         0.000000000000000E+000
   11.0081250000000         0.000000000000000E+000
   11.2218750000000         0.000000000000000E+000
   11.4356250000000         0.000000000000000E+000
   11.6493750000000         0.000000000000000E+000
   11.8631250000000         0.000000000000000E+000
   12.0768750000000         7.699378332603817E-261
   12.2906250000000        -9.676552640251613E-254
   12.5043750000000         7.838518048479883E-251
   12.7181250000000         2.861005525283026E-248
   12.9318750000000         2.455894339154105E-246
   13.1456250000000         1.966583120589513E-244
   13.3593750000000         5.859335150327811E-231
   13.5731250000000        -7.363672713430354E-224
   13.7868750000000         1.657484107974858E-220
   14.0006250000000         4.876042947390179E-219
   14.2143750000000         1.658697346828597E-216
   14.4281250000000         1.618292770588956E-214
   14.6418750000000         7.916460886135624E-213
   14.8556250000000         2.527982992399479E-211
   15.0693750000000         5.936763595074856E-210
   15.2831250000000         1.095738844208422E-208
   15.4968750000000         1.658715884087892E-207
   15.7106250000000         2.123783082202371E-206
   15.9243750000000         2.358057615952295E-205
   16.1381250000000         2.322407639063004E-204
   16.3518750000000         2.074086623176657E-203
   16.5656250000000         1.714503063886172E-202
   16.7793750000000         1.331173757531744E-201
   16.9931250000000         9.721825855184968E-201
   17.2068750000000         6.547626477411640E-200
   17.4206250000000         3.854131101817283E-199
   17.6343750000000         1.713924518561417E-198
   17.8481250000000         1.956382585489934E-198
   18.0618750000000        -6.977091795060997E-197
   18.2756250000000        -1.058528161095406E-195
   18.4893750000000        -1.048615073537405E-194
   18.7031250000000        -8.433786603880551E-194
   18.9168750000000        -5.834683759833496E-193
   19.1306250000000        -3.536633160730845E-192
   19.3443750000000        -1.874342985200276E-191
   19.5581250000000        -8.458435740006879E-191
   19.7718750000000        -2.971884285265127E-190
   19.9856250000000        -5.040469129939537E-190
   20.1993750000000         3.515644742855743E-189
   20.4131250000000         4.891703657045914E-188
   20.6268750000000         3.838052630396399E-187
   20.8406250000000         2.433756072330051E-186
   21.0543750000000         1.356969459315860E-185
   21.2681250000000         6.882642445908943E-185
   21.4818750000000         3.231117706108956E-184
   21.6956250000000         1.418156664359612E-183
   21.9093750000000         5.855903475051420E-183
   22.1231250000000         2.284128490351408E-182
   22.3368750000000         8.437727650865467E-182
   22.5506250000000         2.956389930037973E-181
   22.7643750000000         9.830979913009257E-181
   22.9781250000000         3.102007578486643E-180
   23.1918750000000         9.277777752327484E-180
   23.4056250000000         2.624947683494158E-179
   23.6193750000000         7.002556296476855E-179
   23.8331250000000         1.752638857200820E-178
   24.0468750000000         4.084560190665107E-178
   24.2606250000000         8.759032159776829E-178
   24.4743750000000         1.693968919915727E-177
   24.6881250000000         2.842173553798634E-177
   24.9018750000000         3.755793487791895E-177
   25.1156250000000         2.475425196970693E-177
   25.3293750000000        -5.854896656106491E-177
   25.5431250000000        -3.218225511086985E-176
   25.7568750000000        -1.061423040596116E-175
   25.9706250000000        -3.392395451243727E-175
   26.1843750000000        -1.210588860747814E-174
   26.3981250000000        -4.676906130108571E-174
   26.6118750000000        -1.793168552169885E-173
   26.8256250000000        -6.467299240101250E-173
   27.0393750000000        -2.151755340060501E-172
   27.2531250000000        -6.573289162409856E-172
   27.4668750000000        -1.841348414864444E-171
   27.6806250000000        -4.714533735051154E-171
   27.8943750000000        -1.093156371979077E-170
   28.1081250000000        -2.245252500380625E-170
   28.3218750000000        -3.863511719953350E-170
   28.5356250000000        -4.593873053647353E-170
   28.7493750000000         1.032359046194542E-170
   28.9631250000000         2.910483490407465E-169
   29.1768750000000         1.189993679560420E-168
   29.3906250000000         3.531479460590003E-168
   29.6043750000000         8.763302899912228E-168
   29.8181250000000         1.881502252203333E-167
   30.0318750000000         3.471772190450857E-167
   30.2456250000000         5.206417035336326E-167
   30.4593750000000         5.014565997318624E-167
   30.6731250000000        -2.850276523376594E-167
   30.8868750000000        -3.062629795084205E-166
   31.1006250000000        -9.846700374922799E-166
   31.3143750000000        -2.272093363246984E-165
   31.5281250000000        -4.048560521781302E-165
   31.7418750000000        -4.926986420239086E-165
   31.9556250000000        -2.043175730707548E-166
   32.1693750000000         2.172371054748364E-164
   32.3831250000000         8.393896836782264E-164
   32.5968750000000         2.228483241122533E-163
   32.8106250000000         4.760991484181443E-163
   33.0243750000000         8.312574669347473E-163
   33.2381250000000         1.089183988828233E-162
   33.4518750000000         5.771834562242016E-163
   33.6656250000000        -2.340439251052066E-162
   33.8793750000000        -1.089343324964542E-161
   34.0931250000000        -3.027477104060197E-161
   34.3068750000000        -6.658845302907554E-161
   34.5206250000000        -1.218841668197030E-160
   34.7343750000000        -1.809825526297529E-160
   34.9481250000000        -1.844310175874724E-160
   35.1618750000000         1.633519737093635E-161
   35.3756250000000         7.150974183666598E-160
   35.5893750000000         2.383133485463713E-159
   35.8031250000000         5.584266768822270E-159
   36.0168750000000         1.058487426111878E-158
   36.2306250000000         1.635915249389342E-158
   36.4443750000000         1.864243279823789E-158
   36.6581250000000         6.906398484759436E-159
   36.8718750000000        -3.898994055045233E-158
   37.0856250000000        -1.495935224281508E-157
   37.2993750000000        -3.572376350993795E-157
   37.5131250000000        -6.653234551694948E-157
   37.7268750000000        -9.771773449967487E-157
   37.9406250000000        -9.674295346742925E-157
   38.1543750000000         9.770376170407089E-158
   38.3681250000000         3.511620088254465E-156
   38.5818750000000         1.100766711623927E-155
   38.7956250000000         2.383633849554095E-155
   39.0093750000000         4.010019482545117E-155
   39.2231250000000         4.904794885318942E-155
   39.4368750000000         2.123489754075830E-155
   39.6506250000000        -1.045932603289100E-154
   39.8643750000000        -4.311471030734482E-154
   40.0781250000000        -1.088843032941973E-153
   40.2918750000000        -2.154485327311929E-153
   40.5056250000000        -3.421733578716366E-153
   40.7193750000000        -3.903095120623124E-153
   40.9331250000000        -9.355051250024964E-154
   41.1468750000000         1.112619273757271E-152
   41.3606250000000         4.223298762164653E-152
   41.5743750000000         1.065755321174093E-151
   41.7881250000000         2.176900969135390E-151
   42.0018750000000         3.718769010987694E-151
   42.2156250000000         5.084276351304784E-151
   42.4293750000000         4.311496080135016E-151
   42.6431250000000        -3.219811977258129E-151
   42.8568750000000        -2.652457382426224E-150
   43.0706250000000        -8.043758259481684E-150
   43.2843750000000        -1.844937285645132E-149
   43.4981250000000        -3.542263763527808E-149
   43.7118750000000        -5.754245874786434E-149
   43.9256250000000        -7.464400395673076E-149
   44.1393750000000        -5.701624068445199E-149
   44.3531250000000         6.161376724653977E-149
   44.5668750000000         4.051302659937255E-148
   44.7806250000000         1.168893252789267E-147
   44.9943750000000         2.596172493063389E-147
   45.2081250000000         4.853370487782155E-147
   45.4218750000000         7.691308351789875E-147
   45.6356250000000         9.727167176175296E-147
   45.8493750000000         7.166505272386726E-147
   46.0631250000000        -8.095253779086309E-147
   46.2768750000000        -5.061007845758643E-146
   46.4906250000000        -1.423068268262050E-145
   46.7043750000000        -3.086969361123962E-145
   46.9181250000000        -5.634699077112058E-145
   47.1318750000000        -8.701618509420844E-145
   47.3456250000000        -1.065788577517430E-144
   47.5593750000000        -7.328966609570879E-145
   47.7731250000000         9.767170456728065E-145
   47.9868750000000         5.514202617870582E-144
   48.2006250000000         1.494335592073026E-143
   48.4143750000000         3.144079355670022E-143
   48.6281250000000         5.566059155949509E-143
   48.8418750000000         8.302105943398161E-143
   49.0556250000000         9.680852692008822E-143
   49.2693750000000         5.742684334958218E-143
   49.4831250000000        -1.110222973356262E-142
   49.6968750000000        -5.310839543075182E-142
   49.9106250000000        -1.364639390656747E-141
   50.1243750000000        -2.759085734583979E-141
   50.3381250000000        -4.699409667804997E-141
   50.5518750000000        -6.701742936466740E-141
   50.7656250000000        -7.286100253827431E-141
   50.9793750000000        -3.221224978446659E-141
   51.1931250000000         1.130044452661489E-140
   51.4068750000000         4.504753249423806E-140
   51.6206250000000         1.085689361288332E-139
   51.8343750000000         2.094297525633270E-139
   52.0481250000000         3.408461952366011E-139
   52.2618750000000         4.601527996222708E-139
   52.4756250000000         4.546638657068911E-139
   52.6893750000000         9.747136810770218E-140
   52.9031250000000        -9.922511735525340E-139
   53.1168750000000        -3.347122088483124E-138
   53.3306250000000        -7.534503645328638E-138
   53.5443750000000        -1.380569208246866E-137
   53.7581250000000        -2.135235531903804E-137
   53.9718750000000        -2.701501245456270E-137
   54.1856250000000        -2.340887724787367E-137
   54.3993750000000         3.215906735907097E-138
   54.6131250000000         7.433358125881254E-137
   54.8268750000000         2.174397712060114E-136
   55.0406250000000         4.572659758401368E-136
   55.2543750000000         7.940065374361427E-136
   55.4681250000000         1.161664764152502E-135
   55.6818750000000         1.361679050256413E-135
   55.8956250000000         9.756825173508445E-136
   56.1093750000000        -7.184360548024602E-136
   56.3231250000000        -4.765780177269577E-135
   56.5368750000000        -1.237089749276791E-134
   56.7506250000000        -2.436321385212893E-134
   56.9643750000000        -4.004418091874850E-134
   57.1781250000000        -5.517668626334844E-134
   57.3918750000000        -5.905194959936247E-134
   57.6056250000000        -3.105931864784598E-134
   57.8193750000000         6.183219883775107E-134
   58.0331250000000         2.636562499136145E-133
   58.2468750000000         6.188693718067155E-133
   58.4606250000000         1.145078576128046E-132
   58.6743750000000         1.780414658717308E-132
   58.8881250000000         2.299403120961720E-132
   59.1018750000000         2.201269113753148E-132
   59.3156250000000         5.974091946980811E-133
   59.5293750000000        -3.834704621208389E-132
   59.7431250000000        -1.270394679716226E-131
   59.9568750000000        -2.736508872580421E-131
   60.1706250000000        -4.772781155249368E-131
   60.3843750000000        -7.016683404666449E-131
   60.5981250000000        -8.445434360095406E-131
   60.8118750000000        -7.009637365014241E-131
   61.0256250000000         6.646823064796698E-132
   61.2393750000000         1.923388505812411E-130
   61.4531250000000         5.379169063693888E-130
   61.6668750000000         1.075637721655127E-129
   61.8806250000000         1.773913171148991E-129
   62.0943750000000         2.464560112104841E-129
   62.3081250000000         2.744936328664433E-129
   62.5218750000000         1.874983418718200E-129
   62.7356250000000        -1.280297098701583E-129
   62.9493750000000        -8.168229676633553E-129
   63.1631250000000        -2.017901986916479E-128
   63.3768750000000        -3.780101431899491E-128
   63.5906250000000        -5.911717621476066E-128
   63.8043750000000        -7.757070222716585E-128
   64.0181250000000        -7.922668507329321E-128
   64.2318750000000        -4.033031308051260E-128
   64.4456250000000         7.313552683007720E-128
   64.6593750000000         3.010093207763043E-127
   64.8731250000000         6.755454593676810E-127
   65.0868750000000         1.194358775588990E-126
   65.3006250000000         1.776102740471003E-126
   65.5143750000000         2.199594846478708E-126
   65.7281250000000         2.036607034698126E-126
   65.9418750000000         6.048821812068960E-127
   66.1556250000000        -3.008630384459067E-126
   66.3693750000000        -9.776860080506788E-126
   66.5831250000000        -2.031395960394582E-125
   66.7968750000000        -3.410857951847424E-125
   67.0106250000000        -4.835857909369896E-125
   67.2243750000000        -5.649339373785450E-125
   67.4381250000000        -4.673230892592668E-125
   67.6518750000000        -1.437328004678835E-126
   67.8656250000000         1.014439090461743E-124
   68.0793750000000         2.829970948528439E-124
   68.2931250000000         5.518560051208397E-124
   68.5068750000000         8.847981179253049E-124
   68.7206250000000         1.199253216263287E-123
   68.9343750000000         1.321242840115706E-123
   69.1481250000000         9.586330051727819E-124
   69.3618750000000        -3.012606386067662E-124
   69.5756250000000        -2.939803196115357E-123
   69.7893750000000        -7.361533735313997E-123
   70.0031250000000        -1.361366516573985E-122
   70.2168750000000        -2.094425040398380E-122
   70.4306250000000        -2.721717061182119E-122
   70.6443750000000        -2.828909490342987E-122
   70.8581250000000        -1.759122342323421E-122
   71.0718750000000         1.365887359346379E-122
   71.2856250000000         7.499542931365871E-122
   71.4993750000000         1.732407860994925E-121
   71.7131250000000         3.063476449242964E-121
   71.9268750000000         4.542917018995897E-121
   72.1406250000000         5.677926632206305E-121
   72.3543750000000         5.574666726373562E-121
   72.5681250000000         2.886853146663393E-121
   72.7818750000000        -4.093218921681928E-121
   72.9956250000000        -1.708526125769845E-120
   73.2093750000000        -3.708421383142480E-120
   73.4231250000000        -6.313610936733730E-120
   73.6368750000000        -9.062978135871696E-120
   73.8506250000000        -1.093192530712657E-119
   74.0643750000000        -1.016354619265398E-119
   74.2781250000000        -4.231413541370436E-120
   74.4918750000000         9.910964014934200E-120
   74.7056250000000         3.509738167078866E-119
   74.9193750000000         7.253410976101793E-119
   75.1331250000000         1.195830757369942E-118
   75.3468750000000         1.668331058004811E-118
   75.5606250000000         1.949370407553888E-118
   75.7743750000000         1.722784808331636E-118
   75.9881250000000         5.527537010165704E-119
   76.2018750000000        -2.061173247071964E-118
   76.4156250000000        -6.546731176159902E-118
   76.6293750000000        -1.301183593568448E-117
   76.8431250000000        -2.087712016057454E-117
   77.0568750000000        -2.841530393992317E-117
   77.2706250000000        -3.228879567131065E-117
   77.4843750000000        -2.726774612022210E-117
   77.6981250000000        -6.418082954130361E-118
   77.9118750000000         3.785362986598544E-117
   78.1256250000000         1.114722776753343E-116
   78.3393750000000         2.147465813379301E-116
   78.5531250000000         3.367719272313062E-116
   78.7668750000000         4.487650301355583E-116
   78.9806250000000         4.978790334405443E-116
   79.1943750000000         4.043332848439510E-116
   79.4081250000000         6.610106904071980E-117
   79.6218750000000        -6.234924788024528E-116
   79.8356250000000        -1.739802130826556E-115
   80.0493750000000        -3.268923215566862E-115
   80.2631250000000        -5.029114990717947E-115
   80.4768750000000        -6.581890838545161E-115
   80.6906250000000        -7.156403775856303E-115
   80.9043750000000        -5.627413517755182E-115
   81.1181250000000        -6.039325561394602E-116
   81.3318750000000         9.303470913455071E-115
   81.5456250000000         2.497310284325519E-114
   81.7593750000000         4.598828392482057E-114
   81.9731250000000         6.961855755328551E-114
   82.1868750000000         8.972558036083938E-114
   82.4006250000000         9.592171116736832E-114
   82.6143750000000         7.350703033483890E-114
   82.8281250000000         4.891822515896501E-115
   83.0418750000000        -1.267028420157613E-113
   83.2556250000000        -3.305969653618620E-113
   83.4693750000000        -5.988535910837521E-113
   83.6831250000000        -8.940674737276457E-113
   83.8968750000000        -1.136956541908409E-112
   84.1106250000000        -1.197928133994470E-112
   84.3243750000000        -8.989384197391701E-113
   84.5381250000000        -3.370891763527840E-114
   84.7518750000000         1.585234549799176E-112
   84.9656250000000         4.046433067693196E-112
   85.1793750000000         7.226192539957084E-112
   85.3931250000000         1.065333836249958E-111
   85.6068750000000         1.338000679020285E-111
   85.8206250000000         1.390732456216577E-111
   86.0343750000000         1.023602961507782E-111
   86.2481250000000         1.266572392858525E-113
   86.4618750000000        -1.834842158188888E-111
   86.6756250000000        -4.591080647513650E-111
   86.8893750000000        -8.086385454901820E-111
   87.1031250000000        -1.177120716122467E-110
   87.3168750000000        -1.459364214326169E-110
   87.5306250000000        -1.494539214323535E-110
   87.7443750000000        -1.074781376219537E-110
   87.9581250000000         2.405385801518675E-112
   88.1718750000000         1.982309071783447E-110
   88.3856250000000         4.844009787915890E-110
   88.5993750000000         8.397041649199804E-110
   88.8131250000000         1.204399800671600E-109
   89.0268750000000         1.469844435960280E-109
   89.2406250000000         1.475949355130967E-109
   89.4543750000000         1.023220619449353E-109
   89.6681250000000        -9.350131869324593E-111
   89.8818750000000        -2.024157571384080E-109
   90.0956250000000        -4.774683922483559E-109
   90.3093750000000        -8.097980005717271E-109
   90.5231250000000        -1.138447057347244E-108
   90.7368750000000        -1.358685505029118E-108
   90.9506250000000        -1.322809988270286E-108
   91.1643750000000        -8.550980936561587E-109
   91.3781250000000         2.135267321033360E-109
   91.5918750000000         1.987824707229061E-108
   91.8056250000000         4.429227003145215E-108
   92.0193750000000         7.265151941798957E-108
   92.2331250000000         9.906996301209062E-108
   92.4468750000000         1.140896684952424E-107
   92.6606250000000         1.050988904765769E-107
   92.8743750000000         5.803713626166774E-108
   93.0881250000000        -3.924088742870200E-108
   93.3018750000000        -1.918359696613968E-107
   93.5156250000000        -3.912915314291544E-107
   93.7293750000000        -6.087910963340339E-107
   93.9431250000000        -7.900249781069147E-107
   94.1568750000000        -8.545319475323381E-107
   94.3706250000000        -7.028636810037715E-107
   94.5843750000000        -2.347654530050078E-107
   94.7981250000000         6.197276862174910E-107
   95.0118750000000         1.857202238722994E-106
   95.2256250000000         3.351225540256294E-106
   95.4393750000000         4.807541263661845E-106
   95.6531250000000         5.741950257121037E-106
   95.8668750000000         5.503965287441162E-106
   96.0806250000000         3.370779005004076E-106
   96.2943750000000        -1.269410606105105E-106
   96.5081250000000        -8.641254455007675E-106
   96.7218750000000        -1.823758577645287E-105
   96.9356250000000        -2.847010566312732E-105
   97.1493750000000        -3.642621944428868E-105
   97.3631250000000        -3.788710238796362E-105
   97.5768750000000        -2.778747655661563E-105
   97.7906250000000        -1.282468902755100E-106
   98.0043750000000         4.449261756802003E-105
   98.2181250000000         1.080478712888948E-104
   98.4318750000000         1.808837747645034E-104
   98.6456250000000         2.452202724610241E-104
   98.8593750000000         2.731267573289570E-104
   99.0731250000000         2.283464242112193E-104
   99.2868750000000         7.216751767625187E-105
   99.5006250000000        -2.256372858674299E-104
   99.7143750000000        -6.706748198984877E-104
   99.9281250000000        -1.224038570940332E-103
   100.141875000000        -1.782325393356260E-103
   100.355625000000        -2.163876980445055E-103
   100.569375000000        -2.110100632420942E-103
   100.783125000000        -1.312285823538852E-103
   100.996875000000         5.262507642304821E-104
   101.210625000000         3.586905544392990E-103
   101.424375000000         7.794301060681195E-103
   101.638125000000         1.265331330614303E-102
   101.851875000000         1.709974780329177E-102
   102.065625000000         1.942027541320277E-102
   102.279375000000         1.731504067393066E-102
   102.493125000000         8.184291806572726E-103
   102.706875000000        -1.029066346634006E-102
   102.920625000000        -3.924152383251395E-102
   103.134375000000        -7.742731907287706E-102
   103.348125000000        -1.199284237103948E-101
   103.561875000000        -1.570243950119145E-101
   103.775625000000        -1.737131048041601E-101
   103.989375000000        -1.504517105762860E-101
   104.203125000000        -6.573704069959460E-102
   104.416875000000         9.897371487356107E-102
   104.630625000000         3.518393978273854E-101
   104.844375000000         6.811545246466570E-101
   105.058125000000         1.045141436479703E-100
   105.271875000000         1.363430378716790E-100
   105.485625000000         1.513757998799468E-100
   105.699375000000         1.338264923277382E-100
   105.913125000000         6.639510966220344E-101
   106.126875000000        -6.591258495591026E-101
   106.340625000000        -2.700912993876402E-100
   106.554375000000        -5.379206051136965E-100
   106.768125000000        -8.382220972535275E-100
   106.981875000000        -1.110362215426482E-099
   107.195625000000        -1.261561596840484E-099
   107.409375000000        -1.171163055350120E-099
   107.623125000000        -7.051242541029489E-100
   107.836875000000         2.566866763266865E-100
   108.050625000000         1.779612846949574E-099
   108.264375000000         3.822079334044571E-099
   108.478125000000         6.178947286330398E-099
   108.691875000000         8.432406779582778E-099
   108.905625000000         9.927868021547153E-099
   109.119375000000         9.796445233538438E-099
   109.333125000000         7.046668168228071E-099
   109.546875000000         7.439001275336560E-100
   109.760625000000        -9.715415692099468E-099
   109.974375000000        -2.424745631972382E-098
   110.188125000000        -4.168382785948138E-098
   110.401875000000        -5.940930617005208E-098
   110.615625000000        -7.314620222546816E-098
   110.829375000000        -7.702586395430813E-098
   111.043125000000        -6.409839018607415E-098
   111.256875000000        -2.741090967199893E-098
   111.470625000000         3.827990505807484E-098
   111.684375000000         1.342130812553117E-097
   111.898125000000         2.549701283022899E-097
   112.111875000000         3.859017303560770E-097
   112.325625000000         5.013022147031994E-097
   112.539375000000         5.641972519400019E-097
   112.753125000000         5.287111226489674E-097
   112.966875000000         3.459068937777351E-097
   113.180625000000        -2.633196018451979E-098
   113.394375000000        -6.094474645356737E-097
   113.608125000000        -1.387420316207721E-096
   113.821875000000        -2.289348186810842E-096
   114.035625000000        -3.175095766634793E-096
   114.249375000000        -3.829038572755430E-096
   114.463125000000        -3.967793122030034E-096
   114.676875000000        -3.267816473404383E-096
   114.890625000000        -1.417403910742804E-096
   115.104375000000         1.805489816088597E-096
   115.318125000000         6.433256192847627E-096
   115.531875000000         1.219706456600469E-095
   115.745625000000         1.842257290842365E-095
   115.959375000000         2.396018360526600E-095
   116.173125000000         2.718390838453178E-095
   116.386875000000         2.609575926787136E-095
   116.600625000000         1.856882091868408E-095
   116.814375000000         2.749180220445785E-096
   117.028125000000        -2.238725780803760E-095
   117.241875000000        -5.636290148541849E-095
   117.455625000000        -9.649728953531489E-095
   117.669375000000        -1.373136114702502E-094
   117.883125000000        -1.702384154789053E-094
   118.096875000000        -1.838138689934763E-094
   118.310625000000        -1.646465235630863E-094
   118.524375000000        -9.927576171206727E-095
   118.738125000000         2.295579721669935E-095
   118.951875000000         2.061184162327481E-094
   119.165625000000         4.433270962188095E-094
   119.379375000000         7.124145922095841E-094
   119.593125000000         9.725891478375508E-094
   119.806875000000         1.163305025382647E-093
   120.020625000000         1.206747479437437E-093
   120.234375000000         1.015302067966648E-093
   120.448125000000         5.050405004114907E-094
   120.661875000000        -3.844774831444569E-094
   120.875625000000        -1.664967179954171E-093
   121.089375000000        -3.271242289209858E-093
   121.303125000000        -5.034529282209998E-093
   121.516875000000        -6.663719084613074E-093
   121.730625000000        -7.742712571110084E-093
   121.944375000000        -7.752895384763983E-093
   122.158125000000        -6.129196970246723E-093
   122.371875000000        -2.355497280246785E-093
   122.585625000000         3.900203190522076E-093
   122.799375000000         1.261870341849572E-092
   123.013125000000         2.324943064500114E-092
   123.226875000000         3.454872844334224E-092
   123.440625000000         4.448084064694570E-092
   123.654375000000         5.023569557711844E-092
   123.868125000000         4.842100363624820E-092