  -1.60312500000000         0.000000000000000E+000
  -1.38937500000000         0.000000000000000E+000
  -1.17562500000000         0.000000000000000E+000
 -0.961875000000000         0.000000000000000E+000
 -0.748125000000000         0.000000000000000E+000
 -0.534375000000000         0.000000000000000E+000
 -0.320625000000000         0.000000000000000E+000
 -0.106875000000000         0.000000000000000E+000
  0.106875000000000         0.000000000000000E+000
  0.320625000000000         0.000000000000000E+000
  0.534375000000000         0.000000000000000E+000
  0.748125000000000         0.000000000000000E+000
  0.961875000000000         0.000000000000000E+000
   1.17562500000000         0.000000000000000E+000
   1.38937500000000         0.000000000000000E+000
   1.60312500000000         0.000000000000000E+000
   1.81687500000000         0.000000000000000E+000
   2.03062500000000         0.000000000000000E+000
   2.24437500000000         0.000000000000000E+000
   2.45812500000000         0.000000000000000E+000
   2.67187500000000         0.000000000000000E+000
   2.88562500000000         0.000000000000000E+000
   3.09937500000000         0.000000000000000E+000
   3.31312500000000         0.000000000000000E+000
   3.52687500000000         0.000000000000000E+000
   3.74062500000000         0.000000000000000E+000
   3.95437500000000         0.000000000000000E+000
   4.16812500000000         0.000000000000000E+000
   4.38187500000000         0.000000000000000E+000
   4.59562500000000         0.000000000000000E+000
   4.80937500000000         0.000000000000000E+000
   5.02312500000000         0.000000000000000E+000
   5.23687500000000         0.000000000000000E+000
   5.45062500000000         0.000000000000000E+000
   5.66437500000000         0.000000000000000E+000
   5.87812500000000         0.000000000000000E+000
   6.09187500000000         0.000000000000000E+000
   6.30562500000000         0.000000000000000E+000
   6.51937500000000         0.000000000000000E+000
   6.73312500000000         0.000000000000000E+000
   6.94687500000000         0.000000000000000E+000
   7.16062500000000         0.000000000000000E+000
   7.37437500000000         0.000000000000000E+000
   7.58812500000000         0.000000000000000E+000
   7.80187500000000         0.000000000000000E+000
   8.01562500000000         0.000000000000000E+000
   8.22937500000000         0.000000000000000E+000
   8.44312500000000         0.000000000000000E+000
   8.65687500000000         0.000000000000000E+000
   8.87062500000000         0.000000000000000E+000
   9.08437500000000         0.000000000000000E+000
   9.29812500000000         0.000000000000000E+000
   9.51187500000000         0.000000000000000E+000
   9.72562500000000         0.000000000000000E+000
   9.93937500000000         0.000000000000000E+000
   10.1531250000000         0.000000000000000E+000
   10.3668750000000         0.000000000000000E+000
   10.5806250000000         0.000000000000000E+000
   10.7943750000000         0.000000000000000E+000
   11.0081250000000         0.000000000000000E+000
   11.2218750000000         0.000000000000000E+000
   11.4356250000000         0.000000000000000E+000
   11.6493750000000         0.000000000000000E+000
   11.8631250000000         0.000000000000000E+000
   12.0768750000000         0.000000000000000E+000
   12.2906250000000        -2.699005493214259E-261
   12.5043750000000        -4.703097175278223E-255
   12.7181250000000         2.691184977321473E-252
   12.9318750000000         9.869920304828981E-250
   13.1456250000000         7.362545573120366E-248
   13.3593750000000         4.886325934547930E-246
   13.5731250000000        -2.199731148996380E-232
   13.7868750000000         3.196140382020494E-226
   14.0006250000000        -7.656827322433253E-223
   14.2143750000000         1.681202121773822E-220
   14.4281250000000        -1.084497277547864E-218
   14.6418750000000        -1.952101363722611E-216
   14.8556250000000        -1.069814665258732E-214
   15.0693750000000        -3.504457994579306E-213
   15.2831250000000        -8.071464032881561E-212
   15.4968750000000        -1.398906429037143E-210
   15.7106250000000        -1.872533559924181E-209
   15.9243750000000        -1.913883171909464E-208
   16.1381250000000        -1.362917766436487E-207
   16.3518750000000        -3.587057309922676E-207
   16.5656250000000         7.150905132939992E-206
   16.7793750000000         1.447984932176396E-204
   16.9931250000000         1.621231065200385E-203
   17.2068750000000         1.285097689773602E-202
   17.4206250000000         6.763250279809610E-202
   17.6343750000000         6.385976473453525E-202
   17.8481250000000        -3.721610664751264E-200
   18.0618750000000        -5.780834192989296E-199
   18.2756250000000        -5.952273500724203E-198
   18.4893750000000        -5.031834970883260E-197
   18.7031250000000        -3.745760274953596E-196
   18.9168750000000        -2.549409389040990E-195
   19.1306250000000        -1.629921342768140E-194
   19.3443750000000        -1.000990018946790E-193
   19.5581250000000        -6.011391329985847E-193
   19.7718750000000        -3.569629706345701E-192
   19.9856250000000        -2.101579442723963E-191
   20.1993750000000        -1.220986699034084E-190
   20.4131250000000        -6.939579084271253E-190
   20.6268750000000        -3.822861698501934E-189
   20.8406250000000        -2.025413206733361E-188
   21.0543750000000        -1.026235008112595E-187
   21.2681250000000        -4.953224800097099E-187
   21.4818750000000        -2.271018373621137E-186
   21.6956250000000        -9.867701210732399E-186
   21.9093750000000        -4.052666222082526E-185
   22.1231250000000        -1.567565037462006E-184
   22.3368750000000        -5.677870225632426E-184
   22.5506250000000        -1.906971486462240E-183
   22.7643750000000        -5.829887356201682E-183
   22.9781250000000        -1.558673381824478E-182
   23.1918750000000        -3.255438802312028E-182
   23.4056250000000        -2.662399156237942E-182
   23.6193750000000         2.162138719845531E-181
   23.8331250000000         1.739553080158638E-180
   24.0468750000000         8.845433683238415E-180
   24.2606250000000         3.745137854532325E-179
   24.4743750000000         1.417495699546520E-178
   24.6881250000000         4.935077493707151E-178
   24.9018750000000         1.602147366272501E-177
   25.1156250000000         4.881964546863727E-177
   25.3293750000000         1.399363481918433E-176
   25.5431250000000         3.767829357905893E-176
   25.7568750000000         9.475334158958591E-176
   25.9706250000000         2.197663616893686E-175
   26.1843750000000         4.575546284919070E-175
   26.3981250000000         7.994269763610096E-175
   26.6118750000000         9.080930253732292E-175
   26.8256250000000        -8.035986737349531E-175
   27.0393750000000        -9.864624939396266E-174
   27.2531250000000        -4.288269722190536E-173
   27.4668750000000        -1.449818483500146E-172
   27.6806250000000        -4.292337744416714E-172
   27.8943750000000        -1.158797596836895E-171
   28.1081250000000        -2.901936619163457E-171
   28.3218750000000        -6.785991864855260E-171
   28.5356250000000        -1.481402039145123E-170
   28.7493750000000        -2.996871965747610E-170
   28.9631250000000        -5.513576969559755E-170
   29.1768750000000        -8.815147990852498E-170
   29.3906250000000        -1.064238854373373E-169
   29.6043750000000        -2.680711834630617E-170
   29.8181250000000         3.875525483937450E-169
   30.0318750000000         1.723073170639249E-168
   30.2456250000000         5.287930399006072E-168
   30.4593750000000         1.373686954013153E-167
   30.6731250000000         3.193543789927557E-167
   30.8868750000000         6.769920751236194E-167
   31.1006250000000         1.310824731597919E-166
   31.3143750000000         2.287085264896999E-166
   31.5281250000000         3.453655386120275E-166
   31.7418750000000         3.980090560933828E-166
   31.9556250000000         1.382300330716972E-166
   32.1693750000000        -1.025778657119035E-165
   32.3831250000000        -4.298292841878801E-165
   32.5968750000000        -1.177658522072012E-164
   32.8106250000000        -2.639884138267393E-164
   33.0243750000000        -5.058430951183204E-164
   33.2381250000000        -8.127916502263967E-164
   33.4518750000000        -9.670792584806906E-164
   33.6656250000000        -2.624758178076169E-164
   33.8793750000000         3.102783523891651E-163
   34.0931250000000         1.311740236583223E-162
   34.3068750000000         3.767108834569676E-162
   34.5206250000000         9.072542955725874E-162
   34.7343750000000         1.938068420280687E-161
   34.9481250000000         3.732604706932929E-161
   35.1618750000000         6.444087405371410E-161
   35.3756250000000         9.633983491263561E-161
   35.5893750000000         1.109393013951715E-160
   35.8031250000000         4.323743710016651E-161
   36.0168750000000        -2.629910308524444E-160
   36.2306250000000        -1.137436723182188E-159
   36.4443750000000        -3.202650107036183E-159
   36.6581250000000        -7.501559884393186E-159
   36.8718750000000        -1.551652921383025E-158
   37.0856250000000        -2.877013376208768E-158
   37.2993750000000        -4.733499533018558E-158
   37.5131250000000        -6.600896525440972E-158
   37.7268750000000        -6.623298128827022E-158
   37.9406250000000        -1.530950982973574E-159
   38.1543750000000         2.243423153810076E-157
   38.3681250000000         7.814699883185481E-157
   38.5818750000000         1.919886568583748E-156
   38.7956250000000         3.907161791593035E-156
   39.0093750000000         6.797506676617042E-156
   39.2231250000000         9.873804154915631E-156
   39.4368750000000         1.058278446503984E-155
   39.6506250000000         2.924949011079622E-156
   39.8643750000000        -2.417637236054969E-155
   40.0781250000000        -8.658641016175180E-155
   40.2918750000000        -1.980037281960957E-154
   40.5056250000000        -3.471286434811573E-154
   40.7193750000000        -4.446919618530701E-154
   40.9331250000000        -2.251190323359016E-154
   41.1468750000000         8.968961770348549E-154
   41.3606250000000         3.956814006010041E-153
   41.5743750000000         1.035468882042666E-152
   41.7881250000000         2.105715019961524E-152
   42.0018750000000         3.409650157582938E-152
   42.2156250000000         3.872358420441712E-152
   42.4293750000000         4.087842039316828E-153
   42.6431250000000        -1.390078400986340E-151
   42.8568750000000        -5.206557550897798E-151
   43.0706250000000        -1.344354555157329E-150
   43.2843750000000        -2.849041333939157E-150
   43.4981250000000        -5.131391263700620E-150
   43.7118750000000        -7.662414631942313E-150
   43.9256250000000        -8.238663315356937E-150
   44.1393750000000        -1.052481018677455E-150
   44.3531250000000         2.630325071530722E-149
   44.5668750000000         9.644326812250080E-149
   44.7806250000000         2.442381846533687E-148
   44.9943750000000         5.114511586634712E-148
   45.2081250000000         9.214508729845579E-148
   45.4218750000000         1.411317295733742E-147
   45.6356250000000         1.686572202862863E-147
   45.8493750000000         9.568324086710752E-148
   46.0631250000000        -2.472815808186282E-147
   46.2768750000000        -1.170224041233268E-146
   46.4906250000000        -3.157124306991941E-146
   46.7043750000000        -6.814372099146822E-146
   46.9181250000000        -1.258976806106326E-145
   47.1318750000000        -2.000464850424608E-145
   47.3456250000000        -2.601061759223070E-145
   47.5593750000000        -2.201043182083472E-145
   47.7731250000000         1.074012387704634E-145
   47.9868750000000         1.068284530734397E-144
   48.2006250000000         3.208937896648566E-144
   48.4143750000000         7.235531577171392E-144
   48.6281250000000         1.374991345426329E-143
   48.8418750000000         2.251647162894207E-143
   49.0556250000000         3.089737962379797E-143
   49.2693750000000         3.103775624695268E-143
   49.4831250000000         5.556886391847716E-144
   49.6968750000000        -7.777196791618506E-143
   49.9106250000000        -2.700780557596972E-142
   50.1243750000000        -6.383763784713193E-142
   50.3381250000000        -1.243776638657264E-141
   50.5518750000000        -2.081014964950549E-141
   50.7656250000000        -2.950837808174974E-141
   50.9793750000000        -3.233791765654228E-141
   51.1931250000000        -1.549583031399521E-141
   51.4068750000000         4.656285800451966E-141
   51.6206250000000         1.942205711330676E-140
   51.8343750000000         4.804370893331390E-140
   52.0481250000000         9.547335826911506E-140
   52.2618750000000         1.619612478668922E-139
   52.4756250000000         2.340432250397996E-139
   52.6893750000000         2.689038238992146E-139
   52.9031250000000         1.713775751795793E-139
   53.1168750000000        -2.331562912200041E-139
   53.3306250000000        -1.217910078073496E-138
   53.5443750000000        -3.137842794600181E-138
   53.7581250000000        -6.324492342924815E-138
   53.9718750000000        -1.080980057889500E-137
   54.1856250000000        -1.577058826354960E-137
   54.3993750000000        -1.859022960850868E-137
   54.6131250000000        -1.351864258644867E-137
   54.8268750000000         9.845815300237158E-138
   55.0406250000000         6.752526607279458E-137
   55.2543750000000         1.799890738345636E-136
   55.4681250000000         3.659910662537730E-136
   55.6818750000000         6.271139786996344E-136
   55.8956250000000         9.176892598553793E-136
   56.1093750000000         1.095536360954940E-135
   56.3231250000000         8.539882297001501E-136
   56.5368750000000        -3.514202695945967E-136
   56.7506250000000        -3.343009294186422E-135
   56.9643750000000        -9.148035976037677E-135
   57.1781250000000        -1.867680748904582E-134
   57.3918750000000        -3.195595114502207E-134
   57.6056250000000        -4.668937676879123E-134
   57.8193750000000        -5.598015967148085E-134
   58.0331250000000        -4.530556971224882E-134
   58.2468750000000         1.055792006847239E-134
   58.4606250000000         1.488510880815247E-133
   58.6743750000000         4.148633909787091E-133
   58.8881250000000         8.469459721887610E-133
   59.1018750000000         1.442664425420151E-132
   59.3156250000000         2.097647184842292E-132
   59.5293750000000         2.512197335579935E-132
   59.7431250000000         2.072400581404356E-132
   59.9568750000000        -2.625225929041395E-133
   60.1706250000000        -5.991492838639350E-132
   60.3843750000000        -1.688294428898464E-131
   60.5981250000000        -3.435181461228998E-131
   60.8118750000000        -5.812461151712048E-131
   61.0256250000000        -8.391928766769003E-131
   61.2393750000000        -1.000320098358083E-130
   61.4531250000000        -8.318493894342371E-131
   61.6668750000000         5.092005966485686E-132
   61.8806250000000         2.187670066859747E-130
   62.0943750000000         6.194440861626377E-130
   62.3081250000000         1.253177599807471E-129
   62.5218750000000         2.103239935084628E-129
   62.7356250000000         3.011140754737616E-129
   62.9493750000000         3.564795706093469E-129
   63.1631250000000         2.968947558893792E-129
   63.3768750000000        -5.694090954969136E-131
   63.5906250000000        -7.261414418255600E-129
   63.8043750000000        -2.057178187458073E-128
   64.0181250000000        -4.131900536255425E-128
   64.2318750000000        -6.873222899012464E-128
   64.4456250000000        -9.751498346631362E-128
   64.6593750000000        -1.145435766397334E-127
   64.8731250000000        -9.523478357789623E-128
   65.0868750000000        -1.015186650830210E-129
   65.3006250000000         2.193753792687454E-127
   65.5143750000000         6.204270986656118E-127
   65.7281250000000         1.236493842645296E-126
   65.9418750000000         2.038386109280899E-126
   66.1556250000000         2.866009686941765E-126
   66.3693750000000         3.340101943170337E-126
   66.5831250000000         2.770320587479349E-126
   66.7968750000000         1.003897258959870E-127
   67.0106250000000        -6.036340248400050E-126
   67.2243750000000        -1.704029782092158E-125
   67.4381250000000        -3.370799196704214E-125
   67.6518750000000        -5.509526527324703E-125
   67.8656250000000        -7.681454379936171E-125
   68.0793750000000        -8.888820798429514E-125
   68.2931250000000        -7.363932057880776E-125
   68.5068750000000        -4.663389398187022E-126
   68.7206250000000         1.513324267428200E-124
   68.9343750000000         4.272479729017590E-124
   69.1481250000000         8.397721316713673E-124
   69.3618750000000         1.362238521228060E-123
   69.5756250000000         1.885315522932150E-123
   69.7893750000000         2.169300838632172E-123
   70.0031250000000         1.800022074282401E-123
   70.2168750000000         1.726129196049393E-124
   70.4306250000000        -3.457202794839226E-123
   70.6443750000000        -9.799636170637126E-123
   70.8581250000000        -1.917285616425245E-122
   71.0718750000000        -3.090977045364613E-122
   71.2856250000000        -4.252599223252587E-122
   71.4993750000000        -4.874705517378499E-122
   71.7131250000000        -4.066478774649122E-122
   71.9268750000000        -5.537111286752675E-123
   72.1406250000000         7.196448148995710E-122
   72.3543750000000         2.059958977074618E-121
   72.5681250000000         4.021221810893944E-121
   72.7818750000000         6.454111638290685E-121
   72.9956250000000         8.842298478915538E-121
   73.2093750000000         1.011973034316416E-120
   73.4231250000000         8.522356314029223E-121
   73.6368750000000         1.574010853714969E-121
   73.8506250000000        -1.364369942938457E-120
   74.0643750000000        -3.974723737644574E-120
   74.2781250000000        -7.763873612700600E-120
   74.4918750000000        -1.243043310670598E-119
   74.7056250000000        -1.699013161267116E-119
   74.9193750000000        -1.945861441802089E-119
   75.1331250000000        -1.661108332079642E-119
   75.3468750000000        -3.996433757199957E-120
   75.5606250000000         2.353694396776172E-119
   75.7743750000000         7.048989582902077E-119
   75.9881250000000         1.382341550296805E-118
   76.2018750000000         2.212507050566478E-118
   76.4156250000000         3.022826483480028E-118
   76.6293750000000         3.472301869806297E-118
   76.8431250000000         3.015452742621963E-118
   77.0568750000000         9.104336354753223E-119
   77.2706250000000        -3.687899538724693E-118
   77.4843750000000        -1.150212102434085E-117
   77.6981250000000        -2.273033281269761E-117
   77.9118750000000        -3.645086690836467E-117
   78.1256250000000        -4.987387326659538E-117
   78.3393750000000        -5.757784893777724E-117
   78.5531250000000        -5.100800423623577E-117
   78.7668750000000        -1.867939833659147E-117
   78.9806250000000         5.231630489420369E-117
   79.1943750000000         1.728243641535621E-116
   79.4081250000000         3.455891027480711E-116
   79.6218750000000         5.565097303299947E-116
   79.8356250000000         7.638987317005237E-116
   80.0493750000000         8.878550194358505E-116
   80.2631250000000         8.037836630598918E-116
   80.4768750000000         3.462944469999037E-116
   80.6906250000000        -6.683606148114161E-116
   80.9043750000000        -2.392450095122073E-115
   81.1181250000000        -4.862559133792304E-115
   81.3318750000000        -7.880187621295350E-115
   81.5456250000000        -1.086827979541139E-114
   81.7593750000000        -1.273347983635168E-114
   81.9731250000000        -1.178852357107709E-114
   82.1868750000000        -5.816184681727522E-115
   82.4006250000000         7.621940483714129E-115
   82.6143750000000         3.052408701744968E-114
   82.8281250000000         6.335645824253379E-114
   83.0418750000000         1.035360543233911E-113
   83.2556250000000         1.436468687375366E-113
   83.4693750000000         1.697785932478782E-113
   83.6831250000000         1.606698862241907E-113
   83.8968750000000         8.864492035772073E-114
   84.1106250000000        -7.644234914303213E-114
   84.3243750000000        -3.590433320910604E-113
   84.5381250000000        -7.647359331962735E-113
   84.7518750000000        -1.262281228345735E-112
   84.9656250000000        -1.762994462999544E-112
   85.1793750000000        -2.102152854564062E-112
   85.3931250000000        -2.030394838227408E-112
   85.6068750000000        -1.226274886934397E-112
   85.8206250000000         6.567768776064699E-113
   86.0343750000000         3.896496751006873E-112
   86.2481250000000         8.553633959996687E-112
   86.4618750000000         1.427455884264762E-111
   86.6756250000000         2.006987433840396E-111
   86.8893750000000         2.412244013032200E-111
   87.1031250000000         2.371120559058147E-111
   87.3168750000000         1.536797193881554E-111
   87.5306250000000        -4.599233441115836E-112
   87.7443750000000        -3.909662452163051E-111
   87.9581250000000        -8.869357518277447E-111
   88.1718750000000        -1.496066563411495E-110
   88.3856250000000        -2.115048851546599E-110
   88.5993750000000        -2.557005499384873E-110
   88.8131250000000        -2.545996228475801E-110
   89.0268750000000        -1.735506090153663E-110
   89.2406250000000         2.366870786959572E-111
   89.4543750000000         3.647071694937144E-110
   89.6681250000000         8.535303255802839E-110
   89.8818750000000         1.451377734870592E-109
   90.0956250000000         2.056833178925143E-109
   90.3093750000000         2.490592426823652E-109
   90.5231250000000         2.493157746040043E-109
   90.7368750000000         1.745674530451924E-109
   90.9506250000000        -7.565998307119024E-111
   91.1643750000000        -3.204102500496329E-109
   91.3781250000000        -7.645666823375261E-109
   91.5918750000000        -1.301387973024123E-108
   91.8056250000000        -1.836662355039788E-108
   92.0193750000000        -2.209693299555082E-108
   92.2331250000000        -2.194971601332678E-108
   92.4468750000000        -1.524817879089532E-108
   92.6606250000000         5.923674252841024E-110
   92.8743750000000         2.722040539171086E-108
   93.0881250000000         6.420356627348832E-108
   93.3018750000000         1.077274244809660E-107
   93.5156250000000         1.494305337987813E-107
   93.7293750000000         1.758289418481256E-107
   93.9431250000000         1.689126692256870E-107
   94.1568750000000         1.085318444513057E-107
   94.3706250000000        -2.294541145082060E-108
   94.5843750000000        -2.336033115549127E-107
   94.7981250000000        -5.131547332304136E-107
   95.0118750000000        -8.238634601169623E-107
   95.2256250000000        -1.093887329076494E-106
   95.4393750000000        -1.216780180474254E-106
   95.6531250000000        -1.061487883909026E-106
   95.8668750000000        -4.967878629655940E-107
   96.0806250000000         5.678082316050273E-107
   96.2943750000000         2.126593638201145E-106
   96.5081250000000         4.015587901585776E-106
   96.7218750000000         5.859434763469746E-106
   96.9356250000000         7.050771458564720E-106
   97.1493750000000         6.791291277321115E-106
   97.3631250000000         4.223853868994056E-106
   97.5768750000000        -1.324470381670708E-106
   97.7906250000000        -9.991297768889427E-106
   98.0043750000000        -2.096064768037531E-105
   98.2181250000000        -3.206990965215714E-105
   98.4318750000000        -3.959224820451700E-105
   98.6456250000000        -3.839393876272847E-105
   98.8593750000000        -2.268462111482004E-105
   99.0731250000000         1.246214065047520E-105
   99.2868750000000         6.876948413823515E-105
   99.5006250000000         1.417889802650331E-104
   99.7143750000000         2.178421287445472E-104
   99.9281250000000         2.718347196897613E-104
   100.141875000000         2.673232879383031E-104
   100.355625000000         1.604790915237914E-104
   100.569375000000        -9.048337082506162E-105
   100.783125000000        -5.094925898276918E-104
   100.996875000000        -1.080915425054212E-103
   101.210625000000        -1.724738924798989E-103
   101.424375000000        -2.274460138596698E-103
   101.638125000000        -2.466887989878151E-103
   101.851875000000        -1.955952094864371E-103
   102.065625000000        -3.637495186417360E-104
   102.279375000000         2.620164389928729E-103
   102.493125000000         7.087512116435966E-103
   102.706875000000         1.271797151561085E-102
   102.920625000000         1.857398988846932E-102
   103.134375000000         2.293927132442403E-102
   103.348125000000         2.328265931958261E-102
   103.561875000000         1.644877111293871E-102
   103.775625000000        -8.206924353648654E-104
   103.989375000000        -3.095814611940443E-102
   104.203125000000        -7.422615193675700E-102
   104.416875000000        -1.270700241968338E-101
   104.630625000000        -1.804473809388898E-101
   104.844375000000        -2.186165325561094E-101
   105.058125000000        -2.190629994584350E-101
   105.271875000000        -1.543760893030514E-101
   105.485625000000         3.126989687850264E-103
   105.699375000000         2.734880494311841E-101
   105.913125000000         6.579495127077408E-101
   106.126875000000         1.125559010644321E-100
   106.340625000000         1.599864968735086E-100
   106.554375000000         1.949563839109054E-100
   106.768125000000         1.988410558128648E-100
   106.981875000000         1.490609977638968E-100
   107.195625000000         2.276593609350032E-101
   107.409375000000        -1.969467558065800E-100
   107.623125000000        -5.123418176874908E-100
   107.836875000000        -9.006722570224786E-100
   108.050625000000        -1.303885645796456E-099
   108.264375000000        -1.621290153638577E-099
   108.478125000000        -1.709099626118506E-099
   108.691875000000        -1.391409307204874E-099
   108.905625000000        -4.869513633917360E-100
   109.119375000000         1.145524793322535E-099
   109.333125000000         3.543613533384449E-099
   109.546875000000         6.564836788890229E-099
   109.760625000000         9.809760948971268E-099
   109.974375000000         1.256473782452618E-098
   110.188125000000         1.379161601616572E-098
   110.401875000000         1.219626794491450E-098
   110.615625000000         6.406669775704638E-099
   110.829375000000        -4.718535926810453E-099
   111.043125000000        -2.165124329160139E-098
   111.256875000000        -4.365895837162829E-098
   111.470625000000        -6.825319668302586E-098
   111.684375000000        -9.075262995746536E-098
   111.898125000000        -1.041416195139360E-097
   112.111875000000        -9.943703679123175E-098
   112.325625000000        -6.677347123718272E-098
   112.539375000000         2.640660016663277E-099
   112.753125000000         1.136732252199730E-097
   112.966875000000         2.637126016843316E-097
   113.180625000000         4.388797332594661E-097
   113.394375000000         6.108144334869664E-097
   113.608125000000         7.351660337969093E-097
   113.821875000000         7.531479991732870E-097
   114.035625000000         5.975416495961782E-097
   114.249375000000         2.042343610733781E-097
   114.463125000000        -4.703567938035945E-097
   114.676875000000        -1.426858315497923E-096
   114.890625000000        -2.598103743267396E-096
   115.104375000000        -3.826520706710728E-096
   115.318125000000        -4.850434964619377E-096
   115.531875000000        -5.307581517647022E-096
   115.745625000000        -4.764610332588386E-096
   115.959375000000        -2.780052880665258E-096
   116.173125000000         9.956019734356194E-097
   116.386875000000         6.685841219254529E-096
   116.600625000000         1.403290711028080E-095
   116.814375000000         2.224624087052900E-095
   117.028125000000         2.989206710475432E-095
   117.241875000000         3.487234411663759E-095
   117.455625000000         3.454662898556422E-095
   117.669375000000         2.604618396623132E-095
   117.883125000000         6.811787781805225E-096
   118.096875000000        -2.464790509239497E-095
   118.310625000000        -6.783290999677572E-095
   118.524375000000        -1.192861555323792E-094
   118.738125000000        -1.717831804682505E-094
   118.951875000000        -2.139446141148217E-094
   119.165625000000        -2.305844064526109E-094
   119.379375000000        -2.041056974982879E-094
   119.593125000000        -1.171843529009192E-094
   119.806875000000         4.318311989559409E-095
   120.020625000000         2.804562384704527E-094
   120.234375000000         5.827025632908221E-094
   120.448125000000         9.171029974283994E-094
   120.661875000000         1.226219802803081E-093
   120.875625000000         1.427779367632949E-093
   121.089375000000         1.419854054187559E-093
   121.303125000000         1.093112164002960E-093
   121.516875000000         3.511109656226426E-094
   121.730625000000        -8.616585850451867E-094
   121.944375000000        -2.526121407868088E-093
   122.158125000000        -4.513846925095724E-093
   122.371875000000        -6.558201823112271E-093
   122.585625000000        -8.240808856839950E-093
   122.799375000000        -9.004183607106831E-093
   123.013125000000        -8.201306731934188E-093
   123.226875000000        -5.190374526905234E-093
   123.440625000000         5.226262385150735E-094
   123.654375000000         9.099914078474837E-093
   123.868125000000         2.016515941615719E-092