  -1.60312500000000         0.000000000000000E+000
  -1.38937500000000         0.000000000000000E+000
  -1.17562500000000         0.000000000000000E+000
 -0.961875000000000         0.000000000000000E+000
 -0.748125000000000         0.000000000000000E+000
 -0.534375000000000         0.000000000000000E+000
 -0.320625000000000         0.000000000000000E+000
 -0.106875000000000         0.000000000000000E+000
  0.106875000000000         0.000000000000000E+000
  0.320625000000000         0.000000000000000E+000
  0.534375000000000         0.000000000000000E+000
  0.748125000000000         0.000000000000000E+000
  0.961875000000000         0.000000000000000E+000
   1.17562500000000         0.000000000000000E+000
   1.38937500000000         0.000000000000000E+000
   1.60312500000000         0.000000000000000E+000
   1.81687500000000         0.000000000000000E+000
   2.03062500000000         0.000000000000000E+000
   2.24437500000000         0.000000000000000E+000
   2.45812500000000         0.000000000000000E+000
   2.67187500000000         0.000000000000000E+000
   2.88562500000000         0.000000000000000E+000
   3.09937500000000         0.000000000000000E+000
   3.31312500000000         0.000000000000000E+000
   3.52687500000000         0.000000000000000E+000
   3.74062500000000         0.000000000000000E+000
   3.95437500000000         0.000000000000000E+000
   4.16812500000000         0.000000000000000E+000
   4.38187500000000         0.000000000000000E+000
   4.59562500000000         0.000000000000000E+000
   4.80937500000000         0.000000000000000E+000
   5.02312500000000         0.000000000000000E+000
   5.23687500000000         0.000000000000000E+000
   5.45062500000000         0.000000000000000E+000
   5.66437500000000         0.000000000000000E+000
   5.87812500000000         0.000000000000000E+000
   6.09187500000000         0.000000000000000E+000
   6.30562500000000         0.000000000000000E+000
   6.51937500000000         0.000000000000000E+000
   6.73312500000000         0.000000000000000E+000
   6.94687500000000         0.000000000000000E+000
   7.16062500000000         0.000000000000000E+000
   7.37437500000000         0.000000000000000E+000
   7.58812500000000         0.000000000000000E+000
   7.80187500000000         0.000000000000000E+000
   8.01562500000000         0.000000000000000E+000
   8.22937500000000         0.000000000000000E+000
   8.44312500000000         0.000000000000000E+000
   8.65687500000000         0.000000000000000E+000
   8.87062500000000         0.000000000000000E+000
   9.08437500000000         0.000000000000000E+000
   9.29812500000000         0.000000000000000E+000
   9.51187500000000         0.000000000000000E+000
   9.72562500000000         0.000000000000000E+000
   9.93937500000000         0.000000000000000E+000
   10.1531250000000         0.000000000000000E+000
   10.3668750000000         0.000000000000000E+000
   10.5806250000000         0.000000000000000E+000
   10.7943750000000         0.000000000000000E+000
   11.0081250000000         0.000000000000000E+000
   11.2218750000000         0.000000000000000E+000
   11.4356250000000         0.000000000000000E+000
   11.6493750000000         0.000000000000000E+000
   11.8631250000000         0.000000000000000E+000
   12.0768750000000         0.000000000000000E+000
   12.2906250000000         2.535242066943166E-261
   12.5043750000000         1.410979768427791E-254
   12.7181250000000        -1.754058694044483E-251
   12.9318750000000        -5.702309012174352E-249
   13.1456250000000        -5.371110075942166E-247
   13.3593750000000        -4.372387619653454E-245
   13.5731250000000         3.838083279554160E-233
   13.7868750000000         1.407406668407092E-225
   14.0006250000000        -3.386774847494760E-222
   14.2143750000000         7.472978148244229E-220
   14.4281250000000        -4.122691687417619E-218
   14.6418750000000        -7.643628823016337E-216
   14.8556250000000        -4.085096776368615E-214
   15.0693750000000        -1.290465500940157E-212
   15.2831250000000        -2.835346464534556E-211
   15.4968750000000        -4.610137471106923E-210
   15.7106250000000        -5.603080997078411E-209
   15.9243750000000        -4.777380824177314E-208
   16.1381250000000        -1.875977930514659E-207
   16.3518750000000         2.211119554130043E-206
   16.5656250000000         5.884583399823559E-205
   16.7793750000000         7.760453645468391E-204
   16.9931250000000         7.393185178738915E-203
   17.2068750000000         5.347649449209555E-202
   17.4206250000000         2.707698679889798E-201
   17.6343750000000         4.519736782443105E-201
   17.8481250000000        -9.204126010651299E-200
   18.0618750000000        -1.407861207865106E-198
   18.2756250000000        -1.298584077930651E-197
   18.4893750000000        -9.320659336355410E-197
   18.7031250000000        -5.524646102088436E-196
   18.9168750000000        -2.733008661084126E-195
   19.1306250000000        -1.108914407544722E-194
   19.3443750000000        -3.541165756528779E-194
   19.5581250000000        -9.041132237141358E-194
   19.7718750000000        -3.778949425360262E-193
   19.9856250000000        -4.457292118541917E-192
   20.1993750000000        -5.159576927262055E-191
   20.4131250000000        -4.708573004462791E-190
   20.6268750000000        -3.563754434249407E-189
   20.8406250000000        -2.339868110113475E-188
   21.0543750000000        -1.370277598606889E-187
   21.2681250000000        -7.279104511393634E-187
   21.4818750000000        -3.542845160541254E-186
   21.6956250000000        -1.588186040319333E-185
   21.9093750000000        -6.564612745440879E-185
   22.1231250000000        -2.493147319839115E-184
   22.3368750000000        -8.609005190918844E-184
   22.5506250000000        -2.637549289493757E-183
   22.7643750000000        -6.738234753496520E-183
   22.9781250000000        -1.142961215524471E-182
   23.1918750000000         9.846797283413213E-183
   23.4056250000000         2.131114764181583E-181
   23.6193750000000         1.307442303891744E-180
   23.8331250000000         6.084467981269245E-180
   24.0468750000000         2.444167658522545E-179
   24.2606250000000         8.848542368447191E-179
   24.4743750000000         2.939866072086808E-178
   24.6881250000000         9.028619422816492E-178
   24.9018750000000         2.563535118199399E-177
   25.1156250000000         6.684158561853439E-177
   25.3293750000000         1.572620926268216E-176
   25.5431250000000         3.201853684280812E-176
   25.7568750000000         4.982342245575777E-176
   25.9706250000000         2.452455842500156E-176
   26.1843750000000        -2.237538585471838E-175
   26.3981250000000        -1.270916702092335E-174
   26.6118750000000        -4.710103196135020E-174
   26.8256250000000        -1.444084229554626E-173
   27.0393750000000        -3.888281745249877E-173
   27.2531250000000        -9.355896848453214E-173
   27.4668750000000        -2.003561080494478E-172
   27.6806250000000        -3.709656201563861E-172
   27.8943750000000        -5.418467903375652E-172
   28.1081250000000        -3.903168442244805E-172
   28.3218750000000         1.090877992282147E-171
   28.5356250000000         6.407828201516216E-171
   28.7493750000000         2.076341734700035E-170
   28.9631250000000         5.292395943423783E-170
   29.1768750000000         1.130103210907492E-169
   29.3906250000000         1.999774366802774E-169
   29.6043750000000         2.637753426214508E-169
   29.8181250000000         1.183644981537889E-169
   30.0318750000000        -7.156932701109396E-169
   30.2456250000000        -3.208901609306764E-168
   30.4593750000000        -8.842768900476540E-168
   30.6731250000000        -1.874352075254968E-167
   30.8868750000000        -3.017882898882401E-167
   31.1006250000000        -2.684037520196794E-167
   31.3143750000000         4.313091008971788E-167
   31.5281250000000         3.091396195205347E-166
   31.7418750000000         1.044656478793750E-165
   31.9556250000000         2.745222626448464E-165
   32.1693750000000         6.156927364583331E-165
   32.3831250000000         1.209512446696105E-164
   32.5968750000000         2.072955999777456E-164
   32.8106250000000         2.981016473351691E-164
   33.0243750000000         3.118688921852455E-164
   33.2381250000000         5.206047845914221E-165
   33.4518750000000        -8.646174535420845E-164
   33.6656250000000        -3.070748877036804E-163
   33.8793750000000        -7.456495984167015E-163
   34.0931250000000        -1.509577814744887E-162
   34.3068750000000        -2.721132993412837E-162
   34.5206250000000        -4.574540305482920E-162
   34.7343750000000        -7.602386925261700E-162
   34.9481250000000        -1.343216066737724E-161
   35.1618750000000        -2.638142450553603E-161
   35.3756250000000        -5.589845335820709E-161
   35.5893750000000        -1.182907111492548E-160
   35.8031250000000        -2.318777979112732E-160
   36.0168750000000        -3.904763758310763E-160
   36.2306250000000        -4.841594146565869E-160
   36.4443750000000        -1.154900620669331E-160
   36.6581250000000         1.752473086073165E-159
   36.8718750000000         7.343290178360222E-159
   37.0856250000000         2.066315954570938E-158
   37.2993750000000         4.753412691280124E-158
   37.5131250000000         9.347533766209158E-158
   37.7268750000000         1.561609365216389E-157
   37.9406250000000         2.069156101633725E-157
   38.1543750000000         1.539369889407380E-157
   38.3681250000000        -2.181008013206783E-157
   38.5818750000000        -1.324510544881728E-156
   38.7956250000000        -3.828664594706162E-156
   39.0093750000000        -8.537015699098182E-156
   39.2231250000000        -1.587285263185393E-155
   39.4368750000000        -2.445234555631247E-155
   39.6506250000000        -2.807794679399698E-155
   39.8643750000000        -1.047779114131409E-155
   40.0781250000000         6.211371866120437E-155
   40.2918750000000         2.478852429106862E-154
   40.5056250000000         6.272160484514199E-154
   40.7193750000000         1.270965128151812E-153
   40.9331250000000         2.140167458836492E-153
   41.1468750000000         2.854272139440406E-153
   41.3606250000000         2.249100086848429E-153
   41.5743750000000        -2.326649047696147E-153
   41.7881250000000        -1.587814577825941E-152
   42.0018750000000        -4.628230828070374E-152
   42.2156250000000        -1.030480311347434E-151
   42.4293750000000        -1.912781658292768E-151
   42.6431250000000        -2.953141611006332E-151
   42.8568750000000        -3.437033775488065E-151
   43.0706250000000        -1.459506098045464E-151
   43.2843750000000         7.027823439134151E-151
   43.4981250000000         2.929483990291099E-150
   43.7118750000000         7.624155735912295E-150
   43.9256250000000         1.601066957522280E-149
   44.1393750000000         2.852906778628963E-149
   44.3531250000000         4.249967934493624E-149
   44.5668750000000         4.731445414228954E-149
   44.7806250000000         1.604778519893273E-149
   44.9943750000000        -1.067181513807829E-148
   45.2081250000000        -4.178623481510667E-148
   45.4218750000000        -1.058806298050605E-147
   45.6356250000000        -2.182911346736943E-147
   45.8493750000000        -3.836327192046874E-147
   46.0631250000000        -5.667536597442439E-147
   46.2768750000000        -6.350005248470108E-147
   46.4906250000000        -2.609901103208731E-147
   46.7043750000000         1.212543510399735E-146
   46.9181250000000         4.906102831264932E-146
   47.1318750000000         1.240975991996224E-145
   47.3456250000000         2.537894354019129E-145
   47.5593750000000         4.419001075663339E-145
   47.7731250000000         6.482262283038420E-145
   47.9868750000000         7.292080822262670E-145
   48.2006250000000         3.422995643513967E-145
   48.4143750000000        -1.179399525037829E-144
   48.6281250000000        -4.936621839338389E-144
   48.8418750000000        -1.243097199993145E-143
   49.0556250000000        -2.512337812181535E-143
   49.2693750000000        -4.311773974722269E-143
   49.4831250000000        -6.228786009653059E-143
   49.6968750000000        -6.908118376614007E-143
   49.9106250000000        -3.260833080688013E-143
   50.1243750000000         1.049376019833809E-142
   50.3381250000000         4.350821377722918E-142
   50.5518750000000         1.076169483273769E-141
   50.7656250000000         2.131542275648695E-141
   50.9793750000000         3.578263563616490E-141
   51.1931250000000         5.040196302916571E-141
   51.4068750000000         5.401480143586092E-141
   51.6206250000000         2.256799775968610E-141
   51.8343750000000        -8.686672127711769E-141
   52.0481250000000        -3.388992591790982E-140
   52.2618750000000        -8.114296978038512E-140
   52.4756250000000        -1.561697540118999E-139
   52.6893750000000        -2.545251897514022E-139
   52.9031250000000        -3.462159079412478E-139
   53.1168750000000        -3.512002165010862E-139
   53.3306250000000        -1.072828105386294E-139
   53.5443750000000         6.598680159417489E-139
   53.7581250000000         2.339193894651667E-138
   53.9718750000000         5.358941327419110E-138
   54.1856250000000         9.950906477576484E-138
   54.3993750000000         1.564155492774511E-137
   54.6131250000000         2.035485051853447E-137
   54.8268750000000         1.908508788992240E-137
   55.0406250000000         2.324786245111028E-138
   55.2543750000000        -4.508595577787529E-137
   55.4681250000000        -1.431906124334892E-136
   55.6818750000000        -3.115317766805575E-136
   55.8956250000000        -5.550946284593581E-136
   56.1093750000000        -8.366448054110232E-136
   56.3231250000000        -1.031503446713403E-135
   56.5368750000000        -8.659830614258200E-136
   56.7506250000000         1.465536980246502E-136
   56.9643750000000         2.734000360257259E-135
   57.1781250000000         7.782453540295028E-135
   57.3918750000000         1.601746721895040E-134
   57.6056250000000         2.727986000171044E-134
   57.8193750000000         3.921804388005107E-134
   58.0331250000000         4.531063534924107E-134
   58.2468750000000         3.242159774744928E-134
   58.4606250000000        -2.130351006544922E-134
   58.6743750000000        -1.463600768410293E-133
   58.8881250000000        -3.763225791929013E-133
   59.1018750000000        -7.318502797647840E-133
   59.3156250000000        -1.188220529391178E-132
   59.5293750000000        -1.621301439721993E-132
   59.7431250000000        -1.732329535356853E-132
   59.9568750000000        -9.651789474187825E-133
   60.1706250000000         1.545424117204868E-132
   60.3843750000000         6.918100504272180E-132
   60.5981250000000         1.623629516449199E-131
   60.8118750000000         2.985675736192264E-131
   61.0256250000000         4.613422872549643E-131
   61.2393750000000         5.946127990451809E-131
   61.4531250000000         5.777443526838838E-131
   61.6668750000000         2.020113082514978E-131
   61.8806250000000        -8.360149681570883E-131
   62.0943750000000        -2.896406443610834E-130
   62.3081250000000        -6.271765389781459E-130
   62.5218750000000        -1.092642890134000E-129
   62.7356250000000        -1.605472078388523E-129
   62.9493750000000        -1.945380375483212E-129
   63.1631250000000        -1.680353743540617E-129
   63.3768750000000        -1.123591173395692E-130
   63.5906250000000         3.705136024391758E-129
   63.8043750000000         1.078973788491106E-128
   64.0181250000000         2.177290237132303E-128
   64.2318750000000         3.603358383384459E-128
   64.4456250000000         5.034100650669018E-128
   64.6593750000000         5.707902994572630E-128
   64.8731250000000         4.244310077637851E-128
   65.0868750000000        -1.447081732903961E-128
   65.3006250000000        -1.400336796423058E-127
   65.5143750000000        -3.594398615218831E-127
   65.7281250000000        -6.820043628179451E-127
   65.9418750000000        -1.075606792726050E-126
   66.1556250000000        -1.429508986133180E-126
   66.3693750000000        -1.509757467029747E-126
   66.5831250000000        -9.205153085697791E-127
   66.7968750000000         9.014926815580904E-127
   67.0106250000000         4.614821031407438E-126
   67.2243750000000         1.076215762455995E-125
   67.4381250000000         1.935224549742910E-125
   67.6518750000000         2.918585561944411E-125
   67.8656250000000         3.694322535698766E-125
   68.0793750000000         3.618933070873864E-125
   68.2931250000000         1.668444844506189E-125
   68.5068750000000        -3.529112141641961E-125
   68.7206250000000        -1.345253564472703E-124
   68.9343750000000        -2.910216007301184E-124
   69.1481250000000        -4.993844330367504E-124
   69.3618750000000        -7.228303889885316E-124
   69.5756250000000        -8.730407785992526E-124
   69.7893750000000        -7.904782356686719E-124
   70.0031250000000        -2.349923783992979E-124
   70.2168750000000         1.096813648394285E-123
   70.4306250000000         3.504333681513311E-123
   70.6443750000000         7.139132481366378E-123
   70.8581250000000         1.176251842660297E-122
   71.0718750000000         1.640260746711098E-122
   71.2856250000000         1.895278396848143E-122
   71.4993750000000         1.582766447128056E-122
   71.7131250000000         1.897634621416048E-123
   71.9268750000000        -2.895432043373987E-122
   72.1406250000000        -8.220487765362517E-122
   72.3543750000000        -1.595223955154925E-121
   72.5681250000000        -2.537543754558344E-121
   72.7818750000000        -3.422466180586009E-121
   72.9956250000000        -3.795977652839507E-121
   73.2093750000000        -2.924041066449876E-121
   73.4231250000000         1.954473432796375E-122
   73.6368750000000         6.691386514931024E-121
   73.8506250000000         1.747024513901733E-120
   74.0643750000000         3.258547563711116E-120
   74.2781250000000         5.029434514915449E-120
   74.4918750000000         6.587094368469880E-120
   74.7056250000000         7.041994071710916E-120
   74.9193750000000         5.019199310229068E-120
   75.1331250000000        -1.278575346838177E-120
   75.3468750000000        -1.376546532468217E-119
   75.5606250000000        -3.379963945807740E-119
   75.7743750000000        -6.104181940174457E-119
   75.9881250000000        -9.183306422217446E-119
   76.2018750000000        -1.172645990412845E-118
   76.4156250000000        -1.214134672009290E-118
   76.6293750000000        -8.062873522962241E-119
   76.8431250000000         3.478304453160373E-119
   77.0568750000000         2.547419298836288E-118
   77.2706250000000         5.976500318542144E-118
   77.4843750000000         1.051505060493165E-117
   77.6981250000000         1.548300087704499E-117
   77.9118750000000         1.935212576472741E-117
   78.1256250000000         1.950769018596949E-117
   78.3393750000000         1.220173400120008E-117
   78.5531250000000        -7.097743234515299E-118
   78.7668750000000        -4.271472537903493E-117
   78.9806250000000        -9.689546739343823E-117
   79.1943750000000        -1.669406033935988E-116
   79.4081250000000        -2.414869601763352E-116
   79.6218750000000        -2.965510865810691E-116
   79.8356250000000        -2.926118056325621E-116
   80.0493750000000        -1.748096257695753E-116
   80.2631250000000         1.209010824956974E-116
   80.4768750000000         6.524198172837779E-116
   80.6906250000000         1.444217146873205E-115
   80.9043750000000         2.447237078150166E-115
   81.1181250000000         3.489078933961794E-115
   81.3318750000000         4.223947933277459E-115
   81.5456250000000         4.100521597867347E-115
   81.7593750000000         2.375640953019963E-115
   81.9731250000000        -1.789987477802864E-115
   82.1868750000000        -9.115426469384736E-115
   82.4006250000000        -1.983317553874784E-114
   82.6143750000000        -3.317169239587629E-114
   82.8281250000000        -4.673872636689080E-114
   83.0418750000000        -5.593820334157509E-114
   83.2556250000000        -5.365683369633225E-114
   83.4693750000000        -3.056535405304183E-114
   83.6831250000000         2.354063514630753E-114
   83.8968750000000         1.169365676600079E-113
   84.1106250000000         2.514289084823464E-113
   84.3243750000000         4.161805981296144E-113
   84.5381250000000         5.806565841461670E-113
   84.7518750000000         6.883824839516606E-113
   84.9656250000000         6.543444546383148E-113
   85.1793750000000         3.699605025573719E-113
   85.3931250000000        -2.797836349966175E-113
   85.6068750000000        -1.382804290372329E-112
   85.8206250000000        -2.947867432607396E-112
   86.0343750000000        -4.836420429557063E-112
   86.2481250000000        -6.688105553217865E-112
   86.4618750000000        -7.859794878566110E-112
   86.6756250000000        -7.409411921704727E-112
   86.8893750000000        -4.165873708181006E-112
   87.1031250000000         3.069253467827535E-112
   87.3168750000000         1.515034711401884E-111
   87.5306250000000         3.203466523360022E-111
   87.7443750000000         5.208626955167629E-111
   87.9581250000000         7.135279494879316E-111
   88.1718750000000         8.302995697034493E-111
   88.3856250000000         7.743372657393345E-111
   88.5993750000000         4.288122652544783E-111
   88.8131250000000        -3.210627233094036E-111
   89.0268750000000        -1.549777788668585E-110
   89.2406250000000        -3.237001986081583E-110
   89.4543750000000        -5.201964701713224E-110
   89.6681250000000        -7.039384275052529E-110
   89.8818750000000        -8.078573613478049E-110
   90.0956250000000        -7.396083603474629E-110
   90.3093750000000        -3.917708344481519E-110
   90.5231250000000         3.356309782638374E-110
   90.7368750000000         1.498332825665067E-109
   90.9506250000000         3.057910545035906E-109
   91.1643750000000         4.824896294394271E-109
   91.3781250000000         6.407793838656045E-109
   91.5918750000000         7.188333446445257E-109
   91.8056250000000         6.349730509650983E-109
   92.0193750000000         2.987266027699890E-109
   92.2331250000000        -3.674414821797153E-109
   92.4468750000000        -1.394909428937979E-108
   92.6606250000000        -2.726408578385665E-108
   92.8743750000000        -4.170996972493129E-108
   93.0881250000000        -5.368818059981458E-108
   93.3018750000000        -5.783625545294401E-108
   93.5156250000000        -4.745030569647105E-108
   93.7293750000000        -1.562256781072877E-108
   93.9431250000000         4.276013178998724E-108
   94.1568750000000         1.281803592325920E-107
   94.3706250000000         2.331210990882806E-107
   94.5843750000000         3.388513057942237E-107
   94.7981250000000         4.134878364831964E-107
   95.0118750000000         4.128394731290965E-107
   95.2256250000000         2.857141991096419E-107
   95.4393750000000        -1.486479930386552E-108
   95.6531250000000        -5.139504102888990E-107
   95.8668750000000        -1.191539911292366E-106
   96.0806250000000        -1.957567666215183E-106
   96.2943750000000        -2.631662697605900E-106
   96.5081250000000        -2.937469938711478E-106
   96.7218750000000        -2.523599327658304E-106
   96.9356250000000        -1.023290891893425E-106
   97.1493750000000         1.838919360666068E-106
   97.3631250000000         6.094367847827191E-106
   97.5768750000000         1.134739353402270E-105
   97.7906250000000         1.659953237364028E-105
   98.0043750000000         2.014191605636489E-105
   98.2181250000000         1.959869642098091E-105
   98.4318750000000         1.221516939364485E-105
   98.6456250000000        -4.526718598248663E-106
   98.8593750000000        -3.192753434321549E-105
   99.0731250000000        -6.877444213640426E-105
   99.2868750000000        -1.099151402116857E-104
   99.5006250000000        -1.450585089623119E-104
   99.7143750000000        -1.583408844874564E-104
   99.9281250000000        -1.293400148687465E-104
   100.141875000000        -3.625191142007175E-105
   100.355625000000         1.382176974693084E-104
   100.569375000000         3.981424940166419E-104
   100.783125000000         7.235314486401076E-104
   100.996875000000         1.059171450184343E-103
   101.210625000000         1.306348494343519E-103
   101.424375000000         1.322001514388162E-103
   101.638125000000         9.308026216527037E-104
   101.851875000000        -4.439365482176301E-105
   102.065625000000        -1.729992311147778E-103
   102.279375000000        -4.127227437869559E-103
   102.493125000000        -7.022721837543504E-103
   102.706875000000        -9.900033206394601E-103
   102.920625000000        -1.187886426352968E-102
   103.134375000000        -1.171879598900143E-102
   103.348125000000        -7.930827060555606E-103
   103.561875000000         9.616708300969277E-104
   103.775625000000         1.598564050632595E-102
   103.989375000000         3.710983181194429E-102
   104.203125000000         6.252224246019894E-102
   104.416875000000         8.792098768003132E-102
   104.630625000000         1.060271628930391E-101
   104.844375000000         1.066046067420438E-101
   105.058125000000         7.731894568590049E-102
   105.271875000000         5.755249291095542E-103
   105.485625000000        -1.171952879829450E-101
   105.699375000000        -2.926057723081965E-101
   105.913125000000        -5.078489076392326E-101
   106.126875000000        -7.309211637179977E-101
   106.340625000000        -9.062777296530709E-101
   106.554375000000        -9.542721936357481E-101
   106.768125000000        -7.766735373599941E-101
   106.981875000000        -2.706980842325919E-101
   107.195625000000         6.467022378541168E-101
   107.409375000000         2.004139341161335E-100
   107.623125000000         3.733131754182453E-100
   107.836875000000         5.623541028619229E-100
   108.050625000000         7.287409556940709E-100
   108.264375000000         8.145746512283327E-100
   108.478125000000         7.455944009623553E-100
   108.691875000000         4.398082123528797E-100
   108.905625000000        -1.765281939554374E-100
   109.119375000000        -1.145077122661741E-099
   109.333125000000        -2.444874368122881E-099
   109.546875000000        -3.958578644276618E-099
   109.760625000000        -5.441925172662355E-099
   109.974375000000        -6.505859744577446E-099
   110.188125000000        -6.623406177124167E-099
   110.401875000000        -5.174499270447345E-099
   110.615625000000        -1.540699645586718E-099
   110.829375000000         4.743239351536354E-099
   111.043125000000         1.378348768237211E-098
   111.256875000000         2.508392472861593E-098
   111.470625000000         3.730143490882264E-098
   111.684375000000         4.805692454314698E-098
   111.898125000000         5.387963544476905E-098
   112.111875000000         5.037639256760784E-098
   112.325625000000         3.271834199751611E-098
   112.539375000000        -3.482194403272151E-099
   112.753125000000        -6.088022064482035E-098
   112.966875000000        -1.387487475233752E-097
   113.180625000000        -2.311435401030835E-097
   113.394375000000        -3.251957679441394E-097
   113.608125000000        -3.999985491597134E-097
   113.821875000000        -4.266873926931981E-097
   114.035625000000        -3.703901065434413E-097
   114.249375000000        -1.946887250122765E-097
   114.463125000000         1.309600704615002E-097
   114.676875000000         6.208080866893546E-097
   114.890625000000         1.260015932711360E-096
   115.104375000000         1.990973244223772E-096
   115.318125000000         2.701307225865677E-096
   115.531875000000         3.217255385478350E-096
   115.745625000000         3.307006204171607E-096
   115.959375000000         2.699050456939231E-096
   116.173125000000         1.120155938192852E-096
   116.386875000000        -1.644128587327695E-096
   116.600625000000        -5.666880458291728E-096
   116.814375000000        -1.078075580482157E-095
   117.028125000000        -1.647508480551646E-095
   117.241875000000        -2.180991478401541E-095
   117.455625000000        -2.537615288674232E-095
   117.669375000000        -2.533765360915862E-095
   117.883125000000        -1.959366149801320E-095
   118.096875000000        -6.095449950110412E-096
   118.310625000000         1.666387585903593E-095
   118.524375000000         4.899532676575493E-095
   118.738125000000         8.924688501132128E-095
   118.951875000000         1.330298980325398E-094
   119.165625000000         1.726095259460506E-094
   119.379375000000         1.966924475310202E-094
   119.593125000000         1.908915043774048E-094
   119.806875000000         1.391570462696116E-094
   120.020625000000         2.641471556323983E-095
   120.234375000000        -1.574845725285908E-094
   120.448125000000        -4.126331374755837E-094
   120.661875000000        -7.232288073303447E-094
   120.875625000000        -1.051942991148764E-093
   121.089375000000        -1.335888786369315E-093
   121.303125000000        -1.486026480972663E-093
   121.516875000000        -1.392123113927997E-093
   121.730625000000        -9.353389773649776E-094
   121.944375000000        -9.970406450967354E-096
   122.158125000000         1.445328024498500E-093
   122.371875000000         3.408490942005341E-093
   122.585625000000         5.731531519263664E-093
   122.799375000000         8.102222054322523E-093
   123.013125000000         1.002100811260720E-092
   123.226875000000         1.080699386602782E-092
   123.440625000000         9.648053859761228E-093
   123.654375000000         5.708596978431691E-093
   123.868125000000        -1.696962342035050E-093