  -1.60312500000000         0.000000000000000E+000
  -1.38937500000000         0.000000000000000E+000
  -1.17562500000000         0.000000000000000E+000
 -0.961875000000000         0.000000000000000E+000
 -0.748125000000000         0.000000000000000E+000
 -0.534375000000000         0.000000000000000E+000
 -0.320625000000000         0.000000000000000E+000
 -0.106875000000000         0.000000000000000E+000
  0.106875000000000         0.000000000000000E+000
  0.320625000000000         0.000000000000000E+000
  0.534375000000000         0.000000000000000E+000
  0.748125000000000         0.000000000000000E+000
  0.961875000000000         0.000000000000000E+000
   1.17562500000000         0.000000000000000E+000
   1.38937500000000         0.000000000000000E+000
   1.60312500000000         0.000000000000000E+000
   1.81687500000000         0.000000000000000E+000
   2.03062500000000         0.000000000000000E+000
   2.24437500000000         0.000000000000000E+000
   2.45812500000000         0.000000000000000E+000
   2.67187500000000         0.000000000000000E+000
   2.88562500000000         0.000000000000000E+000
   3.09937500000000         0.000000000000000E+000
   3.31312500000000         0.000000000000000E+000
   3.52687500000000         0.000000000000000E+000
   3.74062500000000         0.000000000000000E+000
   3.95437500000000         0.000000000000000E+000
   4.16812500000000         0.000000000000000E+000
   4.38187500000000         0.000000000000000E+000
   4.59562500000000         0.000000000000000E+000
   4.80937500000000         0.000000000000000E+000
   5.02312500000000         0.000000000000000E+000
   5.23687500000000         0.000000000000000E+000
   5.45062500000000         0.000000000000000E+000
   5.66437500000000         0.000000000000000E+000
   5.87812500000000         0.000000000000000E+000
   6.09187500000000         0.000000000000000E+000
   6.30562500000000         0.000000000000000E+000
   6.51937500000000         0.000000000000000E+000
   6.73312500000000         0.000000000000000E+000
   6.94687500000000         0.000000000000000E+000
   7.16062500000000         0.000000000000000E+000
   7.37437500000000         0.000000000000000E+000
   7.58812500000000         0.000000000000000E+000
   7.80187500000000         0.000000000000000E+000
   8.01562500000000         0.000000000000000E+000
   8.22937500000000         0.000000000000000E+000
   8.44312500000000         0.000000000000000E+000
   8.65687500000000         0.000000000000000E+000
   8.87062500000000         0.000000000000000E+000
   9.08437500000000         0.000000000000000E+000
   9.29812500000000         0.000000000000000E+000
   9.51187500000000         0.000000000000000E+000
   9.72562500000000         0.000000000000000E+000
   9.93937500000000         0.000000000000000E+000
   10.1531250000000         0.000000000000000E+000
   10.3668750000000         0.000000000000000E+000
   10.5806250000000         0.000000000000000E+000
   10.7943750000000         0.000000000000000E+000
   11.0081250000000         0.000000000000000E+000
   11.2218750000000         0.000000000000000E+000
   11.4356250000000         0.000000000000000E+000
   11.6493750000000         0.000000000000000E+000
   11.8631250000000         0.000000000000000E+000
   12.0768750000000         0.000000000000000E+000
   12.2906250000000         3.517773778494815E-262
   12.5043750000000        -4.421125480095203E-255
   12.7181250000000         3.572503158931785E-252
   12.9318750000000         1.314316030018358E-249
   13.1456250000000         1.148325695118859E-247
   13.3593750000000         9.213484733799678E-246
   13.5731250000000         2.677075298917925E-232
   13.7868750000000        -3.364392492919579E-225
   14.0006250000000         7.566160714948455E-222
   14.2143750000000         2.379175167983839E-220
   14.4281250000000         7.625259562071775E-218
   14.6418750000000         7.546095227598334E-216
   14.8556250000000         3.767116140650317E-214
   15.0693750000000         1.229599442677015E-212
   15.2831250000000         2.954604401825748E-211
   15.4968750000000         5.584952939610013E-210
   15.7106250000000         8.665961913687193E-209
   15.9243750000000         1.138070865126002E-207
   16.1381250000000         1.296322629049967E-206
   16.3518750000000         1.308970094875004E-205
   16.5656250000000         1.196461526251823E-204
   16.7793750000000         1.009542980724982E-203
   16.9931250000000         7.981447909447548E-203
   17.2068750000000         5.937146374933629E-202
   17.4206250000000         4.099163949423403E-201
   17.6343750000000         2.521377694076581E-200
   17.8481250000000         1.246359943809432E-199
   18.0618750000000         3.134434980434819E-199
   18.2756250000000        -2.685516829221771E-198
   18.4893750000000        -5.404763646678505E-197
   18.7031250000000        -5.845121524372741E-196
   18.9168750000000        -4.968294700971373E-195
   19.1306250000000        -3.601020034658223E-194
   19.3443750000000        -2.286375595123972E-193
   19.5581250000000        -1.277634656650732E-192
   19.7718750000000        -6.191211745563147E-192
   19.9856250000000        -2.468304951970017E-191
   20.1993750000000        -6.620431820455001E-191
   20.4131250000000         5.290092549473256E-191
   20.6268750000000         2.406979710376508E-189
   20.8406250000000         2.229676114610533E-188
   21.0543750000000         1.533825758802764E-187
   21.2681250000000         9.044550149871827E-187
   21.4818750000000         4.800142262856954E-186
   21.6956250000000         2.345850339265360E-185
   21.9093750000000         1.069111129951680E-184
   22.1231250000000         4.579144624632738E-184
   22.3368750000000         1.852514705468341E-183
   22.5506250000000         7.102233608457112E-183
   22.7643750000000         2.585942094023344E-182
   22.9781250000000         8.953343384018219E-182
   23.1918750000000         2.949352648690808E-181
   23.4056250000000         9.242300634851791E-181
   23.6193750000000         2.752838849805225E-180
   23.8331250000000         7.780849959020266E-180
   24.0468750000000         2.081650369689299E-179
   24.2606250000000         5.251413001839670E-179
   24.4743750000000         1.242309531186558E-178
   24.6881250000000         2.733436280740020E-178
   24.9018750000000         5.523125481647009E-178
   25.1156250000000         1.002880151656217E-177
   25.3293750000000         1.566547611686202E-177
   25.5431250000000         1.862710332464297E-177
   25.7568750000000         6.884959880909132E-178
   25.9706250000000        -5.335260720356064E-177
   26.1843750000000        -2.685855420846206E-176
   26.3981250000000        -1.036925178170788E-175
   26.6118750000000        -3.942099379108592E-175
   26.8256250000000        -1.504009258535882E-174
   27.0393750000000        -5.568656971032789E-174
   27.2531250000000        -1.946447310520299E-173
   27.4668750000000        -6.339303117656483E-173
   27.6806250000000        -1.914510720589442E-172
   27.8943750000000        -5.349117394204341E-172
   28.1081250000000        -1.377825304798177E-171
   28.3218750000000        -3.246573688357634E-171
   28.5356250000000        -6.880524356341403E-171
   28.7493750000000        -1.261337255497677E-170
   28.9631250000000        -1.787454558377191E-170
   29.1768750000000        -9.837992402722570E-171
   29.3906250000000         5.256825637836776E-170
   29.6043750000000         2.763244909518209E-169
   29.8181250000000         9.004678194257951E-169
   30.0318750000000         2.384251887847858E-168
   30.2456250000000         5.454256122222631E-168
   30.4593750000000         1.090302348988286E-167
   30.6731250000000         1.864289905016175E-167
   30.8868750000000         2.508050998825227E-167
   31.1006250000000         1.752525251414637E-167
   31.3143750000000        -3.501865584482166E-167
   31.5281250000000        -1.913723798830165E-166
   31.7418750000000        -5.327010386359097E-166
   31.9556250000000        -1.099139087879758E-165
   32.1693750000000        -1.674912215489483E-165
   32.3831250000000        -1.258149374163321E-165
   32.5968750000000         2.993706239105811E-165
   32.8106250000000         1.742729286075994E-164
   33.0243750000000         5.361340323068744E-164
   33.2381250000000         1.277788879609883E-163
   33.4518750000000         2.517081680308616E-163
   33.6656250000000         4.020084191061285E-163
   33.8793750000000         4.453761949626242E-163
   34.0931250000000        -8.966781763508234E-165
   34.3068750000000        -1.846535664736893E-162
   34.5206250000000        -6.726468539934023E-162
   34.7343750000000        -1.717517473071699E-161
   34.9481250000000        -3.589280408001028E-161
   35.1618750000000        -6.303691371879617E-161
   35.3756250000000        -8.943468350395153E-161
   35.5893750000000        -8.316032264776394E-161
   35.8031250000000         3.199717297161802E-161
   36.0168750000000         4.022945820083937E-160
   36.2306250000000         1.256204972716067E-159
   36.4443750000000         2.857549704164267E-159
   36.6581250000000         5.310649712883207E-159
   36.8718750000000         8.079296593622229E-159
   37.0856250000000         9.066529643680348E-159
   37.2993750000000         3.218974897923543E-159
   37.5131250000000        -1.895043248524101E-158
   37.7268750000000        -7.151784479436053E-158
   37.9406250000000        -1.687315738926206E-157
   38.1543750000000        -3.101462514649604E-157
   38.3681250000000        -4.470969357623177E-157
   38.5818750000000        -4.236049903711610E-157
   38.7956250000000         1.028169458730460E-157
   39.0093750000000         1.718298841411180E-156
   39.2231250000000         5.165921044591528E-156
   39.4368750000000         1.085449804842205E-155
   39.6506250000000         1.751327761317337E-155
   39.8643750000000         1.939328916967837E-155
   40.0781250000000         1.574593787166638E-156
   40.2918750000000        -6.599231898012041E-155
   40.5056250000000        -2.319956465222951E-154
   40.7193750000000        -5.543347734007904E-154
   40.9331250000000        -1.055002657188881E-153
   41.1468750000000        -1.598412893102280E-153
   41.3606250000000        -1.633477813641674E-153
   41.5743750000000         2.610428768260654E-154
   41.7881250000000         7.024899715176878E-153
   42.0018750000000         2.373481299704143E-152
   42.2156250000000         5.743543325551397E-152
   42.4293750000000         1.143656355121901E-151
   42.6431250000000         1.909946591562457E-151
   42.8568750000000         2.529126637335818E-151
   43.0706250000000         1.936423771866596E-151
   43.2843750000000        -2.331396832126121E-151
   43.4981250000000        -1.502856293136092E-150
   43.7118750000000        -4.391000007892643E-150
   43.9256250000000        -9.908204716784039E-150
   44.1393750000000        -1.883582398770475E-149
   44.3531250000000        -3.036846184277242E-149
   44.5668750000000        -3.908602443525251E-149
   44.7806250000000        -2.929356498410358E-149
   44.9943750000000         3.390453134956238E-149
   45.2081250000000         2.157193149795823E-148
   45.4218750000000         6.192800461615364E-148
   45.6356250000000         1.374249445335190E-147
   45.8493750000000         2.573643993569065E-147
   46.0631250000000         4.100469449099596E-147
   46.2768750000000         5.257430348764094E-147
   46.4906250000000         4.102064210650021E-147
   46.7043750000000        -3.555167432503207E-147
   46.9181250000000        -2.531647268325420E-146
   47.1318750000000        -7.282218976429173E-146
   47.3456250000000        -1.600847860381378E-145
   47.5593750000000        -2.960422632419638E-145
   47.7731250000000        -4.654851017942994E-145
   47.9868750000000        -5.903026542020747E-145
   48.2006250000000        -4.631814585642981E-145
   48.4143750000000         3.466876596954686E-145
   48.6281250000000         2.593057159816909E-144
   48.8418750000000         7.382506906487093E-144
   49.0556250000000         1.596511102645267E-143
   49.2693750000000         2.897080598340310E-143
   49.4831250000000         4.460027957533029E-143
   49.6968750000000         5.515724848539645E-143
   49.9106250000000         4.144948941435927E-143
   50.1243750000000        -3.460736406635584E-143
   50.3381250000000        -2.367242581173368E-142
   50.5518750000000        -6.535527741937646E-142
   50.7656250000000        -1.376577642153355E-141
   50.9793750000000        -2.432497599991331E-141
   51.1931250000000        -3.635592307196119E-141
   51.4068750000000        -4.322380298146619E-141
   51.6206250000000        -2.950988761497090E-141
   51.8343750000000         3.380815683501204E-141
   52.0481250000000         1.928126918272488E-140
   52.2618750000000         5.075466579900081E-140
   52.4756250000000         1.032520124367686E-139
   52.6893750000000         1.765225248513103E-139
   52.9031250000000         2.542464126952852E-139
   53.1168750000000         2.866352746551200E-139
   53.3306250000000         1.660972663191192E-139
   53.5443750000000        -2.986851499747801E-139
   53.7581250000000        -1.394236694680344E-138
   53.9718750000000        -3.465357336079645E-138
   54.1856250000000        -6.770768569953737E-138
   54.3993750000000        -1.114570945946076E-137
   54.6131250000000        -1.537371858511674E-137
   54.8268750000000        -1.620549607079002E-137
   55.0406250000000        -7.102654259846158E-138
   55.2543750000000         2.289224130038121E-137
   55.4681250000000         8.916455117493708E-137
   55.6818750000000         2.085122350629044E-136
   55.8956250000000         3.900737581829777E-136
   56.1093750000000         6.162133008184509E-136
   56.3231250000000         8.095281736438009E-136
   56.5368750000000         7.850990180886200E-136
   56.7506250000000         1.954551538052736E-136
   56.9643750000000        -1.507321110868857E-135
   57.1781250000000        -5.039678460300994E-135
   57.3918750000000        -1.109300687696215E-134
   57.6056250000000        -1.984436350961543E-134
   57.8193750000000        -3.001479129317756E-134
   58.0331250000000        -3.736016387952924E-134
   58.2468750000000        -3.265932958506217E-134
   58.4606250000000         3.170661172176272E-136
   58.6743750000000         8.561102845162276E-134
   58.8881250000000         2.522504674040791E-133
   59.1018750000000         5.239474792628503E-133
   59.3156250000000         8.962184132392088E-133
   59.5293750000000         1.295784413250203E-132
   59.7431250000000         1.520146354153768E-132
   59.9568750000000         1.164076875845111E-132
   60.1706250000000        -4.422778515748569E-133
   60.3843750000000        -4.229271544004929E-132
   60.5981250000000        -1.122212210262018E-131
   60.8118750000000        -2.207361244441591E-131
   61.0256250000000        -3.612774038293633E-131
   61.2393750000000        -4.987818120702282E-131
   61.4531250000000        -5.484084026572481E-131
   61.6668750000000        -3.522658016950914E-131
   61.8806250000000         3.353255901876518E-131
   62.0943750000000         1.833401279532390E-130
   62.3081250000000         4.457511378846778E-130
   62.5218750000000         8.335757152949865E-130
   62.7356250000000         1.307066527309575E-129
   62.9493750000000         1.722061765163017E-129
   63.1631250000000         1.763858246806395E-129
   63.3768750000000         8.836942284587594E-130
   63.5906250000000        -1.723562695672827E-129
   63.8043750000000        -7.031827978704128E-129
   64.0181250000000        -1.588422592396129E-128
   64.2318750000000        -2.835641683519999E-128
   64.4456250000000        -4.267126194141877E-128
   64.6593750000000        -5.364461339132772E-128
   64.8731250000000        -5.086513117120555E-128
   65.0868750000000        -1.722061023644222E-128
   65.3006250000000         7.099304344362993E-128
   65.5143750000000         2.403551662395030E-127
   65.7281250000000         5.102147154508196E-127
   65.9418750000000         8.731249307583988E-127
   66.1556250000000         1.263671645848276E-126
   66.3693750000000         1.516756859263204E-126
   66.5831250000000         1.323146501406102E-126
   66.7968750000000         2.014103735818449E-127
   67.0106250000000        -2.478714775648201E-126
   67.2243750000000        -7.368298067501452E-126
   67.4381250000000        -1.483901155668064E-125
   67.6518750000000        -2.444488042914581E-125
   67.8656250000000        -3.411641947064974E-125
   68.0793750000000        -3.915308141149871E-125
   68.2931250000000        -3.125987139829767E-125
   68.5068750000000         1.847122123869788E-126
   68.7206250000000         7.537971215580877E-125
   68.9343750000000         2.037050573389271E-124
   69.1481250000000         3.923967492217692E-124
   69.3618750000000         6.248874843925137E-124
   69.5756250000000         8.436139034171637E-124
   69.7893750000000         9.280234704767990E-124
   70.0031250000000         6.760914626078154E-124
   70.2168750000000        -1.978361438727299E-124
   70.4306250000000        -2.028686916076541E-123
   70.6443750000000        -5.103064697437013E-123
   70.8581250000000        -9.469944703908722E-123
   71.0718750000000        -1.464055121681605E-122
   71.2856250000000        -1.918709660043200E-122
   71.4993750000000        -2.030717112692187E-122
   71.7131250000000        -1.351203654976290E-122
   71.9268750000000         7.279834723070038E-123
   72.1406250000000         4.882786795722473E-122
   72.3543750000000         1.163178156683082E-121
   72.5681250000000         2.092778930271869E-121
   72.7818750000000         3.154277317706880E-121
   72.9956250000000         4.028760370002984E-121
   73.2093750000000         4.122633852867275E-121
   73.4231250000000         2.522164372224234E-121
   73.6368750000000        -1.962934755309921E-121
   73.8506250000000        -1.058882362770383E-120
   74.0643750000000        -2.420940668612411E-120
   74.2781250000000        -4.247361871672243E-120
   74.4918750000000        -6.267112392487096E-120
   74.7056250000000        -7.834040258988372E-120
   74.9193750000000        -7.797401660746633E-120
   75.1331250000000        -4.446747588251879E-120
   75.3468750000000         4.367545105532627E-120
   75.5606250000000         2.080428599730443E-119
   75.7743750000000         4.614751752771422E-119
   75.9881250000000         7.936199133631549E-119
   76.2018750000000         1.151019449842020E-118
   76.4156250000000         1.414245913012086E-118
   76.6293750000000         1.378358366303884E-118
   76.8431250000000         7.479722342904472E-119
   77.0568750000000        -8.362699455594887E-119
   77.2706250000000        -3.718780723077070E-118
   77.4843750000000        -8.076536304070892E-118
   77.6981250000000        -1.368012964178567E-117
   77.9118750000000        -1.957695917272191E-117
   78.1256250000000        -2.374429184285927E-117
   78.3393750000000        -2.281856065127091E-117
   78.5531250000000        -1.208125948327254E-117
   78.7668750000000         1.404283531624244E-117
   78.9806250000000         6.067058362543529E-117
   79.1943750000000         1.300459582109328E-116
   79.4081250000000         2.178949415184959E-116
   79.6218750000000         3.087640207007773E-116
   79.8356250000000         3.711463130507735E-116
   80.0493750000000         3.540386771078018E-116
   80.2631250000000         1.875770040610950E-116
   80.4768750000000        -2.086602181162113E-116
   80.6906250000000        -9.056178621839843E-116
   80.9043750000000        -1.929544885642093E-115
   81.1181250000000        -3.210583157026263E-115
   81.3318750000000        -4.519214540713673E-115
   81.5456250000000        -5.402779060369303E-115
   81.7593750000000        -5.145345923400517E-115
   81.9731250000000        -2.786751207922858E-115
   82.1868750000000         2.752650134766706E-115
   82.4006250000000         1.239152912641143E-114
   82.6143750000000         2.641298117468899E-114
   82.8281250000000         4.379290052612441E-114
   83.0418750000000         6.139632266222750E-114
   83.2556250000000         7.321081073054489E-114
   83.4693750000000         6.992063338613380E-114
   83.6831250000000         3.926939689034773E-114
   83.8968750000000        -3.223094429179779E-114
   84.1106250000000        -1.556777639769805E-113
   84.3243750000000        -3.338567970467450E-113
   84.5381250000000        -5.531074837596235E-113
   84.7518750000000        -7.738982993171477E-113
   84.9656250000000        -9.222612344517377E-113
   85.1793750000000        -8.857464362544270E-113
   85.3931250000000        -5.190736754619832E-113
   85.6068750000000         3.343401276083507E-113
   85.8206250000000         1.799073897166687E-112
   86.0343750000000         3.899220287853600E-112
   86.2481250000000         6.467041275375654E-112
   86.4618750000000         9.040649113419517E-112
   86.6756250000000         1.077593477103211E-111
   86.8893750000000         1.041359872217680E-111
   87.1031250000000         6.356668968840472E-112
   87.3168750000000        -3.078414981392266E-112
   87.5306250000000        -1.918119721148617E-111
   87.7443750000000        -4.211238899877297E-111
   87.9581250000000        -6.995415613325280E-111
   88.1718750000000        -9.768602344551045E-111
   88.3856250000000        -1.163609064502650E-110
   88.5993750000000        -1.129039628599494E-110
   88.8131250000000        -7.108172319709461E-111
   89.0268750000000         2.576841423363244E-111
   89.2406250000000         1.897743659642260E-110
   89.4543750000000         4.212150600282328E-110
   89.6681250000000         6.994057449255501E-110
   89.8818750000000         9.733244422292592E-110
   90.0956250000000         1.154761277744153E-109
   90.3093750000000         1.118047281106950E-109
   90.5231250000000         7.113441698647801E-110
   90.7368750000000        -2.155047289381834E-110
   90.9506250000000        -1.763124297312339E-109
   91.1643750000000        -3.915123347983551E-109
   91.3781250000000        -6.457808701101632E-109
   91.5918750000000        -8.902935692134811E-109
   91.8056250000000        -1.043984421029166E-108
   92.0193750000000        -9.953080434714629E-109
   92.2331250000000        -6.146936847729104E-109
   92.4468750000000         2.185620471188523E-109
   92.6606250000000         1.573082778458956E-108
   92.8743750000000         3.407790487365557E-108
   93.0881250000000         5.507664430870193E-108
   93.3018750000000         7.428250438546287E-108
   93.5156250000000         8.472355885461614E-108
   93.7293750000000         7.728687008858207E-108
   93.9431250000000         4.203508687269878E-108
   94.1568750000000        -2.931219694447242E-108
   94.3706250000000        -1.397022443206953E-107
   94.5843750000000        -2.822054743472796E-107
   94.7981250000000        -4.354349178290504E-107
   95.0118750000000        -5.603495843222501E-107
   95.2256250000000        -6.004104216552948E-107
   95.4393750000000        -4.873569058279737E-107
   95.6531250000000        -1.546513367338778E-107
   95.8668750000000         4.403985565297127E-107
   96.0806250000000         1.286919463809032E-106
   96.2943750000000         2.287448103721672E-106
   96.5081250000000         3.229978563113812E-106
   96.7218750000000         3.777698207632702E-106
   96.9356250000000         3.492159655762126E-106
   97.1493750000000         1.905848666867324E-106
   97.3631250000000        -1.344742138856299E-106
   97.5768750000000        -6.326359133527489E-106
   97.7906250000000        -1.257755988131118E-105
   98.0043750000000        -1.888735543094715E-105
   98.2181250000000        -2.316432499572925E-105
   98.4318750000000        -2.250468861620108E-105
   98.6456250000000        -1.358064214622160E-105
   98.8593750000000         6.547288678496650E-106
   99.0731250000000         3.915412498923994E-105
   99.2868750000000         8.219389534742112E-105
   99.5006250000000         1.285309319311825E-104
   99.7143750000000         1.645588124586164E-104
   99.9281250000000         1.699441892225321E-104
   100.141875000000         1.194043912163444E-104
   100.355625000000        -1.256818308223466E-105
   100.569375000000        -2.434062679826789E-104
   100.783125000000        -5.706528725590932E-104
   100.996875000000        -9.578565861450382E-104
   101.210625000000        -1.321016395673384E-103
   101.424375000000        -1.520293853602362E-103
   101.638125000000        -1.363457003226060E-103
   101.851875000000        -6.285021303733086E-104
   102.065625000000         8.877241885982786E-104
   102.279375000000         3.291244684690900E-103
   102.493125000000         6.485873156324780E-103
   102.706875000000         1.005443424782740E-102
   102.920625000000         1.315282457304995E-102
   103.134375000000         1.445830646329352E-102
   103.348125000000         1.222620673320897E-102
   103.561875000000         4.514689756693720E-103
   103.775625000000        -1.037112461754558E-102
   103.989375000000        -3.319372789425122E-102
   104.203125000000        -6.289032877870869E-102
   104.416875000000        -9.559039342425498E-102
   104.630625000000        -1.237684418250860E-101
   104.844375000000        -1.358712779886192E-101
   105.058125000000        -1.168528025034135E-101
   105.271875000000        -5.008279460554689E-102
   105.485625000000         7.898106907990980E-102
   105.699375000000         2.772071165823902E-101
   105.913125000000         5.365772338060486E-101
   106.126875000000         8.262826541802148E-101
   106.340625000000         1.085873232418510E-100
   106.554375000000         1.222061628072523E-100
   106.768125000000         1.112479142255762E-100
   106.981875000000         6.199208385360262E-101
   107.195625000000        -3.799515517662999E-101
   107.409375000000        -1.956219608525073E-100
   107.623125000000        -4.067581085619672E-100
   107.836875000000        -6.501107223874025E-100
   108.050625000000        -8.817355626152304E-100
   108.264375000000        -1.032051560252976E-099
   108.478125000000        -1.007740336317602E-099
   108.691875000000        -7.011188036328716E-100
   108.905625000000        -9.228510570361008E-102
   109.119375000000         1.136256765020369E-099
   109.333125000000         2.729332439164065E-099
   109.546875000000         4.644363775662692E-099
   109.760625000000         6.593383211581963E-099
   109.974375000000         8.098514412731422E-099
   110.188125000000         8.495802066622999E-099
   110.401875000000         6.988594704203489E-099
   110.615625000000         2.767031839098839E-099
   110.829375000000        -4.796512431122865E-099
   111.043125000000        -1.587929621366945E-098
   111.256875000000        -2.989067535157697E-098
   111.470625000000        -4.515443325467030E-098
   111.684375000000        -5.866921818307117E-098
   111.898125000000        -6.605193325368054E-098
   112.111875000000        -6.178530219665357E-098
   112.325625000000        -3.988718286252965E-098
   112.539375000000         4.914964690557153E-099
   112.753125000000         7.549475574985894E-098
   112.966875000000         1.702308623363147E-097
   113.180625000000         2.807711306117620E-097
   113.394375000000         3.901083163125915E-097
   113.608125000000         4.716004187157839E-097
   113.821875000000         4.897025875779920E-097
   114.035625000000         4.032065840487379E-097
   114.249375000000         1.716434315942214E-097
   114.463125000000        -2.348649035258288E-097
   114.676875000000        -8.226579865853789E-097
   114.890625000000        -1.559754540736832E-096
   115.104375000000        -2.361610950753957E-096
   115.318125000000        -3.080976223720697E-096
   115.531875000000        -3.506412052413910E-096
   115.745625000000        -3.374575435834399E-096
   115.959375000000        -2.401028734231113E-096
   116.173125000000        -3.327637063753551E-097
   116.386875000000         2.977508610655551E-096
   116.600625000000         7.480071703861184E-096
   116.814375000000         1.283102681657188E-095
   117.028125000000         1.830758939619829E-095
   117.241875000000         2.276129915462965E-095
   117.455625000000         2.463984078441239E-095
   117.669375000000         2.210951172153554E-095
   117.883125000000         1.330545248209370E-095
   118.096875000000        -3.276640362064813E-096
   118.310625000000        -2.825701655503307E-095
   118.524375000000        -6.075993805348289E-095
   118.738125000000        -9.779867603353046E-095
   118.951875000000        -1.337885851598069E-094
   119.165625000000        -1.603611370844244E-094
   119.379375000000        -1.666784896019571E-094
   119.593125000000        -1.404462872901141E-094
   119.806875000000        -6.977739861589967E-095
   120.020625000000         5.404180606958674E-095
   120.234375000000         2.329961717648076E-094
   120.448125000000         4.583387370997360E-094
   120.661875000000         7.067561294229963E-094
   120.875625000000         9.376071059890264E-094
   121.089375000000         1.092387293009682E-093
   121.303125000000         1.097707486625986E-093
   121.516875000000         8.730047572093160E-094
   121.730625000000         3.438429500533174E-094
   121.944375000000        -5.390761356836655E-094
   122.158125000000        -1.776217743211091E-093
   122.371875000000        -3.293396614186930E-093
   122.585625000000        -4.918195947618545E-093
   122.799375000000        -6.364798653715698E-093
   123.013125000000        -7.234864630656237E-093
   123.226875000000        -7.042685917767900E-093
   123.440625000000        -5.272008191736176E-093
   123.654375000000        -1.469042557333610E-093
   123.868125000000         4.629144912022896E-093