  -1.60312500000000         0.000000000000000E+000
  -1.38937500000000         0.000000000000000E+000
  -1.17562500000000         0.000000000000000E+000
 -0.961875000000000         0.000000000000000E+000
 -0.748125000000000         0.000000000000000E+000
 -0.534375000000000         0.000000000000000E+000
 -0.320625000000000         0.000000000000000E+000
 -0.106875000000000         0.000000000000000E+000
  0.106875000000000         0.000000000000000E+000
  0.320625000000000         0.000000000000000E+000
  0.534375000000000         0.000000000000000E+000
  0.748125000000000         0.000000000000000E+000
  0.961875000000000         0.000000000000000E+000
   1.17562500000000         0.000000000000000E+000
   1.38937500000000         0.000000000000000E+000
   1.60312500000000         0.000000000000000E+000
   1.81687500000000         0.000000000000000E+000
   2.03062500000000         0.000000000000000E+000
   2.24437500000000         0.000000000000000E+000
   2.45812500000000         0.000000000000000E+000
   2.67187500000000         0.000000000000000E+000
   2.88562500000000         0.000000000000000E+000
   3.09937500000000         0.000000000000000E+000
   3.31312500000000         0.000000000000000E+000
   3.52687500000000         0.000000000000000E+000
   3.74062500000000         0.000000000000000E+000
   3.95437500000000         0.000000000000000E+000
   4.16812500000000         0.000000000000000E+000
   4.38187500000000         0.000000000000000E+000
   4.59562500000000         0.000000000000000E+000
   4.80937500000000         0.000000000000000E+000
   5.02312500000000         0.000000000000000E+000
   5.23687500000000         0.000000000000000E+000
   5.45062500000000         0.000000000000000E+000
   5.66437500000000         0.000000000000000E+000
   5.87812500000000         0.000000000000000E+000
   6.09187500000000         0.000000000000000E+000
   6.30562500000000         0.000000000000000E+000
   6.51937500000000         0.000000000000000E+000
   6.73312500000000         0.000000000000000E+000
   6.94687500000000         0.000000000000000E+000
   7.16062500000000         0.000000000000000E+000
   7.37437500000000         0.000000000000000E+000
   7.58812500000000         0.000000000000000E+000
   7.80187500000000         0.000000000000000E+000
   8.01562500000000         0.000000000000000E+000
   8.22937500000000         0.000000000000000E+000
   8.44312500000000         0.000000000000000E+000
   8.65687500000000         0.000000000000000E+000
   8.87062500000000         0.000000000000000E+000
   9.08437500000000         0.000000000000000E+000
   9.29812500000000         0.000000000000000E+000
   9.51187500000000         0.000000000000000E+000
   9.72562500000000         0.000000000000000E+000
   9.93937500000000         0.000000000000000E+000
   10.1531250000000         0.000000000000000E+000
   10.3668750000000         0.000000000000000E+000
   10.5806250000000         0.000000000000000E+000
   10.7943750000000         0.000000000000000E+000
   11.0081250000000         0.000000000000000E+000
   11.2218750000000         0.000000000000000E+000
   11.4356250000000         0.000000000000000E+000
   11.6493750000000         0.000000000000000E+000
   11.8631250000000         0.000000000000000E+000
   12.0768750000000         8.228710592970329E-262
   12.2906250000000        -1.034181398852679E-254
   12.5043750000000         8.356732534690078E-252
   12.7181250000000         3.074433803845236E-249
   12.9318750000000         2.686058409560865E-247
   13.1456250000000         2.154893664975359E-245
   13.3593750000000         6.262164441913273E-232
   13.5731250000000        -7.869923960045802E-225
   13.7868750000000         1.769862155480877E-221
   14.0006250000000         5.565400729611153E-220
   14.2143750000000         1.783509461052697E-217
   14.4281250000000         1.765112821071704E-215
   14.6418750000000         8.810183894021310E-214
   14.8556250000000         2.874490837787730E-212
   15.0693750000000         6.902543358327716E-211
   15.2831250000000         1.303545484253390E-209
   15.4968750000000         2.020214238519049E-208
   15.7106250000000         2.649089853067583E-207
   15.9243750000000         3.012062379266152E-206
   16.1381250000000         3.035296809880103E-205
   16.3518750000000         2.768417075932921E-204
   16.5656250000000         2.330884864973644E-203
   16.7793750000000         1.839017954812249E-202
   16.9931250000000         1.365191129090323E-201
   17.2068750000000         9.401987065096907E-201
   17.4206250000000         5.759078901350280E-200
   17.6343750000000         2.819574980854264E-199
   17.8481250000000         6.742215698309144E-199
   18.0618750000000        -6.573456897316290E-198
   18.2756250000000        -1.271604209703592E-196
   18.4893750000000        -1.360997978030532E-195
   18.7031250000000        -1.149531477077097E-194
   18.9168750000000        -8.286710688688877E-194
   19.1306250000000        -5.232029586232184E-193
   19.3443750000000        -2.904384693109123E-192
   19.5581250000000        -1.394754195567427E-191
   19.7718750000000        -5.474950845157765E-191
   19.9856250000000        -1.403815355765775E-190
   20.1993750000000         1.814829824899012E-190
   20.4131250000000         5.785225797850429E-189
   20.6268750000000         5.203242156867976E-188
   20.8406250000000         3.531592892863155E-187
   21.0543750000000         2.063528079160416E-186
   21.2681250000000         1.086961330286942E-185
   21.4818750000000         5.275800790097407E-185
   21.6956250000000         2.388560718884470E-184
   21.9093750000000         1.016271249288001E-183
   22.1231250000000         4.083283257247190E-183
   22.3368750000000         1.554226700817273E-182
   22.5506250000000         5.615650581231603E-182
   22.7643750000000         1.928215210098833E-181
   22.9781250000000         6.294171787809297E-181
   23.1918750000000         1.952506736011689E-180
   23.4056250000000         5.749482070026070E-180
   23.6193750000000         1.603887694862009E-179
   23.8331250000000         4.225418677681350E-179
   24.0468750000000         1.046392516008806E-178
   24.2606250000000         2.419051448462288E-178
   24.4743750000000         5.165602293698371E-178
   24.6881250000000         1.001360456248059E-177
   24.9018750000000         1.706518183818047E-177
   25.1156250000000         2.372479680752050E-177
   25.3293750000000         2.011298668556912E-177
   25.5431250000000        -2.053921926538685E-177
   25.7568750000000        -1.683735918788390E-176
   25.9706250000000        -6.443754431942219E-176
   26.1843750000000        -2.300754551970122E-175
   26.3981250000000        -8.593014823447886E-175
   26.6118750000000        -3.275594715131703E-174
   26.8256250000000        -1.210396966812148E-173
   27.0393750000000        -4.201278092787628E-173
   27.2531250000000        -1.352616940480282E-172
   27.4668750000000        -4.023078338099209E-172
   27.6806250000000        -1.102967738582151E-171
   27.8943750000000        -2.775144404068381E-171
   28.1081250000000        -6.343068886402811E-171
   28.3218750000000        -1.287181064688474E-170
   28.5356250000000        -2.191064062367049E-170
   28.7493750000000        -2.571700871913568E-170
   28.9631250000000         6.492117315214507E-171
   29.1768750000000         1.647784841219641E-169
   29.3906250000000         6.693859259755404E-169
   29.6043750000000         1.983390790754217E-168
   29.8181250000000         4.930824320224647E-168
   30.0318750000000         1.065213638081131E-167
   30.2456250000000         1.992695111587136E-167
   30.4593750000000         3.085062673202133E-167
   30.6731250000000         3.316371110729689E-167
   30.8868750000000        -2.614377862024288E-168
   31.1006250000000        -1.405828440539741E-166
   31.3143750000000        -4.886494325079830E-166
   31.5281250000000        -1.164169316470381E-165
   31.7418750000000        -2.123430895898811E-165
   31.9556250000000        -2.671839010183800E-165
   32.1693750000000        -3.719538860434234E-166
   32.3831250000000         1.092074492302993E-164
   32.5968750000000         4.370863680683805E-164
   32.8106250000000         1.184086479335243E-163
   33.0243750000000         2.581323861993646E-163
   33.2381250000000         4.633795667840332E-163
   33.4518750000000         6.414725874740122E-163
   33.6656250000000         4.530246244017839E-163
   33.8793750000000        -9.613454991102598E-163
   34.0931250000000        -5.361197332630449E-162
   34.3068750000000        -1.571345440507723E-161
   34.5206250000000        -3.585646565141544E-161
   34.7343750000000        -6.822534629257602E-161
   34.9481250000000        -1.072789216095420E-160
   35.1618750000000        -1.252441623951843E-160
   35.3756250000000        -4.707230158822870E-161
   35.5893750000000         2.840511262586422E-160
   35.8031250000000         1.135567028435457E-159
   36.0168750000000         2.863643976010407E-159
   36.2306250000000         5.743286835452336E-159
   36.4443750000000         9.484081263548872E-159
   36.6581250000000         1.221461260691921E-158
   36.8718750000000         8.785684048648286E-159
   37.0856250000000        -1.136917355718992E-158
   37.2993750000000        -6.553675351794471E-158
   37.5131250000000        -1.748229700404306E-157
   37.7268750000000        -3.503652430581980E-157
   37.9406250000000        -5.581951033230404E-157
   38.1543750000000        -6.511470453092327E-157
   38.3681250000000        -2.654005588449140E-157
   38.5818750000000         1.286348261135354E-156
   38.7956250000000         5.010301360894367E-156
   39.0093750000000         1.184351835957540E-155
   39.2231250000000         2.137122621523011E-155
   39.4368750000000         2.888270542358327E-155
   39.6506250000000         1.997378040059956E-155
   39.8643750000000        -3.728347093802746E-155
   40.0781250000000        -1.997324167246755E-154
   40.2918750000000        -5.463631352268112E-154
   40.5056250000000        -1.142321530808585E-153
   40.7193750000000        -1.925162598050493E-153
   40.9331250000000        -2.442287999301732E-153
   41.1468750000000        -1.353158260708290E-153
   41.3606250000000         4.349604140183265E-153
   41.5743750000000         2.025351468729486E-152
   41.7881250000000         5.490940378997745E-152
   42.0018750000000         1.179193767025429E-151
   42.2156250000000         2.120019240120437E-151
   42.4293750000000         3.124192418730564E-151
   42.6431250000000         3.240866157225534E-151
   42.8568750000000         6.193492468804615E-153
   43.0706250000000        -1.136964554260102E-150
   43.2843750000000        -3.968417942275442E-150
   43.4981250000000        -9.725989063579019E-150
   43.7118750000000        -1.966163373952736E-149
   43.9256250000000        -3.378906194108097E-149
   44.1393750000000        -4.786025058710738E-149
   44.3531250000000        -4.736888993578421E-149
   44.5668750000000         2.514378616769086E-150
   44.7806250000000         1.707381421867014E-148
   44.9943750000000         5.731295437747040E-148
   45.2081250000000         1.369299449852571E-147
   45.4218750000000         2.710012000831832E-147
   45.6356250000000         4.571611572883108E-147
   45.8493750000000         6.377122815823173E-147
   46.0631250000000         6.277862819169658E-147
   46.2768750000000         3.730436375262999E-150
   46.4906250000000        -2.061426381582994E-146
   46.7043750000000        -6.881529097989298E-146
   46.9181250000000        -1.620281224135404E-145
   47.1318750000000        -3.152475166196108E-145
   47.3456250000000        -5.221522186612211E-145
   47.5593750000000        -7.143867035231854E-145
   47.7731250000000        -6.883283999066929E-145
   47.9868750000000         5.388639134506224E-147
   48.2006250000000         2.191790207947472E-144
   48.4143750000000         7.149096183347852E-144
   48.6281250000000         1.645805671764122E-143
   48.8418750000000         3.127965816756904E-143
   49.0556250000000         5.049894520916023E-143
   49.2693750000000         6.698285040673122E-143
   49.4831250000000         6.125483626197282E-143
   49.6968750000000        -7.370269382388302E-144
   49.9106250000000        -2.099757018754440E-142
   50.1243750000000        -6.506988246355468E-142
   50.3381250000000        -1.447825520765869E-141
   50.5518750000000        -2.666323705347410E-141
   50.7656250000000        -4.161274446310099E-141
   50.9793750000000        -5.284244830509392E-141
   51.1931250000000        -4.420778241298914E-141
   51.4068750000000         1.601411802804746E-141
   51.6206250000000         1.801917188689549E-140
   51.8343750000000         5.200528174087010E-140
   52.0481250000000         1.108160236619874E-139
   52.2618750000000         1.964227912375293E-139
   52.4756250000000         2.941938223445835E-139
   52.6893750000000         3.532032754585181E-139
   52.9031250000000         2.575736837516018E-139
   53.1168750000000        -2.061968336284591E-139
   53.3306250000000        -1.369170583929590E-138
   53.5443750000000        -3.649904002337926E-138
   53.7581250000000        -7.407420318373952E-138
   53.9718750000000        -1.257668274917753E-137
   54.1856250000000        -1.796573596112542E-137
   54.3993750000000        -2.012385968459185E-137
   54.6131250000000        -1.183575815515620E-137
   54.8268750000000         1.934751888952186E-137
   55.0406250000000         9.145669560507894E-137
   55.2543750000000         2.251864454614814E-136
   55.4681250000000         4.341988158187677E-136
   55.6818750000000         7.038811859837208E-136
   55.8956250000000         9.536867035217462E-136
   56.1093750000000         9.811799192066045E-136
   56.3231250000000         3.950543094039054E-136
   56.5368750000000        -1.436428116581350E-135
   56.7506250000000        -5.362386266567201E-135
   56.9643750000000        -1.224592658270472E-134
   57.1781250000000        -2.242265676279133E-134
   57.3918750000000        -3.463084222061856E-134
   57.6056250000000        -4.426148401453894E-134
   57.8193750000000        -4.097263244424284E-134
   58.0331250000000        -6.186054483940643E-135
   58.2468750000000         8.813387133741966E-134
   58.4606250000000         2.766558082729472E-133
   58.6743750000000         5.893178977470442E-133
   58.8881250000000         1.025348422950240E-132
   59.1018750000000         1.506357768035391E-132
   59.3156250000000         1.805466512251117E-132
   59.5293750000000         1.459480563542828E-132
   59.7431250000000        -3.080878067955318E-133
   59.9568750000000        -4.590465978312575E-132
   60.1706250000000        -1.261601969555566E-131
   60.3843750000000        -2.521600994396568E-131
   60.5981250000000        -4.174114830505491E-131
   60.8118750000000        -5.825875621126585E-131
   61.0256250000000        -6.503992693007468E-131
   61.2393750000000        -4.377333305915439E-131
   61.4531250000000         3.427275096494420E-131
   61.6668750000000         2.067214018350642E-130
   61.8806250000000         5.112671535035044E-130
   62.0943750000000         9.642539856512578E-130
   62.3081250000000         1.521018917758474E-129
   62.5218750000000         2.014772840759992E-129
   62.7356250000000         2.078329941211767E-129
   62.9493750000000         1.068518642097827E-129
   63.1631250000000        -1.961093653109374E-129
   63.3768750000000        -8.157709806968937E-129
   63.5906250000000        -1.851584142026406E-128
   63.8043750000000        -3.312435842874496E-128
   64.0181250000000        -4.988207919648151E-128
   64.2318750000000        -6.265973337416951E-128
   64.4456250000000        -5.915367615468477E-128
   64.6593750000000        -1.916694556675273E-128
   64.8731250000000         8.520234656113563E-128
   65.0868750000000         2.850483616721298E-127
   65.3006250000000         6.025164362010415E-127
   65.5143750000000         1.027419115806292E-126
   65.7281250000000         1.480163191857066E-126
   65.9418750000000         1.762472351806915E-126
   66.1556250000000         1.505571762584338E-126
   66.3693750000000         1.391224691411127E-127
   66.5831250000000        -3.076833884634757E-126
   66.7968750000000        -8.893242753343402E-126
   67.0106250000000        -1.770692033001941E-125
   67.2243750000000        -2.891297492639169E-125
   67.4381250000000        -3.994522189858329E-125
   67.6518750000000        -4.509335184554176E-125
   67.8656250000000        -3.440514849673191E-125
   68.0793750000000         6.681983794975623E-126
   68.2931250000000         9.590690885466317E-125
   68.5068750000000         2.494493182552198E-124
   68.7206250000000         4.721823045966256E-124
   68.9343750000000         7.415603206221301E-124
   69.1481250000000         9.852220515873373E-124
   69.3618750000000         1.055478723264080E-123
   69.5756250000000         7.090900259281535E-124
   69.7893750000000        -3.918653586183585E-124
   70.0031250000000        -2.633589741168488E-123
   70.2168750000000        -6.326966967682705E-123
   70.4306250000000        -1.147421883874686E-122
   70.6443750000000        -1.740645096568932E-122
   70.8581250000000        -2.230990998685154E-122
   71.0718750000000        -2.273017987490825E-122
   71.2856250000000        -1.325525125170954E-122
   71.4993750000000         1.327499427057100E-122
   71.7131250000000         6.453100783623841E-122
   71.9268750000000         1.458243380280413E-121
   72.1406250000000         2.550596045502648E-121
   72.3543750000000         3.753216960700870E-121
   72.5681250000000         4.657541897131695E-121
   72.7818750000000         4.528611554926589E-121
   72.9956250000000         2.265161485755312E-121
   73.2093750000000        -3.524201164394742E-121
   73.4231250000000        -1.423524820626244E-120
   73.6368750000000        -3.066897777760949E-120
   73.8506250000000        -5.203853083231389E-120
   74.0643750000000        -7.458431599770437E-120
   74.2781250000000        -8.996892921344297E-120
   74.4918750000000        -8.389890964482171E-120
   74.7056250000000        -3.579624019320540E-120
   74.9193750000000         7.923491627453785E-120
   75.1331250000000         2.845601582755382E-119
   75.3468750000000         5.906674522937148E-119
   75.5606250000000         9.773092964253006E-119
   75.7743750000000         1.369770885123067E-118
   75.9881250000000         1.612969063309656E-118
   76.2018750000000         1.451756724324986E-118
   76.4156250000000         5.317869390920800E-119
   76.6293750000000        -1.558534920986288E-118
   76.8431250000000        -5.180417103773970E-118
   77.0568750000000        -1.044854492951466E-117
   77.2706250000000        -1.693629557546528E-117
   77.4843750000000        -2.330140097943534E-117
   77.6981250000000        -2.690157396175675E-117
   77.9118750000000        -2.354189988555225E-117
   78.1256250000000        -7.582693517073687E-118
   78.3393750000000         2.728194703996895E-117
   78.5531250000000         8.622548764330610E-117
   78.7668750000000         1.701797499618897E-116
   78.9806250000000         2.713523342565856E-116
   79.1943750000000         3.677762757732412E-116
   79.4081250000000         4.180539473446653E-116
   79.6218750000000         3.584827404263799E-116
   79.8356250000000         1.059056290222797E-116
   80.0493750000000        -4.294018923735168E-116
   80.2631250000000        -1.316254725670206E-115
   80.4768750000000        -2.557180973672701E-115
   80.6906250000000        -4.025461210586858E-115
   80.9043750000000        -5.391731683841586E-115
   81.1181250000000        -6.057706795489075E-115
   81.3318750000000        -5.127943633550969E-115
   81.5456250000000        -1.464634813302556E-115
   81.7593750000000         6.119363397535539E-115
   81.9731250000000         1.847484458050812E-114
   82.1868750000000         3.550474932008022E-114
   82.4006250000000         5.534580360215741E-114
   82.6143750000000         7.345350035020581E-114
   82.8281250000000         8.183237774862815E-114
   83.0418750000000         6.881382503958010E-114
   83.2556250000000         1.993990812609661E-114
   83.4693750000000        -7.939512009402838E-114
   83.6831250000000        -2.389510588957465E-113
   83.8968750000000        -4.560167505668499E-113
   84.1106250000000        -7.055575503039702E-113
   84.3243750000000        -9.296601632342529E-113
   84.5381250000000        -1.029336847416147E-112
   84.7518750000000        -8.635175454786305E-113
   84.9656250000000        -2.616330688591334E-113
   85.1793750000000         9.431287929584899E-113
   85.3931250000000         2.854003658158545E-112
   85.6068750000000         5.422567421353616E-112
   85.8206250000000         8.338900959638012E-112
   86.0343750000000         1.091922193733092E-111
   86.2481250000000         1.202673409489104E-111
   86.4618750000000         1.007928303077534E-111
   86.6756250000000         3.211578032180756E-112
   86.8893750000000        -1.033746386477578E-111
   87.1031250000000        -3.156026597326095E-111
   87.3168750000000        -5.973769866743075E-111
   87.5306250000000        -9.130754156112445E-111
   87.7443750000000        -1.187671553725535E-110
   87.9581250000000        -1.299968057233626E-110
   88.1718750000000        -1.085538019111397E-110
   88.3856250000000        -3.559751909810301E-111
   88.5993750000000         1.059162181360709E-110
   88.8131250000000         3.243798294586709E-110
   89.0268750000000         6.101896822487031E-110
   89.2406250000000         9.250213936715801E-110
   89.4543750000000         1.192120184704852E-109
   89.6681250000000         1.291483934973161E-109
   89.8818750000000         1.065159141096146E-109
   90.0956250000000         3.385329564390427E-110
   90.3093750000000        -1.037233000887421E-109
   90.5231250000000        -3.119419906538322E-109
   90.7368750000000        -5.788230332578059E-109
   90.9506250000000        -8.654078641041794E-109
   91.1643750000000        -1.098171790360068E-108
   91.3781250000000        -1.166739729626027E-108
   91.5918750000000        -9.314702945473768E-109
   91.8056250000000        -2.456478930011261E-109
   92.0193750000000         1.004188856739781E-108
   92.2331250000000         2.839462200211264E-108
   92.4468750000000         5.117605761945885E-108
   92.6606250000000         7.460183485957200E-108
   92.8743750000000         9.203699771722191E-108
   93.0881250000000         9.404584681124513E-108
   93.3018750000000         6.934950770974083E-108
   93.5156250000000         7.027756030688156E-109
   93.7293750000000        -9.985607481150260E-108
   93.9431250000000        -2.493545427673790E-107
   94.1568750000000        -4.251165641950740E-107
   94.3706250000000        -5.915632219948708E-107
   94.5843750000000        -6.917723356920592E-107
   94.7981250000000        -6.506294970174747E-107
   95.0118750000000        -3.859076112894606E-107
   95.2256250000000         1.707431075889509E-107
   95.4393750000000         1.042711309757702E-106
   95.6531250000000         2.170188216041372E-106
   95.8668750000000         3.372095439866458E-106
   96.0806250000000         4.320583736121544E-106
   96.2943750000000         4.545167483753869E-106
   96.5081250000000         3.485965155347441E-106
   96.7218750000000         6.132891056100948E-107
   96.9356250000000        -4.378595416995035E-106
   97.1493750000000        -1.131439016285011E-105
   97.3631250000000        -1.925662643367208E-105
   97.5768750000000        -2.627559705837399E-105
   97.7906250000000        -2.938244747934423E-105
   98.0043750000000        -2.476436284074403E-105
   98.2181250000000        -8.461598094161253E-106
   98.4318750000000         2.241797157779569E-105
   98.6456250000000         6.795784162502394E-105
   98.8593750000000         1.233561804338282E-104
   99.0731250000000         1.769511267109345E-104
   99.2868750000000         2.090685542501580E-104
   99.5006250000000         1.926664727747259E-104
   99.7143750000000         9.687311647099343E-105
   99.9281250000000        -1.056243771749054E-104
   100.141875000000        -4.269295258591037E-104
   100.355625000000        -8.486799045591191E-104
   100.569375000000        -1.305461261934173E-103
   100.783125000000        -1.671228814414876E-103
   100.996875000000        -1.755236311378458E-103
   101.210625000000        -1.315642730894325E-103
   101.424375000000        -9.927627497702109E-105
   101.638125000000         2.086062510477316E-103
   101.851875000000         5.265920916548160E-103
   102.065625000000         9.168998397811016E-103
   102.279375000000         1.309508530462340E-102
   102.493125000000         1.582032646347720E-102
   102.706875000000         1.559520799233957E-102
   102.920625000000         1.030145547477455E-102
   103.134375000000        -2.167527110739120E-103
   103.348125000000        -2.325992212070129E-102
   103.561875000000        -5.285925462164811E-102
   103.775625000000        -8.820682491449108E-102
   103.989375000000        -1.228519395582763E-101
   104.203125000000        -1.459571123508860E-101
   104.416875000000        -1.424049427985433E-101
   104.630625000000        -9.422429137862965E-102
   104.844375000000         1.617693408578364E-102
   105.058125000000         2.006748149311633E-101
   105.271875000000         4.580909276802885E-101
   105.485625000000         7.655904355273385E-101
   105.699375000000         1.070400385324302E-100
   105.913125000000         1.284387222451052E-100
   106.126875000000         1.284902920730903E-100
   106.340625000000         9.257987693387337E-101
   106.554375000000         6.223604640293000E-102
   106.768125000000        -1.408516466752041E-100
   106.981875000000        -3.491065950928800E-100
   107.195625000000        -6.026059525289120E-100
   107.409375000000        -8.626033997317827E-100
   107.623125000000        -1.063131605929579E-099
   107.836875000000        -1.111058372054417E-099
   108.050625000000        -8.934288605042669E-100
   108.264375000000        -2.947480086605177E-100
   108.478125000000         7.741117113920573E-100
   108.691875000000         2.335700177186529E-099
   108.905625000000         4.297954546557290E-099
   109.119375000000         6.405990525694563E-099
   109.333125000000         8.206098270508359E-099
   109.546875000000         9.038715257117893E-099
   109.760625000000         8.079884531154922E-099
   109.974375000000         4.450102584891311E-099
   110.188125000000        -2.596303411761248E-099
   110.401875000000        -1.340063211116763E-098
   110.615625000000        -2.756750207093885E-098
   110.829375000000        -4.361714164390243E-098
   111.043125000000        -5.869979630515579E-098
   111.256875000000        -6.847985272748734E-098
   111.470625000000        -6.731822884560050E-098
   111.684375000000        -4.888304093335731E-098
   111.898125000000        -7.289085411888651E-099
   112.111875000000         6.120409448222433E-098
   112.325625000000         1.560240161104345E-097
   112.539375000000         2.698992716079266E-097
   112.753125000000         3.867038541421227E-097
   112.966875000000         4.801786546477266E-097
   113.180625000000         5.143332256755014E-097
   113.394375000000         4.463842996585307E-097
   113.608125000000         2.329690555915804E-097
   113.821875000000        -1.599855781685284E-097
   114.035625000000        -7.439980256930306E-097
   114.249375000000        -1.492564883215361E-096
   114.463125000000        -2.325851270595557E-096
   114.676875000000        -3.099157046107611E-096
   114.890625000000        -3.599889974663341E-096
   115.104375000000        -3.558413293529510E-096
   115.318125000000        -2.677897313824451E-096
   115.531875000000        -6.867817827221100E-097
   115.745625000000         2.585691972357421E-096
   115.959375000000         7.115349074758003E-096
   116.173125000000         1.258137390616764E-095
   116.386875000000         1.827563838651822E-095
   116.600625000000         2.304916539395634E-095
   116.814375000000         2.532752676570083E-095
   117.028125000000         2.322870722352696E-095
   117.241875000000         1.481228394903884E-095
   117.455625000000        -1.524648966302033E-096
   117.669375000000        -2.651318901127180E-095
   117.883125000000        -5.938281189146280E-095
   118.096875000000        -9.722214979444860E-095
   118.310625000000        -1.344638542489312E-094
   118.524375000000        -1.626705484877133E-094
   118.738125000000        -1.708272446931557E-094
   118.951875000000        -1.463449381307460E-094
   119.165625000000        -7.693544898748579E-095
   119.379375000000         4.658444396329874E-095
   119.593125000000         2.266692186808362E-094
   119.806875000000         4.549429084437449E-094
   120.020625000000         7.082422698963915E-094
   120.234375000000         9.457238152752031E-094
   120.448125000000         1.108210427270616E-093
   120.661875000000         1.121095599741031E-093
   120.875625000000         9.020612013723648E-094
   121.089375000000         3.745038143554595E-094
   121.303125000000        -5.131755223400371E-094
   121.516875000000        -1.763425816544252E-093
   121.730625000000        -3.303113199749665E-093
   121.944375000000        -4.959206300033707E-093
   122.158125000000        -6.442854920475475E-093
   122.371875000000        -7.349656618496968E-093
   122.585625000000        -7.184566174336296E-093
   122.799375000000        -5.419108030497521E-093
   123.013125000000        -1.585701202461296E-093
   123.226875000000         4.591477050105400E-093
   123.440625000000         1.303776224662993E-092
   123.654375000000         2.316059205557678E-092
   123.868125000000         3.370452678400534E-092