  -1.60312500000000         0.000000000000000E+000
  -1.38937500000000        -2.302242221790231E-012
  -1.17562500000000        -1.608184911626548E-011
 -0.961875000000000        -7.687235306391193E-011
 -0.748125000000000        -2.963228961408166E-010
 -0.534375000000000        -9.589744089972305E-010
 -0.320625000000000        -2.652761695874404E-009
 -0.106875000000000        -6.361400506408740E-009
  0.106875000000000        -1.341541337184340E-008
  0.320625000000000        -2.525576381759726E-008
  0.534375000000000        -4.311625340965796E-008
  0.748125000000000        -6.776277778692177E-008
  0.961875000000000        -9.940359640184040E-008
   1.17562500000000        -1.378061854533248E-007
   1.38937500000000        -1.823834808623851E-007
   1.60312500000000        -2.322516298023695E-007
   1.81687500000000        -2.862775733873258E-007
   2.03062500000000        -3.431451302444357E-007
   2.24437500000000        -4.002113149123194E-007
   2.45812500000000        -4.587647536743947E-007
   2.67187500000000        -5.141112112572480E-007
   2.88562500000000        -5.691744974596317E-007
   3.09937500000000        -6.199540431895078E-007
   3.31312500000000        -6.654457578217645E-007
   3.52687500000000        -7.050117529295484E-007
   3.74062500000000        -7.380200213084839E-007
   3.95437500000000        -7.639490574077999E-007
   4.16812500000000        -7.825983046420240E-007
   4.38187500000000        -7.933905415824252E-007
   4.59562500000000        -7.965927265943844E-007
   4.80937500000000        -7.922076022671569E-007
   5.02312500000000        -7.822259528017396E-007
   5.23687500000000        -7.664334523896374E-007
   5.45062500000000        -7.464602921861653E-007
   5.66437500000000        -7.239559449278539E-007
   5.87812500000000        -7.009751681826009E-007
   6.09187500000000        -6.797710310911097E-007
   6.30562500000000        -6.624635474163217E-007
   6.51937500000000        -6.516081232444581E-007
   6.73312500000000        -6.504816404386419E-007
   6.94687500000000        -6.565267769955472E-007
   7.16062500000000        -6.749175123120673E-007
   7.37437500000000        -7.043431298640272E-007
   7.58812500000000        -7.432109210175561E-007
   7.80187500000000        -7.893907025077042E-007
   8.01562500000000        -8.396655514554362E-007
   8.22937500000000        -8.902118745165584E-007
   8.44312500000000        -9.369332774361572E-007
   8.65687500000000        -9.758288774098323E-007
   8.87062500000000        -1.003081324867220E-006
   9.08437500000000        -1.015807673802635E-006
   9.29812500000000        -1.012016925590467E-006
   9.51187500000000        -9.913374585786669E-007
   9.72562500000000        -9.535271864949158E-007
   9.93937500000000        -9.014095368501754E-007
   10.1531250000000        -8.376156516072955E-007
   10.3668750000000        -7.659362788575149E-007
   10.5806250000000        -6.903332226502781E-007
   10.7943750000000        -6.149128015095007E-007
   11.0081250000000        -5.435227063446470E-007
   11.2218750000000        -4.830256320129945E-007
   11.4356250000000        -4.270680700008865E-007
   11.6493750000000        -3.883665614840428E-007
   11.8631250000000        -3.531805922062330E-007
   12.0768750000000        -3.376852938361377E-007
   12.2906250000000        -3.235552412062073E-007
   12.5043750000000        -3.254548689813277E-007
   12.7181250000000        -3.262556541071268E-007
   12.9318750000000        -3.367375815052058E-007
   13.1456250000000        -3.460366609927283E-007
   13.3593750000000        -3.596416831136591E-007
   13.5731250000000        -3.738434332200744E-007
   13.7868750000000        -3.880088787478971E-007
   14.0006250000000        -4.015915457396817E-007
   14.2143750000000        -4.139709033208670E-007
   14.4281250000000        -4.248087867013559E-007
   14.6418750000000        -4.337971780328228E-007
   14.8556250000000        -4.403693887825389E-007
   15.0693750000000        -4.456514393731751E-007
   15.2831250000000        -4.478935851287213E-007
   15.4968750000000        -4.474098389708322E-007
   15.7106250000000        -4.456661113062296E-007
   15.9243750000000        -4.410589658283389E-007
   16.1381250000000        -4.337123603235939E-007
   16.3518750000000        -4.234092327648308E-007
   16.5656250000000        -4.113899212491783E-007
   16.7793750000000        -3.975723948051002E-007
   16.9931250000000        -3.813481377175377E-007
   17.2068750000000        -3.636134175095112E-007
   17.4206250000000        -3.419900532710039E-007
   17.6343750000000        -3.188897462721335E-007
   17.8481250000000        -3.023588389295433E-007
   18.0618750000000        -2.804141322048659E-007
   18.2756250000000        -2.680888672973430E-007
   18.4893750000000        -2.488338544561380E-007
   18.7031250000000        -2.351657770801453E-007
   18.9168750000000        -2.176036561205226E-007
   19.1306250000000        -2.002458731514153E-007
   19.3443750000000        -1.808823466014507E-007
   19.5581250000000        -1.595003308103477E-007
   19.7718750000000        -1.369864373859129E-007
   19.9856250000000        -1.145474076791898E-007
   20.1993750000000        -9.358405888624994E-008
   20.4131250000000        -7.581901052126074E-008
   20.6268750000000        -6.311023252719877E-008
   20.8406250000000        -5.759910251661343E-008
   21.0543750000000        -6.059981120721186E-008
   21.2681250000000        -7.255184569146451E-008
   21.4818750000000        -9.423703820840894E-008
   21.6956250000000        -1.261775217097906E-007
   21.9093750000000        -1.673563085990840E-007
   22.1231250000000        -2.161441953988342E-007
   22.3368750000000        -2.705628874490244E-007
   22.5506250000000        -3.280511143415442E-007
   22.7643750000000        -3.857475650914487E-007
   22.9781250000000        -4.412244433199823E-007
   23.1918750000000        -4.921546017597413E-007
   23.4056250000000        -5.369231919076836E-007
   23.6193750000000        -5.745770294466763E-007
   23.8331250000000        -6.051446718075043E-007
   24.0468750000000        -6.288277536974174E-007
   24.2606250000000        -6.462302466393839E-007
   24.4743750000000        -6.580758016375712E-007
   24.6881250000000        -6.653664809282154E-007
   24.9018750000000        -6.688199976616703E-007
   25.1156250000000        -6.688839127542985E-007
   25.3293750000000        -6.668224550930750E-007
   25.5431250000000        -6.610999723926402E-007
   25.7568750000000        -6.534961774676835E-007
   25.9706250000000        -6.455823333846184E-007
   26.1843750000000        -6.396746098821989E-007
   26.3981250000000        -6.222311677801379E-007
   26.6118750000000        -6.113043846237685E-007
   26.8256250000000        -5.879873577292595E-007
   27.0393750000000        -5.718774557498504E-007
   27.2531250000000        -5.460282634497473E-007
   27.4668750000000        -5.230153470011868E-007
   27.6806250000000        -5.016501037613765E-007
   27.8943750000000        -4.821578319043040E-007
   28.1081250000000        -4.644516624098125E-007
   28.3218750000000        -4.497051962423194E-007
   28.5356250000000        -4.370305121064229E-007
   28.7493750000000        -4.257272119253553E-007
   28.9631250000000        -4.146549833741076E-007
   29.1768750000000        -4.027956095001394E-007
   29.3906250000000        -3.888681755446416E-007
   29.6043750000000        -3.719444372506156E-007
   29.8181250000000        -3.516553076449049E-007
   30.0318750000000        -3.276694913309665E-007
   30.2456250000000        -2.989304054320855E-007
   30.4593750000000        -2.667386437014954E-007
   30.6731250000000        -2.312997008544461E-007
   30.8868750000000        -1.933469371949052E-007
   31.1006250000000        -1.537912813491496E-007
   31.3143750000000        -1.135594299898583E-007
   31.5281250000000        -7.347121702888691E-008
   31.7418750000000        -3.413388161052181E-008
   31.9556250000000         4.064982472208132E-009
   32.1693750000000         4.098082058193191E-008
   32.3831250000000         7.665453616071237E-008
   32.5968750000000         1.111299245683723E-007
   32.8106250000000         1.447120411343439E-007
   33.0243750000000         1.774742293504061E-007
   33.2381250000000         2.091297764712764E-007
   33.4518750000000         2.391755332371702E-007
   33.6656250000000         2.667248333349813E-007
   33.8793750000000         2.905746842294494E-007
   34.0931250000000         3.093841596101322E-007
   34.3068750000000         3.215886384572102E-007
   34.5206250000000         3.252205835676850E-007
   34.7343750000000         3.201452640881368E-007
   34.9481250000000         3.048071804400336E-007
   35.1618750000000         2.789886856199148E-007
   35.3756250000000         2.431466655032265E-007
   35.5893750000000         1.983011115826245E-007
   35.8031250000000         1.462335478139649E-007
   36.0168750000000         8.969579245617639E-008
   36.2306250000000         3.167606032130986E-008
   36.4443750000000        -2.485005001640181E-008
   36.6581250000000        -7.677071027352565E-008
   36.8718750000000        -1.242835673182061E-007
   37.0856250000000        -1.562589224790710E-007
   37.2993750000000        -1.790801084567563E-007
   37.5131250000000        -1.862455175204757E-007
   37.7268750000000        -1.897008581960821E-007
   37.9406250000000        -1.709333034248070E-007
   38.1543750000000        -1.476491618353602E-007
   38.3681250000000        -1.169844991782584E-007
   38.5818750000000        -8.198359429617536E-008
   38.7956250000000        -4.531625137323626E-008
   39.0093750000000        -9.477715161655914E-009
   39.2231250000000         2.357528876418863E-008
   39.4368750000000         5.199240796415988E-008
   39.6506250000000         7.806988669087209E-008
   39.8643750000000         9.261958628143731E-008
   40.0781250000000         9.807655084202653E-008
   40.2918750000000         9.366707364038703E-008
   40.5056250000000         7.901729063734762E-008
   40.7193750000000         5.452720562973806E-008
   40.9331250000000         1.696446088584311E-008
   41.1468750000000        -1.988321876618802E-008
   41.3606250000000        -7.007876037192996E-008
   41.5743750000000        -1.221866661545685E-007
   41.7881250000000        -1.749318927890901E-007
   42.0018750000000        -2.262301171628900E-007
   42.2156250000000        -2.737792233892101E-007
   42.4293750000000        -3.151765099557213E-007
   42.6431250000000        -3.481767538374524E-007
   42.8568750000000        -3.736457567993299E-007
   43.0706250000000        -3.783572945249157E-007
   43.2843750000000        -3.744562505952951E-007
   43.4981250000000        -3.470228672485925E-007
   43.7118750000000        -3.059894386877273E-007
   43.9256250000000        -2.503241142557101E-007
   44.1393750000000        -1.808249131947130E-007
   44.3531250000000        -9.941479612362549E-008
   44.5668750000000        -8.369510008983485E-009
   44.7806250000000         8.960609966603675E-008
   44.9943750000000         1.915781860320415E-007
   45.2081250000000         2.945471279313141E-007
   45.4218750000000         3.955725898972662E-007
   45.6356250000000         4.918821441001983E-007
   45.8493750000000         5.809655054195742E-007
   46.0631250000000         6.606404617995147E-007
   46.2768750000000         7.290711620362637E-007
   46.4906250000000         7.847982940617651E-007
   46.7043750000000         8.268087622142483E-007
   46.9181250000000         8.546372046254233E-007
   47.1318750000000         8.683186310459607E-007
   47.3456250000000         8.668242137964375E-007
   47.5593750000000         8.476803928800939E-007
   47.7731250000000         8.180427053060260E-007
   47.9868750000000         7.744107724900782E-007
   48.2006250000000         7.249474969662961E-007
   48.4143750000000         6.633979123787601E-007
   48.6281250000000         5.994656863301369E-007
   48.8418750000000         5.329669010902543E-007
   49.0556250000000         4.688336853284597E-007
   49.2693750000000         4.057219751610074E-007
   49.4831250000000         3.474220345569014E-007
   49.6968750000000         2.962035806077314E-007
   49.9106250000000         2.538646024171107E-007
   50.1243750000000         2.218150747159882E-007
   50.3381250000000         2.008611406186925E-007
   50.5518750000000         1.918411719252065E-007
   50.7656250000000         2.000763542425128E-007
   50.9793750000000         2.104012355085005E-007
   51.1931250000000         2.379457848276897E-007
   51.4068750000000         2.647393677729624E-007
   51.6206250000000         3.033497246692536E-007
   51.8343750000000         3.388099058536788E-007
   52.0481250000000         3.799240158676197E-007
   52.2618750000000         4.144546961668462E-007
   52.4756250000000         4.484983237163552E-007
   52.6893750000000         4.768109718930229E-007
   52.9031250000000         4.983214695423679E-007
   53.1168750000000         5.145394431102509E-007
   53.3306250000000         5.237202111937589E-007
   53.5443750000000         5.276087526033790E-007
   53.7581250000000         5.271825580477666E-007
   53.9718750000000         5.230728323329244E-007
   54.1856250000000         5.164130679375749E-007
   54.3993750000000         5.084269000883723E-007
   54.6131250000000         5.002435021229058E-007
   54.8268750000000         4.928538233902265E-007
   55.0406250000000         4.870509983287774E-007
   55.2543750000000         4.833106223720659E-007
   55.4681250000000         4.819997581063711E-007
   55.6818750000000         4.833123891216130E-007
   55.8956250000000         4.871624301335842E-007
   56.1093750000000         4.937693483003787E-007
   56.3231250000000         5.035307227159912E-007
   56.5368750000000         5.164102706774865E-007
   56.7506250000000         5.306758544181940E-007
   56.9643750000000         5.501277545962664E-007
   57.1781250000000         5.735602794981335E-007
   57.3918750000000         6.021195633367433E-007
   57.6056250000000         6.358311041472534E-007
   57.8193750000000         6.746405257314166E-007
   58.0331250000000         7.180868826625502E-007
   58.2468750000000         7.655206755362860E-007
   58.4606250000000         8.156537050263722E-007
   58.6743750000000         8.670120329367428E-007
   58.8881250000000         9.140459119059668E-007
   59.1018750000000         9.645230909221603E-007
   59.3156250000000         1.003873051407682E-006
   59.5293750000000         1.043628427680648E-006
   59.7431250000000         1.076989696446492E-006
   59.9568750000000         1.104949067820865E-006
   60.1706250000000         1.127648594327615E-006
   60.3843750000000         1.145116890921683E-006
   60.5981250000000         1.158226734838148E-006
   60.8118750000000         1.167704809964036E-006
   61.0256250000000         1.177551570390655E-006
   61.2393750000000         1.176885246429357E-006
   61.4531250000000         1.182376301924002E-006
   61.6668750000000         1.180015756333040E-006
   61.8806250000000         1.174648938164329E-006
   62.0943750000000         1.165431347751437E-006
   62.3081250000000         1.152222767577089E-006
   62.5218750000000         1.135935517798052E-006
   62.7356250000000         1.115522433462117E-006
   62.9493750000000         1.095096013061322E-006
   63.1631250000000         1.061207975531533E-006
   63.3768750000000         1.028525277537452E-006
   63.5906250000000         9.842749641795692E-007
   63.8043750000000         9.380340354260449E-007
   64.0181250000000         8.940932441328182E-007
   64.2318750000000         8.416085678290991E-007
   64.4456250000000         7.913827865827204E-007
   64.6593750000000         7.450731993599595E-007
   64.8731250000000         7.048465083302800E-007
   65.0868750000000         6.731578430821563E-007
   65.3006250000000         6.526358616546913E-007
   65.5143750000000         6.452001452426565E-007
   65.7281250000000         6.525589482528432E-007
   65.9418750000000         6.758261427677895E-007
   66.1556250000000         7.149523577929869E-007
   66.3693750000000         7.683062611359617E-007
   66.5831250000000         8.341471861758844E-007
   66.7968750000000         9.093395869918450E-007
   67.0106250000000         9.902012366582311E-007
   67.2243750000000         1.072625600918784E-006
   67.4381250000000         1.152483443523576E-006
   67.6518750000000         1.228918799872135E-006
   67.8656250000000         1.289562781560532E-006
   68.0793750000000         1.343030451757092E-006
   68.2931250000000         1.376731225920244E-006
   68.5068750000000         1.398187915672514E-006
   68.7206250000000         1.401497362949454E-006
   68.9343750000000         1.394819920516704E-006
   69.1481250000000         1.378771206684153E-006
   69.3618750000000         1.355838990182693E-006
   69.5756250000000         1.328681169324534E-006
   69.7893750000000         1.299703752345400E-006
   70.0031250000000         1.270979757049369E-006
   70.2168750000000         1.244000768338295E-006
   70.4306250000000         1.219842154374177E-006
   70.6443750000000         1.199840728114640E-006
   70.8581250000000         1.183600487181488E-006
   71.0718750000000         1.171846948994778E-006
   71.2856250000000         1.167673424783239E-006
   71.4993750000000         1.163825686815552E-006
   71.7131250000000         1.179255805006118E-006
   71.9268750000000         1.198415499432186E-006
   72.1406250000000         1.238028554351815E-006
   72.3543750000000         1.285657013510827E-006
   72.5681250000000         1.355532766992809E-006
   72.7818750000000         1.439582584884346E-006
   72.9956250000000         1.534029522414508E-006
   73.2093750000000         1.642339421582380E-006
   73.4231250000000         1.757367016749817E-006
   73.6368750000000         1.873217052387878E-006
   73.8506250000000         1.984115912305769E-006
   74.0643750000000         2.084050154501988E-006
   74.2781250000000         2.167777790521670E-006
   74.4918750000000         2.230679465692127E-006
   74.7056250000000         2.270064640035410E-006
   74.9193750000000         2.286073142523995E-006
   75.1331250000000         2.274818664271623E-006
   75.3468750000000         2.239706104413397E-006
   75.5606250000000         2.191661208937876E-006
   75.7743750000000         2.125608581599322E-006
   75.9881250000000         2.054705336156160E-006
   76.2018750000000         1.980964443954224E-006
   76.4156250000000         1.910240010591084E-006
   76.6293750000000         1.842245534615848E-006
   76.8431250000000         1.780126229349961E-006
   77.0568750000000         1.724519524104381E-006
   77.2706250000000         1.675402263181953E-006
   77.4843750000000         1.632256971283469E-006
   77.6981250000000         1.600318340429952E-006
   77.9118750000000         1.562691992313292E-006
   78.1256250000000         1.537457912802725E-006
   78.3393750000000         1.503695213109557E-006
   78.5531250000000         1.483284551717189E-006
   78.7668750000000         1.455611873248594E-006
   78.9806250000000         1.444637173314175E-006
   79.1943750000000         1.431199838301978E-006
   79.4081250000000         1.431449615418230E-006
   79.6218750000000         1.443063913742524E-006
   79.8356250000000         1.466611825593437E-006
   80.0493750000000         1.501795806450669E-006
   80.2631250000000         1.546673998883105E-006
   80.4768750000000         1.599415074443553E-006
   80.6906250000000         1.656535882336654E-006
   80.9043750000000         1.715216395231818E-006
   81.1181250000000         1.766473150210587E-006
   81.3318750000000         1.821480126917016E-006
   81.5456250000000         1.864314771631989E-006
   81.7593750000000         1.905593252417830E-006
   81.9731250000000         1.936869228241531E-006
   82.1868750000000         1.954765311257149E-006
   82.4006250000000         1.974938376150586E-006
   82.6143750000000         1.983272335300940E-006
   82.8281250000000         1.990636286154594E-006
   83.0418750000000         1.992285153215926E-006
   83.2556250000000         1.993452560529581E-006
   83.4693750000000         1.992246080871796E-006
   83.6831250000000         1.989924886768827E-006
   83.8968750000000         1.988269294291398E-006
   84.1106250000000         1.992402423012763E-006
   84.3243750000000         1.989057262933861E-006
   84.5381250000000         1.995153692925130E-006
   84.7518750000000         1.996127938847524E-006
   84.9656250000000         2.000019677983957E-006
   85.1793750000000         2.006158591230681E-006
   85.3931250000000         2.016436837508429E-006
   85.6068750000000         2.027995484968939E-006
   85.8206250000000         2.053235283465502E-006
   86.0343750000000         2.083172318207942E-006
   86.2481250000000         2.125631733599263E-006
   86.4618750000000         2.179516132040375E-006
   86.6756250000000         2.243684516250197E-006
   86.8893750000000         2.316570120616263E-006
   87.1031250000000         2.389659284468331E-006
   87.3168750000000         2.479088589787688E-006
   87.5306250000000         2.562286581798733E-006
   87.7443750000000         2.657325789114946E-006
   87.9581250000000         2.741800850904473E-006
   88.1718750000000         2.831393612109242E-006
   88.3856250000000         2.912803915917390E-006
   88.5993750000000         2.985450333190128E-006
   88.8131250000000         3.048522486701523E-006
   89.0268750000000         3.101415357618442E-006
   89.2406250000000         3.143178245347158E-006
   89.4543750000000         3.174046237834260E-006
   89.6681250000000         3.193551814748981E-006
   89.8818750000000         3.201631714408026E-006
   90.0956250000000         3.198998100260475E-006
   90.3093750000000         3.185233786955707E-006
   90.5231250000000         3.160457997026537E-006
   90.7368750000000         3.125224640806231E-006
   90.9506250000000         3.079768005390682E-006
   91.1643750000000         3.025208343255095E-006
   91.3781250000000         2.962667624117856E-006
   91.5918750000000         2.893449127986372E-006
   91.8056250000000         2.819459822755749E-006
   92.0193750000000         2.742879701777124E-006
   92.2331250000000         2.666280634291324E-006
   92.4468750000000         2.592402293498078E-006
   92.6606250000000         2.524044431557140E-006
   92.8743750000000         2.463941062336880E-006
   93.0881250000000         2.414602658770101E-006
   93.3018750000000         2.378210687490893E-006
   93.5156250000000         2.356196526802888E-006
   93.7293750000000         2.348720180988213E-006
   93.9431250000000         2.356468442789157E-006
   94.1568750000000         2.376596191550502E-006
   94.3706250000000         2.407130135015533E-006
   94.5843750000000         2.445651737513684E-006
   94.7981250000000         2.489405583837379E-006
   95.0118750000000         2.535057506583711E-006
   95.2256250000000         2.579507405980506E-006
   95.4393750000000         2.620067733509950E-006
   95.6531250000000         2.654824987743128E-006
   95.8668750000000         2.686350500083796E-006
   96.0806250000000         2.703281827244752E-006
   96.2943750000000         2.714811514537275E-006
   96.5081250000000         2.722292838261639E-006
   96.7218750000000         2.727683210398128E-006
   96.9356250000000         2.732758185001982E-006
   97.1493750000000         2.739664205857955E-006
   97.3631250000000         2.750084716900636E-006
   97.5768750000000         2.762800692169809E-006
   97.7906250000000         2.781914506659424E-006
   98.0043750000000         2.806750654695495E-006
   98.2181250000000         2.836970820284722E-006
   98.4318750000000         2.870878959112387E-006
   98.6456250000000         2.907478593228947E-006
   98.8593750000000         2.943890693874821E-006
   99.0731250000000         2.980631323674058E-006
   99.2868750000000         3.017297556641775E-006
   99.5006250000000         3.059104484518342E-006
   99.7143750000000         3.092967475307716E-006
   99.9281250000000         3.134772907961273E-006
   100.141875000000         3.171153109995231E-006
   100.355625000000         3.212429790694488E-006
   100.569375000000         3.255626461375610E-006
   100.783125000000         3.301475454365090E-006
   100.996875000000         3.351462973371701E-006
   101.210625000000         3.404757684751515E-006
   101.424375000000         3.460051618420038E-006
   101.638125000000         3.515526346192648E-006
   101.851875000000         3.569200462667814E-006
   102.065625000000         3.614638095731071E-006
   102.279375000000         3.661376876493218E-006
   102.493125000000         3.695560563598835E-006
   102.706875000000         3.731738007105635E-006
   102.920625000000         3.759255532605415E-006
   103.134375000000         3.780832687073534E-006
   103.348125000000         3.798522640820250E-006
   103.561875000000         3.816728040271928E-006
   103.775625000000         3.831767251698821E-006
   103.989375000000         3.847195036104896E-006
   104.203125000000         3.864356067011033E-006
   104.416875000000         3.883623407451352E-006
   104.630625000000         3.904664644259834E-006
   104.844375000000         3.926700887909029E-006
   105.058125000000         3.948688913875101E-006
   105.271875000000         3.968301040736266E-006
   105.485625000000         3.984891522089232E-006
   105.699375000000         3.996655107919584E-006
   105.913125000000         4.001240358031029E-006
   106.126875000000         3.998364460357609E-006
   106.340625000000         3.988181300450733E-006
   106.554375000000         3.971376633160096E-006
   106.768125000000         3.949268330434514E-006
   106.981875000000         3.924296871147726E-006
   107.195625000000         3.898742946343926E-006
   107.409375000000         3.875059829172650E-006
   107.623125000000         3.855387433801691E-006
   107.836875000000         3.841352977196148E-006
   108.050625000000         3.833961809794341E-006
   108.264375000000         3.833181427000481E-006
   108.478125000000         3.840040846236568E-006
   108.691875000000         3.855506252343618E-006
   108.905625000000         3.869351559756993E-006
   109.119375000000         3.887173787244860E-006
   109.333125000000         3.903843065831013E-006
   109.546875000000         3.917320609569936E-006
   109.760625000000         3.926638401253121E-006
   109.974375000000         3.929033995122366E-006
   110.188125000000         3.924721923435224E-006
   110.401875000000         3.914416693626646E-006
   110.615625000000         3.899546511711027E-006
   110.829375000000         3.881414836499918E-006
   111.043125000000         3.861859503012913E-006
   111.256875000000         3.848385374977813E-006
   111.470625000000         3.826870907428538E-006
   111.684375000000         3.811588047335691E-006
   111.898125000000         3.807340864069940E-006
   112.111875000000         3.798411049591447E-006
   112.325625000000         3.798678013142908E-006
   112.539375000000         3.806111441126456E-006
   112.753125000000         3.819806635501364E-006
   112.966875000000         3.840903205137040E-006
   113.180625000000         3.869328268715305E-006
   113.394375000000         3.905197847910248E-006
   113.608125000000         3.948495592417362E-006
   113.821875000000         3.998705017321417E-006
   114.035625000000         4.056657904670826E-006
   114.249375000000         4.121725345565552E-006
   114.463125000000         4.192785036579788E-006
   114.676875000000         4.268400281347727E-006
   114.890625000000         4.346660877796238E-006
   115.104375000000         4.425336272876670E-006
   115.318125000000         4.502044317652242E-006
   115.531875000000         4.574444381677392E-006
   115.745625000000         4.640507668305833E-006
   115.959375000000         4.698723922104637E-006
   116.173125000000         4.748201947139921E-006
   116.386875000000         4.788870108522526E-006
   116.600625000000         4.821259634067452E-006
   116.814375000000         4.846695620709246E-006
   117.028125000000         4.866893280529951E-006
   117.241875000000         4.884868122107133E-006
   117.455625000000         4.899114190748443E-006
   117.669375000000         4.912507572739217E-006
   117.883125000000         4.925650519823960E-006
   118.096875000000         4.938896157531056E-006
   118.310625000000         4.951459338521075E-006
   118.524375000000         4.962230337498021E-006
   118.738125000000         4.969730607976431E-006
   118.951875000000         4.972664963833490E-006
   119.165625000000         4.970421106733625E-006
   119.379375000000         4.963944282412531E-006
   119.593125000000         4.952781242454550E-006
   119.806875000000         4.938393082353392E-006
   120.020625000000         4.922714227073103E-006
   120.234375000000         4.908032485844482E-006
   120.448125000000         4.896840612978563E-006
   120.661875000000         4.891797909427139E-006
   120.875625000000         4.894859985058838E-006
   121.089375000000         4.909984800405500E-006
   121.303125000000         4.928170925833979E-006
   121.516875000000         4.951333717560968E-006
   121.730625000000         4.977726071043306E-006
   121.944375000000         5.005048645273254E-006
   122.158125000000         5.029825202978380E-006
   122.371875000000         5.049792064800909E-006
   122.585625000000         5.062974017550299E-006
   122.799375000000         5.068870926446540E-006
   123.013125000000         5.068112782274589E-006
   123.226875000000         5.062967617285713E-006
   123.440625000000         5.056254722689990E-006
   123.654375000000         5.050917594978220E-006
   123.868125000000         5.050856085264788E-006