  -1.60312500000000         0.000000000000000E+000
  -1.38937500000000         0.000000000000000E+000
  -1.17562500000000         0.000000000000000E+000
 -0.961875000000000         0.000000000000000E+000
 -0.748125000000000         0.000000000000000E+000
 -0.534375000000000         0.000000000000000E+000
 -0.320625000000000         0.000000000000000E+000
 -0.106875000000000         0.000000000000000E+000
  0.106875000000000         0.000000000000000E+000
  0.320625000000000         0.000000000000000E+000
  0.534375000000000         0.000000000000000E+000
  0.748125000000000         0.000000000000000E+000
  0.961875000000000         0.000000000000000E+000
   1.17562500000000         0.000000000000000E+000
   1.38937500000000         0.000000000000000E+000
   1.60312500000000         0.000000000000000E+000
   1.81687500000000         0.000000000000000E+000
   2.03062500000000         0.000000000000000E+000
   2.24437500000000         0.000000000000000E+000
   2.45812500000000         0.000000000000000E+000
   2.67187500000000         0.000000000000000E+000
   2.88562500000000         0.000000000000000E+000
   3.09937500000000         0.000000000000000E+000
   3.31312500000000         0.000000000000000E+000
   3.52687500000000         0.000000000000000E+000
   3.74062500000000         0.000000000000000E+000
   3.95437500000000         0.000000000000000E+000
   4.16812500000000         0.000000000000000E+000
   4.38187500000000         0.000000000000000E+000
   4.59562500000000         0.000000000000000E+000
   4.80937500000000         0.000000000000000E+000
   5.02312500000000         0.000000000000000E+000
   5.23687500000000         0.000000000000000E+000
   5.45062500000000         0.000000000000000E+000
   5.66437500000000         0.000000000000000E+000
   5.87812500000000         0.000000000000000E+000
   6.09187500000000         0.000000000000000E+000
   6.30562500000000         0.000000000000000E+000
   6.51937500000000         0.000000000000000E+000
   6.73312500000000         0.000000000000000E+000
   6.94687500000000         0.000000000000000E+000
   7.16062500000000         0.000000000000000E+000
   7.37437500000000         0.000000000000000E+000
   7.58812500000000         0.000000000000000E+000
   7.80187500000000         0.000000000000000E+000
   8.01562500000000         0.000000000000000E+000
   8.22937500000000         0.000000000000000E+000
   8.44312500000000         0.000000000000000E+000
   8.65687500000000         0.000000000000000E+000
   8.87062500000000         0.000000000000000E+000
   9.08437500000000         0.000000000000000E+000
   9.29812500000000         0.000000000000000E+000
   9.51187500000000         0.000000000000000E+000
   9.72562500000000         0.000000000000000E+000
   9.93937500000000         0.000000000000000E+000
   10.1531250000000         0.000000000000000E+000
   10.3668750000000         0.000000000000000E+000
   10.5806250000000         0.000000000000000E+000
   10.7943750000000         0.000000000000000E+000
   11.0081250000000         0.000000000000000E+000
   11.2218750000000         0.000000000000000E+000
   11.4356250000000         0.000000000000000E+000
   11.6493750000000         0.000000000000000E+000
   11.8631250000000         0.000000000000000E+000
   12.0768750000000         5.548903672390228E-260
   12.2906250000000         3.088221084377424E-253
   12.5043750000000        -3.845298102424000E-250
   12.7181250000000        -1.240387396545022E-247
   12.9318750000000        -1.150655980644839E-245
   13.1456250000000        -9.336010448968676E-244
   13.3593750000000         8.400442183647018E-232
   13.5731250000000         3.080401554847896E-224
   13.7868750000000        -7.418820775307425E-221
   14.0006250000000         1.650444834419794E-218
   14.2143750000000        -9.351231332153628E-217
   14.4281250000000        -1.654756582377492E-214
   14.6418750000000        -8.607391471595705E-213
   14.8556250000000        -2.647303013265125E-211
   15.0693750000000        -5.649795202348250E-210
   15.2831250000000        -8.877338713635051E-209
   15.4968750000000        -1.030751499333647E-207
   15.7106250000000        -8.104491090121845E-207
   15.9243750000000        -2.137344305652979E-206
   16.1381250000000         5.556124798995828E-205
   16.3518750000000         1.187067410212762E-203
   16.5656250000000         1.445783257436062E-202
   16.7793750000000         1.291324435392710E-201
   16.9931250000000         8.637990656771427E-201
   17.2068750000000         3.747287749306032E-200
   17.4206250000000        -7.898950266609961E-201
   17.6343750000000        -2.153098129153108E-198
   17.8481250000000        -2.668601376685366E-197
   18.0618750000000        -2.246086713572382E-196
   18.2756250000000        -1.502389614862555E-195
   18.4893750000000        -8.296017548205158E-195
   18.7031250000000        -3.767391887347204E-194
   18.9168750000000        -1.351656397740228E-193
   19.1306250000000        -3.494573362164633E-193
   19.3443750000000        -6.714331535317742E-193
   19.5581250000000        -5.088394084656179E-192
   19.7718750000000        -8.299390156760781E-191
   19.9856250000000        -9.424373717029702E-190
   20.1993750000000        -8.144685700643999E-189
   20.4131250000000        -5.851806660794300E-188
   20.6268750000000        -3.664340789019739E-187
   20.8406250000000        -2.052879769478062E-186
   21.0543750000000        -1.044568626285822E-185
   21.2681250000000        -4.867799636123450E-185
   21.4818750000000        -2.084542779412509E-184
   21.6956250000000        -8.191293443275052E-184
   21.9093750000000        -2.930774460042538E-183
   22.1231250000000        -9.365856053152118E-183
   22.3368750000000        -2.549982248582796E-182
   22.5506250000000        -5.086636858878181E-182
   22.7643750000000        -1.292851954984710E-182
   22.9781250000000         5.683589336158109E-181
   23.1918750000000         3.983191156441157E-180
   23.4056250000000         1.950283283529491E-179
   23.6193750000000         8.060342341022897E-179
   23.8331250000000         2.972305007698223E-178
   24.0468750000000         9.999447569161716E-178
   24.2606250000000         3.096089713483670E-177
   24.4743750000000         8.828680858767008E-177
   24.6881250000000         2.302077966350877E-176
   24.9018750000000         5.384111936497478E-176
   25.1156250000000         1.077156542044320E-175
   25.3293750000000         1.586873637273086E-175
   25.5431250000000         3.310547317147744E-176
   25.7568750000000        -9.434150600858982E-175
   25.9706250000000        -4.880370503146769E-174
   26.1843750000000        -1.748524445151323E-173
   26.3981250000000        -5.235440430622830E-173
   26.6118750000000        -1.377036923304907E-172
   26.8256250000000        -3.219859470204992E-172
   27.0393750000000        -6.617377162221447E-172
   27.2531250000000        -1.140776056258156E-171
   27.4668750000000        -1.396666270883160E-171
   27.6806250000000        -5.945801016182828E-174
   27.8943750000000         7.056636723379125E-171
   28.1081250000000         2.910247699640464E-170
   28.3218750000000         8.395347076179207E-170
   28.5356250000000         1.978293806367787E-169
   28.7493750000000         3.896983647181064E-169
   28.9631250000000         6.112145454784464E-169
   29.1768750000000         5.883411140908601E-169
   29.3906250000000        -5.071062608989816E-169
   29.6043750000000        -4.578967896503348E-168
   29.8181250000000        -1.507246780992864E-167
   30.0318750000000        -3.631395524762836E-167
   30.2456250000000        -6.873984231946004E-167
   30.4593750000000        -9.338962822674160E-167
   30.6731250000000        -3.358695276798912E-167
   30.8868750000000         3.233544576041674E-166
   31.1006250000000         1.458397871587533E-165
   31.3143750000000         4.290686072605037E-165
   31.5281250000000         1.027616072976763E-164
   31.7418750000000         2.112210747115893E-164
   31.9556250000000         3.745182100158338E-164
   32.1693750000000         5.529753131272614E-164
   32.3831250000000         5.901277638243922E-164
   32.5968750000000         9.765339460157241E-165
   32.8106250000000        -1.686154153575531E-163
   33.0243750000000        -5.987771330965260E-163
   33.2381250000000        -1.437695330857628E-162
   33.4518750000000        -2.822236703792056E-162
   33.6656250000000        -4.770541491490425E-162
   33.8793750000000        -7.121037023142333E-162
   34.0931250000000        -9.797245507932360E-162
   34.3068750000000        -1.404826665905288E-161
   34.5206250000000        -2.570504281432111E-161
   34.7343750000000        -6.132599289680692E-161
   34.9481250000000        -1.558248234146464E-160
   35.1618750000000        -3.626199380762583E-160
   35.3756250000000        -7.195426463035138E-160
   35.5893750000000        -1.120505131200070E-159
   35.8031250000000        -9.851699442899392E-160
   36.0168750000000         1.420811361456410E-159
   36.2306250000000         1.011954209861860E-158
   36.4443750000000         3.281515779734907E-158
   36.6581250000000         8.148238857269088E-158
   36.8718750000000         1.691663573762780E-157
   37.0856250000000         2.965939167550813E-157
   37.2993750000000         4.173918732125116E-157
   37.5131250000000         3.664857012607109E-157
   37.7268750000000        -2.611330713518955E-157
   37.9406250000000        -2.270418546328633E-156
   38.1543750000000        -6.983272397825666E-156
   38.3681250000000        -1.607325502246044E-155
   38.5818750000000        -3.059253637045814E-155
   38.7956250000000        -4.824342925766063E-155
   39.0093750000000        -5.750798297434375E-155
   39.2231250000000        -2.721999366265820E-155
   39.4368750000000         1.084262056542315E-154
   39.6506250000000         4.645697619724063E-154
   39.8643750000000         1.203599967712964E-153
   40.0781250000000         2.477179619235204E-153
   40.2918750000000         4.236446770849191E-153
   40.5056250000000         5.787342958933741E-153
   40.7193750000000         4.934512521115704E-153
   40.9331250000000        -3.394634111408304E-153
   41.1468750000000        -2.887511060652408E-152
   41.3606250000000        -8.690432380731387E-152
   41.5743750000000        -1.964528730704134E-151
   41.7881250000000        -3.688555827093424E-151
   42.0018750000000        -5.769774845258733E-151
   42.2156250000000        -6.886639847445688E-151
   42.4293750000000        -3.459440774654343E-151
   42.6431250000000         1.217945297590272E-150
   42.8568750000000         5.387328404745305E-150
   43.0706250000000         1.424805304275399E-149
   43.2843750000000         3.015970600534259E-149
   43.4981250000000         5.401665002961075E-149
   43.7118750000000         8.080362983349264E-149
   43.9256250000000         9.043486877753988E-149
   44.1393750000000         3.178470443729932E-149
   44.3531250000000        -2.003944983833558E-148
   44.5668750000000        -7.897173145259918E-148
   44.7806250000000        -2.002651458133088E-147
   44.9943750000000        -4.123049366367895E-147
   45.2081250000000        -7.218352382022611E-147
   45.4218750000000        -1.057498386592633E-146
   45.6356250000000        -1.158506582671931E-146
   45.8493750000000        -3.891381226866644E-147
   46.0631250000000         2.514257661487143E-146
   46.2768750000000         9.679718852381902E-146
   46.4906250000000         2.406534837948295E-145
   46.7043750000000         4.858987203216498E-145
   46.9181250000000         8.339190080409526E-145
   47.1318750000000         1.196243965726317E-144
   47.3456250000000         1.278617523879603E-144
   47.5593750000000         3.986829139487647E-145
   47.7731250000000        -2.743419539743976E-144
   47.9868750000000        -1.024075229815222E-143
   48.2006250000000        -2.483724789744492E-143
   48.4143750000000        -4.892906754020915E-143
   48.6281250000000        -8.179480255898215E-143
   48.8418750000000        -1.137702477762781E-142
   49.0556250000000        -1.160443049914503E-142
   49.2693750000000        -2.573392097726988E-143
   49.4831250000000         2.708918940873082E-142
   49.6968750000000         9.469701119139725E-142
   49.9106250000000         2.212194216745002E-141
   50.1243750000000         4.215420331696454E-141
   50.3381250000000         6.805629021443957E-141
   50.5518750000000         9.067497212783658E-141
   50.7656250000000         8.565474408516717E-141
   50.9793750000000         3.329341969379326E-142
   51.1931250000000        -2.408998649579554E-140
   51.4068750000000        -7.673530636105760E-140
   51.6206250000000        -1.706927459074672E-139
   51.8343750000000        -3.121049351038377E-139
   52.0481250000000        -4.826054391524720E-139
   52.2618750000000        -6.078859764093324E-139
   52.4756250000000        -5.105959770565976E-139
   52.6893750000000         1.458711819630011E-139
   52.9031250000000         1.897749808939669E-138
   53.1168750000000         5.447730833222830E-138
   53.3306250000000         1.145204983179338E-137
   53.5443750000000         1.996484502674001E-137
   53.7581250000000         2.933790891545491E-137
   53.9718750000000         3.441124924351277E-137
   54.1856250000000         2.404696528871091E-137
   54.3993750000000        -2.139139666915374E-137
   54.6131250000000        -1.309516521465378E-136
   54.8268750000000        -3.390426103884121E-136
   55.0406250000000        -6.708485291895612E-136
   55.2543750000000        -1.109541580824242E-135
   55.4681250000000        -1.537271805291569E-135
   55.6818750000000        -1.646382819339586E-135
   55.8956250000000        -8.314314869749041E-136
   56.1093750000000         1.897424260987740E-135
   56.3231250000000         7.887643275454876E-135
   56.5368750000000         1.853871206402820E-134
   56.7506250000000         3.447017331078175E-134
   56.9643750000000         5.386423759089300E-134
   57.1781250000000         6.974449297613851E-134
   57.3918750000000         6.626047763848660E-134
   57.6056250000000         1.479109131601436E-134
   57.8193750000000        -1.279429274599498E-133
   58.0331250000000        -4.154523650158465E-133
   58.2468750000000        -8.937821871724038E-133
   58.4606250000000        -1.561237089569997E-132
   58.6743750000000        -2.296084223139658E-132
   58.8881250000000        -2.748255082275129E-132
   59.1018750000000        -2.207148572035396E-132
   59.3156250000000         5.097355476615311E-133
   59.5293750000000         7.048794548935075E-132
   59.7431250000000         1.922076390980731E-131
   59.9568750000000         3.815907749662364E-131
   60.1706250000000         6.264241737163374E-131
   60.3843750000000         8.635585974548086E-131
   60.5981250000000         9.416405813121740E-131
   60.8118750000000         5.815416252288254E-131
   61.0256250000000        -6.457607188924347E-131
   61.2393750000000        -3.286102842480377E-130
   61.4531250000000        -7.854496862812386E-130
   61.6668750000000        -1.449566254453570E-129
   61.8806250000000        -2.237658518480565E-129
   62.0943750000000        -2.878079344956752E-129
   62.3081250000000        -2.800023671722111E-129
   62.5218750000000        -1.036634032459511E-129
   62.7356250000000         3.784732749984416E-129
   62.9493750000000         1.324025698792314E-128
   63.1631250000000         2.851815999197740E-128
   63.3768750000000         4.923498956736699E-128
   63.5906250000000         7.150741424795002E-128
   63.8043750000000         8.532813790811903E-128
   64.0181250000000         7.173526434493116E-128
   64.2318750000000         1.023028439772226E-129
   64.4456250000000        -1.656720190704175E-127
   64.6593750000000        -4.678133329696553E-127
   64.8731250000000        -9.253415724183513E-127
   65.0868750000000        -1.502524684279705E-126
   65.3006250000000        -2.053955901728361E-126
   65.5143750000000        -2.257834014792598E-126
   65.7281250000000        -1.554812568370006E-126
   65.9418750000000         8.689221080203809E-127
   66.1556250000000         5.989479703387721E-126
   66.3693750000000         1.465319274950182E-125
   66.5831250000000         2.698163989834334E-125
   66.7968750000000         4.139547314461701E-125
   67.0106250000000         5.327332429513446E-125
   67.2243750000000         5.346468380078129E-125
   67.4381250000000         2.721706642910134E-125
   67.6518750000000        -4.544283184780757E-125
   67.8656250000000        -1.862866935777585E-124
   68.0793750000000        -4.104042978651122E-124
   68.2931250000000        -7.106884190894647E-124
   68.5068750000000        -1.034354013487786E-123
   68.7206250000000        -1.253297969333410E-123
   68.9343750000000        -1.135207972888131E-123
   69.1481250000000        -3.301254790498071E-124
   69.3618750000000         1.602912433168443E-123
   69.5756250000000         5.094718950324305E-123
   69.7893750000000         1.035090869590055E-122
   70.0031250000000         1.699137883435906E-122
   70.2168750000000         2.354423460375104E-122
   70.4306250000000         2.686154408911418E-122
   70.6443750000000         2.163728234483967E-122
   70.8581250000000         3.655819217436782E-124
   71.0718750000000        -4.574207534106350E-122
   71.2856250000000        -1.242156369168514E-121
   71.4993750000000        -2.364878980098057E-121
   71.7131250000000        -3.703714692174176E-121
   71.9268750000000        -4.902399160571394E-121
   72.1406250000000        -5.267554054535925E-121
   72.3543750000000        -3.702081231908522E-121
   72.5681250000000         1.256260694247181E-121
   72.7818750000000         1.119329059934571E-120
   72.9956250000000         2.725921676863313E-120
   73.2093750000000         4.919233839258328E-120
   73.4231250000000         7.390063567012057E-120
   73.6368750000000         9.374058512220350E-120
   73.8506250000000         9.491050235507714E-120
   74.0643750000000         5.676717516253510E-120
   74.2781250000000        -4.666917769431211E-120
   74.4918750000000        -2.413619562260432E-119
   74.7056250000000        -5.422948795946259E-119
   74.9193750000000        -9.356681143513063E-119
   75.1331250000000        -1.354616396599679E-118
   75.3468750000000        -1.651879846637526E-118
   75.5606250000000        -1.577621736115058E-118
   75.7743750000000        -7.767865398338495E-119
   75.9881250000000         1.173083820951652E-118
   76.2018750000000         4.658153504345942E-118
   76.4156250000000         9.834651374374557E-118
   76.6293750000000         1.633367893900638E-117
   76.8431250000000         2.288230483844991E-117
   77.0568750000000         2.690998893193756E-117
   77.2706250000000         2.428303856494424E-117
   77.4843750000000         9.398310278829672E-118
   77.6981250000000        -2.405007510125461E-117
   77.9118750000000        -8.127898151642653E-117
   78.1256250000000        -1.633108713056102E-116
   78.3393750000000        -2.625031111318159E-116
   78.5531250000000        -3.571424760314187E-116
   78.7668750000000        -4.063064299006723E-116
   78.9806250000000        -3.472252026567024E-116
   79.1943750000000        -9.851856300566257E-117
   79.4081250000000         4.264090640512185E-116
   79.6218750000000         1.291412082557850E-115
   79.8356250000000         2.492125963724466E-115
   80.0493750000000         3.893897547192745E-115
   80.2631250000000         5.161148284073634E-115
   80.4768750000000         5.696737480690194E-115
   80.6906250000000         4.623045213228730E-115
   80.9043750000000         8.496984269411978E-116
   81.1181250000000        -6.718738352225199E-115
   81.3318750000000        -1.878557553519021E-114
   81.5456250000000        -3.505115276631625E-114
   81.7593750000000        -5.342083318027031E-114
   81.9731250000000        -6.915901504345921E-114
   82.1868750000000        -7.424774972743722E-114
   82.4006250000000        -5.736094470674119E-114
   82.6143750000000        -5.001571522419850E-115
   82.8281250000000         9.559305350881778E-114
   83.0418750000000         2.512821667095302E-113
   83.2556250000000         4.554724666991703E-113
   83.4693750000000         6.788169390881885E-113
   83.6831250000000         8.599419897125498E-113
   83.8968750000000         8.994802269938909E-113
   84.1106250000000         6.622886784978279E-113
   84.3243750000000        -6.034346419687917E-115
   84.5381250000000        -1.242093470643188E-112
   84.7518750000000        -3.102797942479989E-112
   84.9656250000000        -5.479340329375272E-112
   85.1793750000000        -7.996666280317007E-112
   85.3931250000000        -9.920897760196387E-112
   85.6068750000000        -1.011275919393955E-111
   85.8206250000000        -7.080247153563331E-112
   86.0343750000000         8.069299581023993E-113
   86.2481250000000         1.488311996580281E-111
   86.4618750000000         3.550241991088403E-111
   86.6756250000000         6.113400240292391E-111
   86.8893750000000         8.736421244110271E-111
   87.1031250000000         1.060640381969485E-110
   87.3168750000000         1.051285408491381E-110
   87.5306250000000         6.932263489745933E-111
   87.7443750000000        -1.718308229588266E-111
   87.9581250000000        -1.661089757655911E-110
   88.1718750000000        -3.780640589410928E-110
   88.3856250000000        -6.337680851314061E-110
   88.5993750000000        -8.850039067425069E-110
   88.8131250000000        -1.048040932762190E-109
   89.0268750000000        -1.003542438748477E-109
   89.2406250000000        -6.078884157858212E-110
   89.4543750000000         2.791546495232548E-110
   89.6681250000000         1.747092610871119E-109
   89.8818750000000         3.768252737575735E-109
   90.0956250000000         6.119375395346955E-109
   90.3093750000000         8.307552531039091E-109
   90.5231250000000         9.527445101094823E-109
   90.7368750000000         8.686452517374594E-109
   90.9506250000000         4.539555391129448E-109
   91.1643750000000        -4.029152602914326E-109
   91.3781250000000        -1.756126942794156E-108
   91.5918750000000        -3.543829651973031E-108
   91.8056250000000        -5.523995037448655E-108
   92.0193750000000        -7.221020058238129E-108
   92.2331250000000        -7.907797666204230E-108
   92.4468750000000        -6.654354150720932E-108
   92.6606250000000        -2.475192933971407E-108
   92.8743750000000         5.401014884451534E-108
   93.0881250000000         1.713787850594188E-107
   93.3018750000000         3.181073065266418E-107
   93.5156250000000         4.692980541955603E-107
   93.7293750000000         5.812104749353032E-107
   93.9431250000000         5.917724366064371E-107
   94.1568750000000         4.272469458764613E-107
   94.3706250000000         1.727912123945252E-108
   94.5843750000000        -6.805496614637324E-107
   94.7981250000000        -1.647766225080075E-106
   95.0118750000000        -2.768209802189630E-106
   95.2256250000000        -3.796394911671759E-106
   95.4393750000000        -4.344729388385370E-106
   95.6531250000000        -3.906928272350378E-106
   95.8668750000000        -1.935654817153470E-106
   96.0806250000000         2.012138540424219E-106
   96.2943750000000         8.060742990406911E-106
   96.5081250000000         1.575164410866940E-105
   96.7218750000000         2.377894763569956E-105
   96.9356250000000         2.980804906632998E-105
   97.1493750000000         3.049391163588943E-105
   97.3631250000000         2.183404833562476E-105
   97.5768750000000        -1.941047877532399E-108
   97.7906250000000        -3.742154168501414E-105
   98.0043750000000        -8.942191182208221E-105
   98.2181250000000        -1.497143302503104E-104
   98.4318750000000        -2.048271610860360E-104
   98.6456250000000        -2.332927657045560E-104
   98.8593750000000        -2.067473380138177E-104
   99.0731250000000        -9.397851580107704E-105
   99.2868750000000         1.312640049170452E-104
   99.5006250000000         4.784732281491179E-104
   99.7143750000000         9.254566154395117E-104
   99.9281250000000         1.402682180882238E-103
   100.141875000000         1.781203224310095E-103
   100.355625000000         1.870364218087281E-103
   100.569375000000         1.432819027007444E-103
   100.783125000000         2.243654467799579E-104
   100.996875000000        -1.936195503793929E-103
   101.210625000000        -5.067383996214252E-103
   101.424375000000        -8.904798884417943E-103
   101.638125000000        -1.278199533507628E-102
   101.851875000000        -1.554863113795665E-102
   102.065625000000        -1.557564177193975E-102
   102.279375000000        -1.090543875686145E-102
   102.493125000000         3.979733841737069E-104
   102.706875000000         1.966510719531657E-102
   102.920625000000         4.681425300997002E-102
   103.134375000000         7.940413865829640E-102
   103.348125000000         1.117232152050989E-101
   103.561875000000         1.341999912030693E-101
   103.775625000000         1.335160166481711E-101
   103.989375000000         9.385658422376899E-102
   104.203125000000        -2.990962754431455E-104
   104.416875000000        -1.596130366392328E-101
   104.630625000000        -3.836526819521179E-101
   104.844375000000        -6.536160575662528E-101
   105.058125000000        -9.253425880354103E-101
   105.271875000000        -1.124707710499326E-100
   105.485625000000        -1.148194867233507E-100
   105.699375000000        -8.718202743990366E-101
   105.913125000000        -1.713565636793021E-101
   106.126875000000         1.044356954001669E-100
   106.340625000000         2.787584051487072E-100
   106.554375000000         4.937573850600049E-100
   106.768125000000         7.187208029310050E-100
   106.981875000000         9.004887525527710E-100
   107.195625000000         9.631118634148169E-100
   107.409375000000         8.132259437669572E-100
   107.623125000000         3.532943172464047E-100
   107.836875000000        -4.958314610095091E-100
   108.050625000000        -1.763073105251090E-099
   108.264375000000        -3.388424654155235E-099
   108.478125000000        -5.182989656298984E-099
   108.691875000000        -6.797036330059124E-099
   108.905625000000        -7.708902374566918E-099
   109.119375000000        -7.250057204715822E-099
   109.333125000000        -4.681799515859989E-099
   109.546875000000         6.644423436790421E-100
   109.760625000000         9.179701519825398E-099
   109.974375000000         2.071366947764293E-098
   110.188125000000         3.428508385838609E-098
   110.401875000000         4.782091377304598E-098
   110.615625000000         5.800380281960140E-098
   110.829375000000         6.032755287357193E-098
   111.043125000000         4.946892301430039E-098
   111.256875000000         2.007204971568195E-098
   111.470625000000        -3.199935533547795E-098
   111.684375000000        -1.079641048161647E-097
   111.898125000000        -2.041178625362088E-097
   112.111875000000        -3.098073569124023E-097
   112.325625000000        -4.058408033803824E-097
   112.539375000000        -4.639510788990241E-097
   112.753125000000        -4.480394106796704E-097
   112.966875000000        -3.179374867049095E-097
   113.180625000000        -3.627641213578075E-098
   113.394375000000         4.213141082831749E-097
   113.608125000000         1.053073428286897E-096
   113.821875000000         1.816323757644220E-096
   114.035625000000         2.613406553951681E-096
   114.249375000000         3.281910499752800E-096
   114.463125000000         3.593840883779953E-096
   114.676875000000         3.269050000624360E-096
   114.890625000000         2.008127557671088E-096
   115.104375000000        -4.513843957841692E-097
   115.318125000000        -4.254537331100435E-096
   115.531875000000        -9.328213747424057E-096
   115.745625000000        -1.527075688903954E-095
   115.959375000000        -2.125101103823269E-095
   116.173125000000        -2.594472160102142E-095
   116.386875000000        -2.754417089305533E-095
   116.600625000000        -2.388150283376498E-095
   116.814375000000        -1.270443345527253E-095
   117.028125000000         7.868382552080828E-096
   117.241875000000         3.870930544420895E-095
   117.455625000000         7.889716231998840E-095
   117.669375000000         1.248765573502790E-094
   117.883125000000         1.697171929662020E-094
   118.096875000000         2.026987150643232E-094
   118.310625000000         2.095058329895188E-094
   118.524375000000         1.733479941473369E-094
   118.738125000000         7.729322035557763E-095
   118.951875000000        -9.199981084549206E-095
   119.165625000000        -3.391775948246059E-094
   119.379375000000        -6.540704296260184E-094
   119.593125000000        -1.005350349532295E-093
   119.806875000000        -1.335283966454301E-093
   120.020625000000        -1.557417760223447E-093
   120.234375000000        -1.559438363506848E-093
   120.448125000000        -1.213575019355416E-093
   120.661875000000        -3.965612987497444E-094
   120.875625000000         9.798491399964430E-094
   121.089375000000         2.928668116514793E-093
   121.303125000000         5.341345352577880E-093
   121.516875000000         7.942399113975113E-093
   121.730625000000         1.025594329826730E-092
   121.944375000000         1.159861531488982E-092
   122.158125000000         1.111566880054437E-092
   122.371875000000         7.876669821174015E-093
   122.585625000000         1.042918265187354E-093
   122.799375000000        -9.890867793012442E-093
   123.013125000000        -2.479368677928246E-092
   123.226875000000        -4.256873862726349E-092
   123.440625000000        -6.085738517972322E-092
   123.654375000000        -7.586284877561691E-092
   123.868125000000        -8.240084646876829E-092