  -1.60312500000000         0.000000000000000E+000
  -1.38937500000000         0.000000000000000E+000
  -1.17562500000000         0.000000000000000E+000
 -0.961875000000000         0.000000000000000E+000
 -0.748125000000000         0.000000000000000E+000
 -0.534375000000000         0.000000000000000E+000
 -0.320625000000000         0.000000000000000E+000
 -0.106875000000000         0.000000000000000E+000
  0.106875000000000         0.000000000000000E+000
  0.320625000000000         0.000000000000000E+000
  0.534375000000000         0.000000000000000E+000
  0.748125000000000         0.000000000000000E+000
  0.961875000000000         0.000000000000000E+000
   1.17562500000000         0.000000000000000E+000
   1.38937500000000         0.000000000000000E+000
   1.60312500000000         0.000000000000000E+000
   1.81687500000000         0.000000000000000E+000
   2.03062500000000         0.000000000000000E+000
   2.24437500000000         0.000000000000000E+000
   2.45812500000000         0.000000000000000E+000
   2.67187500000000         0.000000000000000E+000
   2.88562500000000         0.000000000000000E+000
   3.09937500000000         0.000000000000000E+000
   3.31312500000000         0.000000000000000E+000
   3.52687500000000         0.000000000000000E+000
   3.74062500000000         0.000000000000000E+000
   3.95437500000000         0.000000000000000E+000
   4.16812500000000         0.000000000000000E+000
   4.38187500000000         0.000000000000000E+000
   4.59562500000000         0.000000000000000E+000
   4.80937500000000         0.000000000000000E+000
   5.02312500000000         0.000000000000000E+000
   5.23687500000000         0.000000000000000E+000
   5.45062500000000         0.000000000000000E+000
   5.66437500000000         0.000000000000000E+000
   5.87812500000000         0.000000000000000E+000
   6.09187500000000         0.000000000000000E+000
   6.30562500000000         0.000000000000000E+000
   6.51937500000000         0.000000000000000E+000
   6.73312500000000         0.000000000000000E+000
   6.94687500000000         0.000000000000000E+000
   7.16062500000000         0.000000000000000E+000
   7.37437500000000         0.000000000000000E+000
   7.58812500000000         0.000000000000000E+000
   7.80187500000000         0.000000000000000E+000
   8.01562500000000         0.000000000000000E+000
   8.22937500000000         0.000000000000000E+000
   8.44312500000000         0.000000000000000E+000
   8.65687500000000         0.000000000000000E+000
   8.87062500000000         0.000000000000000E+000
   9.08437500000000         0.000000000000000E+000
   9.29812500000000         0.000000000000000E+000
   9.51187500000000         0.000000000000000E+000
   9.72562500000000         0.000000000000000E+000
   9.93937500000000         0.000000000000000E+000
   10.1531250000000         0.000000000000000E+000
   10.3668750000000         0.000000000000000E+000
   10.5806250000000         0.000000000000000E+000
   10.7943750000000         0.000000000000000E+000
   11.0081250000000         0.000000000000000E+000
   11.2218750000000         0.000000000000000E+000
   11.4356250000000         0.000000000000000E+000
   11.6493750000000         0.000000000000000E+000
   11.8631250000000         0.000000000000000E+000
   12.0768750000000         0.000000000000000E+000
   12.2906250000000         0.000000000000000E+000
   12.5043750000000         1.447200480931202E-274
   12.7181250000000         5.691365366417805E-268
   12.9318750000000        -8.394711074587712E-265
   13.1456250000000        -9.920524847101775E-262
   13.3593750000000        -2.472283507761852E-243
   13.5731250000000         1.857512462015659E-237
   13.7868750000000         6.116884676554030E-233
   14.0006250000000        -2.176900911174730E-230
   14.2143750000000        -6.929472199086448E-228
   14.4281250000000         8.166399033005401E-226
   14.6418750000000         1.228512216929410E-223
   14.8556250000000         9.737800392206857E-222
   15.0693750000000         5.492220707885864E-220
   15.2831250000000         2.297921868571811E-218
   15.4968750000000         7.414426808933906E-217
   15.7106250000000         1.918654767635956E-215
   15.9243750000000         4.115908371507930E-214
   16.1381250000000         7.513433182480220E-213
   16.3518750000000         1.191045206730567E-211
   16.5656250000000         1.665597359230961E-210
   16.7793750000000         2.080072818093310E-209
   16.9931250000000         2.341990549108378E-208
   17.2068750000000         2.394817614571625E-207
   17.4206250000000         2.236281552723457E-206
   17.6343750000000         1.914327888564146E-205
   17.8481250000000         1.505560503003991E-204
   18.0618750000000         1.088229353494522E-203
   18.2756250000000         7.213800856190040E-203
   18.4893750000000         4.359673770033286E-202
   18.7031250000000         2.371240621235954E-201
   18.9168750000000         1.128130275621752E-200
   19.1306250000000         4.360087184329110E-200
   19.3443750000000         1.009184442392496E-199
   19.5581250000000        -3.105457606635999E-199
   19.7718750000000        -6.339980509324390E-198
   19.9856250000000        -5.610526821123815E-197
   20.1993750000000        -3.882571334608476E-196
   20.4131250000000        -2.337727130736657E-195
   20.6268750000000        -1.274242832145544E-194
   20.8406250000000        -6.410962405199586E-194
   21.0543750000000        -3.010692055476368E-193
   21.2681250000000        -1.329432661260713E-192
   21.4818750000000        -5.550144145169704E-192
   21.6956250000000        -2.201210734179665E-191
   21.9093750000000        -8.334770442583566E-191
   22.1231250000000        -3.030811675860106E-190
   22.3368750000000        -1.066358440123621E-189
   22.5506250000000        -3.664290982690548E-189
   22.7643750000000        -1.242952779315386E-188
   22.9781250000000        -4.203805192279799E-188
   23.1918750000000        -1.426219395188356E-187
   23.4056250000000        -4.848924817511794E-187
   23.6193750000000        -1.636943162674986E-186
   23.8331250000000        -5.399202683356390E-186
   24.0468750000000        -1.702174295288668E-185
   24.2606250000000        -4.976954211304243E-185
   24.4743750000000        -1.281602323081467E-184
   24.6881250000000        -2.542024545456640E-184
   24.9018750000000        -1.482223031173280E-184
   25.1156250000000         2.037704729836959E-183
   25.3293750000000         1.503075363049353E-182
   25.5431250000000         7.392553799414850E-182
   25.7568750000000         3.054635463492000E-181
   25.9706250000000         1.130058624412046E-180
   26.1843750000000         3.842143839690740E-180
   26.3981250000000         1.215700703183112E-179
   26.6118750000000         3.601541033928980E-179
   26.8256250000000         1.001114865546135E-178
   27.0393750000000         2.608658606072976E-178
   27.2531250000000         6.346785141459701E-178
   27.4668750000000         1.430314468683435E-177
   27.6806250000000         2.943607974471974E-177
   27.8943750000000         5.391476466563669E-177
   28.1081250000000         8.346804266656169E-177
   28.3218750000000         9.612356298781665E-177
   28.5356250000000         4.671721166250871E-177
   28.7493750000000        -6.158414272673091E-177
   28.9631250000000         2.470136181155690E-176
   29.1768750000000         3.564083257400967E-175
   29.3906250000000         1.982322787894534E-174
   29.6043750000000         8.084985371005601E-174
   29.8181250000000         2.766581080019735E-173
   30.0318750000000         8.370508675970142E-173
   30.2456250000000         2.295551927124870E-172
   30.4593750000000         5.775132863065112E-172
   30.6731250000000         1.338469701336940E-171
   30.8868750000000         2.851217072156604E-171
   31.1006250000000         5.525370859395463E-171
   31.3143750000000         9.505335249799558E-171
   31.5281250000000         1.366509018251340E-170
   31.7418750000000         1.331290379573804E-170
   31.9556250000000        -4.021036638216676E-171
   32.1693750000000        -6.439991265429057E-170
   32.3831250000000        -2.112162274870470E-169
   32.5968750000000        -4.952544196292786E-169
   32.8106250000000        -9.261739134608092E-169
   33.0243750000000        -1.349049144816882E-168
   33.2381250000000        -1.233102238704405E-168
   33.4518750000000         4.859557178854206E-169
   33.6656250000000         4.863882789503403E-168
   33.8793750000000         9.793242472793183E-168
   34.0931250000000        -3.010752378626589E-169
   34.3068750000000        -8.088875120455676E-167
   34.5206250000000        -3.842447968321877E-166
   34.7343750000000        -1.262421980137785E-165
   34.9481250000000        -3.413492961092895E-165
   35.1618750000000        -7.994701079044104E-165
   35.3756250000000        -1.642982978707688E-164
   35.5893750000000        -2.921644177677836E-164
   35.8031250000000        -4.228890390646811E-164
   36.0168750000000        -3.844757523505633E-164
   36.2306250000000         2.946596648015528E-164
   36.4443750000000         2.658999400555520E-163
   36.6581250000000         8.657243820560238E-163
   36.8718750000000         2.127942427166373E-162
   37.0856250000000         4.378776578444791E-162
   37.2993750000000         7.648408182386010E-162
   37.5131250000000         1.082095667430255E-161
   37.7268750000000         9.854228171685056E-162
   37.9406250000000        -5.306207579025903E-162
   38.1543750000000        -5.495324033118772E-161
   38.3681250000000        -1.730635621518861E-160
   38.5818750000000        -4.039599369926953E-160
   38.7956250000000        -7.784814169451911E-160
   39.0093750000000        -1.244089727291391E-159
   39.2231250000000        -1.510023539390459E-159
   39.4368750000000        -7.647066719305883E-160
   39.6506250000000         2.744805653765959E-159
   39.8643750000000         1.215912250276535E-158
   40.0781250000000         3.206785428003177E-158
   40.2918750000000         6.719365369196476E-158
   40.5056250000000         1.177738892198170E-157
   40.7193750000000         1.685591681937542E-157
   40.9331250000000         1.676081760072531E-157
   41.1468750000000        -7.601577144238394E-159
   41.3606250000000        -5.924651572007315E-157
   41.5743750000000        -1.963985385677039E-156
   41.7881250000000        -4.598306807760353E-156
   42.0018750000000        -8.840208247695589E-156
   42.2156250000000        -1.428957065856255E-155
   42.4293750000000        -1.854423745853235E-155
   42.6431250000000        -1.507127088877922E-155
   42.8568750000000         9.716755812522266E-156
   43.0706250000000         7.924081882242732E-155
   43.2843750000000         2.266572695303824E-154
   43.4981250000000         4.861260686600545E-154
   43.7118750000000         8.656075397471295E-154
   43.9256250000000         1.287637234727309E-153
   44.1393750000000         1.485075503817109E-153
   44.3531250000000         8.514084301797086E-154
   44.5668750000000        -1.717754733520359E-153
   44.7806250000000        -7.878354843431457E-153
   44.9943750000000        -1.954530619299603E-152
   45.2081250000000        -3.784525432238303E-152
   45.4218750000000        -6.076670690103007E-152
   45.6356250000000        -7.901606759239799E-152
   45.8493750000000        -7.015873558259176E-152
   46.0631250000000         7.314910015438999E-153
   46.2768750000000         2.152875699067805E-151
   46.4906250000000         6.231859036116031E-151
   46.7043750000000         1.265952487487049E-150
   46.9181250000000         2.054695864812349E-150
   47.1318750000000         2.628832458929983E-150
   47.3456250000000         2.168409171610149E-150
   47.5593750000000        -7.442881508166748E-151
   47.7731250000000        -7.998065685589925E-150
   47.9868750000000        -2.116611169511027E-149
   48.2006250000000        -3.949015833154481E-149
   48.4143750000000        -5.606324727099324E-149
   48.6281250000000        -5.214604321483993E-149
   48.8418750000000         8.875588907004697E-150
   49.0556250000000         1.830368758667521E-148
   49.2693750000000         5.323187240791750E-148
   49.4831250000000         1.078023153196478E-147
   49.6968750000000         1.696165158171165E-147
   49.9106250000000         1.931811534427937E-147
   50.1243750000000         7.346631153751487E-148
   50.3381250000000        -3.808262589859191E-147
   50.5518750000000        -1.451337737002436E-146
   50.7656250000000        -3.442469295710233E-146
   50.9793750000000        -6.457342195593265E-146
   51.1931250000000        -9.897644569965963E-146
   51.4068750000000        -1.156401932036802E-145
   51.6206250000000        -6.323526549579357E-146
   51.8343750000000         1.540036509270704E-145
   52.0481250000000         6.842572699756856E-145
   52.2618750000000         1.708807735111912E-144
   52.4756250000000         3.358634794944122E-144
   52.6893750000000         5.511108102642151E-144
   52.9031250000000         7.399751747170981E-144
   53.1168750000000         6.989572494952908E-144
   53.3306250000000         1.621186096292947E-145
   53.5443750000000        -2.001932552861584E-143
   53.7581250000000        -6.325847060358157E-143
   53.9718750000000        -1.397838464356290E-142
   54.1856250000000        -2.535914165365762E-142
   54.3993750000000        -3.879872004747148E-142
   54.6131250000000        -4.801741427394963E-142
   54.8268750000000        -3.837915919988347E-142
   55.0406250000000         1.749116579117863E-142
   55.2543750000000         1.626985212672558E-141
   55.4681250000000         4.530779478414443E-141
   55.6818750000000         9.398175952009689E-141
   55.8956250000000         1.624869574998072E-140
   56.1093750000000         2.373173332878722E-140
   56.3231250000000         2.768288764340979E-140
   56.5368750000000         1.914238797041380E-140
   56.7506250000000        -1.771902659642807E-140
   56.9643750000000        -1.065042294696268E-139
   57.1781250000000        -2.757297191157542E-139
   57.3918750000000        -5.478030967538299E-139
   57.6056250000000        -9.135887529098831E-139
   57.8193750000000        -1.285570536533730E-138
   58.0331250000000        -1.425292291414104E-138
   58.2468750000000        -8.506413404330489E-139
   58.4606250000000         1.249155514162151E-138
   58.6743750000000         6.022740529275941E-138
   58.8881250000000         1.476116503657007E-137
   59.1018750000000         2.829385161381609E-137
   59.3156250000000         4.570823219751788E-137
   59.5293750000000         6.213099106413420E-137
   59.7431250000000         6.548953114047235E-137
   59.9568750000000         3.268744927982879E-137
   60.1706250000000        -7.332569105715883E-137
   60.3843750000000        -3.023630400466107E-136
   60.5981250000000        -7.060185029991434E-136
   60.8118750000000        -1.308530308822834E-135
   61.0256250000000        -2.049445321230390E-135
   61.2393750000000        -2.689930988578023E-135
   61.4531250000000        -2.684278171478564E-135
   61.6668750000000        -1.041482243130646E-135
   61.8806250000000         3.754882252781332E-135
   62.0943750000000         1.363318852627554E-134
   62.3081250000000         3.040529272362508E-134
   62.5218750000000         5.451952678416215E-134
   62.7356250000000         8.276733644594372E-134
   62.9493750000000         1.047476240873245E-133
   63.1631250000000         9.832984652689076E-134
   63.3768750000000         2.528514471080816E-134
   63.5906250000000        -1.701566578580519E-133
   63.8043750000000        -5.547859650856479E-133
   64.0181250000000        -1.184235025738781E-132
   64.2318750000000        -2.055393420076930E-132
   64.4456250000000        -3.024208332226496E-132
   64.6593750000000        -3.686111393045132E-132
   64.8731250000000        -3.233282958156715E-132
   65.0868750000000        -3.355695244381633E-133
   65.3006250000000         6.856382281860179E-132
   65.5143750000000         2.041852587610946E-131
   65.7281250000000         4.183289119791853E-131
   65.9418750000000         7.036214128195124E-131
   66.1556250000000         1.004010748129846E-130
   66.3693750000000         1.178419851992639E-130
   66.5831250000000         9.606715024575156E-131
   66.7968750000000        -6.800843505380230E-132
   67.0106250000000        -2.462576096267137E-130
   67.2243750000000        -6.804161427460440E-130
   67.4381250000000        -1.343036811825941E-129
   67.6518750000000        -2.193633898292149E-129
   67.8656250000000        -3.040511173787379E-129
   68.0793750000000        -3.441143029918877E-129
   68.2931250000000        -2.601618318892354E-129
   68.5068750000000         6.747907490513976E-130
   68.7206250000000         7.900856854119212E-129
   68.9343750000000         2.054787674806489E-128
   69.1481250000000         3.925313929296278E-128
   69.3618750000000         6.243862200029700E-128
   69.5756250000000         8.428703415433490E-128
   69.7893750000000         9.227160284175901E-128
   70.0031250000000         6.489850264816754E-128
   70.2168750000000        -2.897101115411105E-128
   70.4306250000000        -2.269433084713807E-127
   70.6443750000000        -5.628726715156824E-127
   70.8581250000000        -1.045930952786354E-126
   71.0718750000000        -1.625994043190535E-126
   71.2856250000000        -2.145315117323755E-126
   71.4993750000000        -2.282913514760875E-126
   71.7131250000000        -1.509187220843783E-126
   71.9268750000000         9.158150443223649E-127
   72.1406250000000         5.848014057848193E-126
   72.3543750000000         1.399950250120727E-125
   72.5681250000000         2.543956700824390E-125
   72.7818750000000         3.880702506358850E-125
   72.9956250000000         5.025908308800496E-125
   73.2093750000000         5.233053199554369E-125
   73.4231250000000         3.311606901193996E-125
   73.6368750000000        -2.348783335464344E-125
   73.8506250000000        -1.353867071806076E-124
   74.0643750000000        -3.163702712518036E-124
   74.2781250000000        -5.653350230740095E-124
   74.4918750000000        -8.499598224882270E-124
   74.7056250000000        -1.085815235753919E-123
   74.9193750000000        -1.114956300181425E-123
   75.1331250000000        -6.927075690598375E-124
   75.3468750000000         5.026936899796375E-124
   75.5606250000000         2.816837108019084E-123
   75.7743750000000         6.497727378396539E-123
   75.9881250000000         1.148429306265481E-122
   76.2018750000000         1.709751612753963E-122
   76.4156250000000         2.166001791318804E-122
   76.6293750000000         2.212707547485559E-122
   76.8431250000000         1.389438145785292E-122
   77.0568750000000        -8.952590806800224E-123
   77.2706250000000        -5.258924249698851E-122
   77.4843750000000        -1.212010900440225E-121
   77.6981250000000        -2.132063505863972E-121
   77.9118750000000        -3.159117869392877E-121
   78.1256250000000        -3.991510982592402E-121
   78.3393750000000        -4.094168225465975E-121
   78.5531250000000        -2.673177620603018E-121
   78.7668750000000         1.272937385756891E-121
   78.9806250000000         8.768844785415492E-121
   79.1943750000000         2.048492437128257E-120
   79.4081250000000         3.612291028062669E-120
   79.6218750000000         5.356981452643660E-120
   79.8356250000000         6.791942973283799E-120
   80.0493750000000         7.060710202981832E-120
   80.2631250000000         4.909586919267151E-120
   80.4768750000000        -1.223905590433771E-120
   80.6906250000000        -1.292183285520335E-119
   80.9043750000000        -3.121386430322299E-119
   81.1181250000000        -5.566877964864574E-119
   81.3318750000000        -8.317004725164656E-119
   81.5456250000000        -1.065309582963174E-118
   81.7593750000000        -1.133058700323568E-118
   81.9731250000000        -8.540783716956437E-119
   82.1868750000000        -4.047650173368876E-121
   82.4006250000000         1.644504532537230E-118
   82.6143750000000         4.244299136146473E-118
   82.8281250000000         7.751727622899049E-118
   83.0418750000000         1.176547117586201E-117
   83.2556250000000         1.534642724772718E-117
   83.4693750000000         1.686478811246036E-117
   83.6831250000000         1.395019672035749E-117
   83.8968750000000         3.650545277154483E-118
   84.1106250000000        -1.707621916277612E-117
   84.3243750000000        -5.042019264026696E-117
   84.5381250000000        -9.626259471415332E-117
   84.7518750000000        -1.502549533784428E-116
   84.9656250000000        -2.016784332557834E-116
   85.1793750000000        -2.315952669091019E-116
   85.3931250000000        -2.121196835879152E-116
   85.6068750000000        -1.079350941264146E-116
   85.8206250000000         1.186386546124747E-116
   86.0343750000000         4.978160037107244E-116
   86.2481250000000         1.037073501089156E-115
   86.4618750000000         1.700882323881190E-115
   86.6756250000000         2.387708669326640E-115
   86.8893750000000         2.908995604326372E-115
   87.1031250000000         2.977653266999819E-115
   87.3168750000000         2.216207434082156E-115
   87.5306250000000         1.963400839434079E-116
   87.7443750000000        -3.478982678969169E-115
   87.9581250000000        -9.043408385764035E-115
   88.1718750000000        -1.638575118718763E-114
   88.3856250000000        -2.483242674351099E-114
   88.5993750000000        -3.292362378409112E-114
   88.8131250000000        -3.823201767638583E-114
   89.0268750000000        -3.729126798878456E-114
   89.2406250000000        -2.571591890491762E-114
   89.4543750000000         1.398794504714896E-115
   89.6681250000000         4.871161899649462E-114
   89.8818750000000         1.194318152303506E-113
   90.0956250000000         2.136266570545763E-113
   90.3093750000000         3.260185866443349E-113
   90.5231250000000         4.432927609091006E-113
   90.7368750000000         5.410081976371182E-113
   90.9506250000000         5.803491796715526E-113
   91.1643750000000         5.052378388072245E-113
   91.3781250000000         2.408501516335568E-113
   91.5918750000000        -3.045639101324136E-113
   91.8056250000000        -1.231408932245188E-112
   92.0193750000000        -2.629331672995215E-112
   92.2331250000000        -4.540505959557625E-112
   92.4468750000000        -6.898844930803504E-112
   92.6606250000000        -9.439972756431649E-112
   92.8743750000000        -1.158251334053461E-111
   93.0881250000000        -1.229336391820690E-111
   93.3018750000000        -9.970131879912381E-112
   93.5156250000000        -2.403488427506771E-112
   93.7293750000000         1.308151638256222E-111
   93.9431250000000         3.917059157189488E-111
   94.1568750000000         7.763713262845223E-111
   94.3706250000000         1.278149771400257E-110
   94.5843750000000         1.844197591831438E-110
   94.7981250000000         2.348652468957935E-110
   95.0118750000000         2.565482784916803E-110
   95.2256250000000         2.150429707661230E-110
   95.4393750000000         6.471238046861670E-111
   95.6531250000000        -2.461984733581827E-110
   95.8668750000000        -7.635907153267925E-110
   96.0806250000000        -1.506472797448510E-109
   96.2943750000000        -2.435834817380484E-109
   96.5081250000000        -3.414989702907395E-109
   96.7218750000000        -4.167263377130847E-109
   96.9356250000000        -4.243044458387952E-109
   97.1493750000000        -3.015597449975214E-109
   97.3631250000000         2.677253284002576E-110
   97.5768750000000         6.347756725701974E-109
   97.7906250000000         1.570027462675874E-108
   98.0043750000000         2.815183670144672E-108
   98.2181250000000         4.237943657391951E-108
   98.4318750000000         5.535929800737976E-108
   98.6456250000000         6.190137336908064E-108
   98.8593750000000         5.449174609853129E-108
   99.0731250000000         2.374904607191582E-108
   99.2868750000000        -4.014539500491247E-108
   99.5006250000000        -1.447023284481565E-107
   99.7143750000000        -2.908653520884171E-107
   99.9281250000000        -4.673585273322534E-107
   100.141875000000        -6.442983614145404E-107
   100.355625000000        -7.674826436096648E-107
   100.569375000000        -7.556758596898907E-107
   100.783125000000        -5.041052151860364E-107
   100.996875000000         1.020261052606308E-107
   101.210625000000         1.160327839575321E-106
   101.424375000000         2.707990948435344E-106
   101.638125000000         4.663326050286973E-106
   101.851875000000         6.758113265171313E-106
   102.065625000000         8.474207625119180E-106
   102.279375000000         9.006770921085891E-106
   102.493125000000         7.285392017889410E-106
   102.706875000000         2.090507063518589E-106
   102.920625000000        -7.697942251255925E-106
   103.134375000000        -2.269452066339325E-105
   103.348125000000        -4.244794273101804E-105
   103.561875000000        -6.477710483408250E-105
   103.775625000000        -8.512205636154554E-105
   103.989375000000        -9.611078911267673E-105
   104.203125000000        -8.762592621071176E-105
   104.416875000000        -4.771577470659431E-105
   104.630625000000         3.530214574658936E-105
   104.844375000000         1.692915510983358E-104
   105.058125000000         3.532833737528167E-104
   105.271875000000         5.713859940582964E-104
   105.485625000000         7.865917667139793E-104
   105.699375000000         9.361678477822394E-104
   105.913125000000         9.310562795054834E-104
   106.126875000000         6.622714000949385E-104
   106.340625000000         1.739221326068782E-105
   106.554375000000        -1.090439943066798E-103
   106.768125000000        -2.680445557049784E-103
   106.981875000000        -4.651738369344950E-103
   107.195625000000        -6.727885012947161E-103
   107.409375000000        -8.411808766674924E-103
   107.623125000000        -8.970553860531918E-103
   107.836875000000        -7.474422476254882E-103
   108.050625000000        -2.916602334914125E-103
   108.264375000000         5.565084921466479E-103
   108.478125000000         1.835608548413398E-102
   108.691875000000         3.493899068520579E-102
   108.905625000000         5.342609103187876E-102
   109.119375000000         7.014939426293479E-102
   109.333125000000         7.945657004460148E-102
   109.546875000000         7.390347970285514E-102
   109.760625000000         4.505244816206426E-102
   109.974375000000        -1.494007068303959E-102
   110.188125000000        -1.108538594870539E-101
   110.401875000000        -2.411352553864006E-101
   110.615625000000        -3.941742756573660E-101
   110.829375000000        -5.448182240768499E-101
   111.043125000000        -6.521910128116080E-101
   111.256875000000        -6.602269195761316E-101
   111.470625000000        -5.025123104511298E-101
   111.684375000000        -1.129131787764968E-101
   111.898125000000         5.571080265267650E-101
   112.111875000000         1.514752764886492E-100
   112.325625000000         2.697822616467880E-100
   112.539375000000         3.946860155419448E-100
   112.753125000000         4.984792590166233E-100
   112.966875000000         5.413979118619141E-100
   113.180625000000         4.742226977124915E-100
   113.394375000000         2.449063922658993E-100
   113.608125000000        -1.899778133209491E-100
   113.821875000000        -8.489111047065037E-100
   114.035625000000        -1.705375548010180E-099
   114.249375000000        -2.666864515817130E-099
   114.463125000000        -3.557680353179138E-099
   114.676875000000        -4.112145370516543E-099
   114.890625000000        -3.986229441486412E-099
   115.104375000000        -2.795788342778896E-099
   115.318125000000        -1.878570438513401E-100
   115.531875000000         4.052962231065256E-099
   115.745625000000         9.868505949613558E-099
   115.959375000000         1.677755593955996E-098
   116.173125000000         2.374183471892406E-098
   116.386875000000         2.908974927332573E-098
   116.600625000000         3.055074343029894E-098
   116.814375000000         2.545686689701093E-098
   117.028125000000         1.116015372974874E-098
   117.241875000000        -1.431022230055015E-098
   117.455625000000        -5.137183267345959E-098
   117.669375000000        -9.788031366195881E-098
   117.883125000000        -1.481567760658542E-097
   118.096875000000        -1.923083605350497E-097
   118.310625000000        -2.161754684036567E-097
   118.524375000000        -2.022783171759029E-097
   118.738125000000        -1.321064770100449E-097
   118.951875000000         1.003365303243588E-098
   119.165625000000         2.316520823013679E-097
   119.379375000000         5.256154731480918E-097
   119.593125000000         8.635241406145487E-097
   119.806875000000         1.190418415025108E-096
   120.020625000000         1.422826986764755E-096
   120.234375000000         1.452498111293258E-096
   120.448125000000         1.158105535198697E-096
   120.661875000000         4.265969854909578E-097
   120.875625000000        -8.155150594753000E-097
   121.089375000000        -2.562816922087379E-096
   121.303125000000        -4.688464923795513E-096
   121.516875000000        -6.906747947164909E-096
   121.730625000000        -8.752372417985678E-096
   121.944375000000        -9.590524085439264E-096
   122.158125000000        -8.672181197429439E-096
   122.371875000000        -5.246381654878606E-096
   122.585625000000         1.265892989155020E-096
   122.799375000000         1.104350567586730E-095
   123.013125000000         2.360660491684264E-095
   123.226875000000         3.757174416835036E-095
   123.440625000000         5.048517741968415E-095
   123.654375000000         5.881513721169754E-095
   123.868125000000         5.818998307148315E-095