  -1.60312500000000         0.000000000000000E+000
  -1.38937500000000         0.000000000000000E+000
  -1.17562500000000         0.000000000000000E+000
 -0.961875000000000         0.000000000000000E+000
 -0.748125000000000         0.000000000000000E+000
 -0.534375000000000         0.000000000000000E+000
 -0.320625000000000         0.000000000000000E+000
 -0.106875000000000         0.000000000000000E+000
  0.106875000000000         0.000000000000000E+000
  0.320625000000000         0.000000000000000E+000
  0.534375000000000         0.000000000000000E+000
  0.748125000000000         0.000000000000000E+000
  0.961875000000000         0.000000000000000E+000
   1.17562500000000         0.000000000000000E+000
   1.38937500000000         0.000000000000000E+000
   1.60312500000000         0.000000000000000E+000
   1.81687500000000         0.000000000000000E+000
   2.03062500000000         0.000000000000000E+000
   2.24437500000000         0.000000000000000E+000
   2.45812500000000         0.000000000000000E+000
   2.67187500000000         0.000000000000000E+000
   2.88562500000000         0.000000000000000E+000
   3.09937500000000         0.000000000000000E+000
   3.31312500000000         0.000000000000000E+000
   3.52687500000000         0.000000000000000E+000
   3.74062500000000         0.000000000000000E+000
   3.95437500000000         0.000000000000000E+000
   4.16812500000000         0.000000000000000E+000
   4.38187500000000         0.000000000000000E+000
   4.59562500000000         0.000000000000000E+000
   4.80937500000000         0.000000000000000E+000
   5.02312500000000         0.000000000000000E+000
   5.23687500000000         0.000000000000000E+000
   5.45062500000000         0.000000000000000E+000
   5.66437500000000         0.000000000000000E+000
   5.87812500000000         0.000000000000000E+000
   6.09187500000000         0.000000000000000E+000
   6.30562500000000         0.000000000000000E+000
   6.51937500000000         0.000000000000000E+000
   6.73312500000000         0.000000000000000E+000
   6.94687500000000         0.000000000000000E+000
   7.16062500000000         0.000000000000000E+000
   7.37437500000000         0.000000000000000E+000
   7.58812500000000         0.000000000000000E+000
   7.80187500000000         0.000000000000000E+000
   8.01562500000000         0.000000000000000E+000
   8.22937500000000         0.000000000000000E+000
   8.44312500000000         0.000000000000000E+000
   8.65687500000000         0.000000000000000E+000
   8.87062500000000         0.000000000000000E+000
   9.08437500000000         0.000000000000000E+000
   9.29812500000000         0.000000000000000E+000
   9.51187500000000         0.000000000000000E+000
   9.72562500000000         0.000000000000000E+000
   9.93937500000000         0.000000000000000E+000
   10.1531250000000         0.000000000000000E+000
   10.3668750000000         0.000000000000000E+000
   10.5806250000000         0.000000000000000E+000
   10.7943750000000         0.000000000000000E+000
   11.0081250000000         0.000000000000000E+000
   11.2218750000000         0.000000000000000E+000
   11.4356250000000         0.000000000000000E+000
   11.6493750000000         0.000000000000000E+000
   11.8631250000000         0.000000000000000E+000
   12.0768750000000         0.000000000000000E+000
   12.2906250000000         0.000000000000000E+000
   12.5043750000000         0.000000000000000E+000
   12.7181250000000         6.612123322329574E-276
   12.9318750000000         2.600332801790648E-269
   13.1456250000000        -3.830264124620432E-266
   13.3593750000000        -4.540257926302401E-263
   13.5731250000000        -1.129563157038505E-244
   13.7868750000000         8.486777705893094E-239
   14.0006250000000         2.794916998590766E-234
   14.2143750000000        -9.890158687402875E-232
   14.4281250000000        -3.185819150505522E-229
   14.6418750000000         3.667533676765994E-227
   14.8556250000000         5.686626401580505E-225
   15.0693750000000         4.562475481984569E-223
   15.2831250000000         2.600024998863447E-221
   15.4968750000000         1.101443211162013E-219
   15.7106250000000         3.605270715984107E-218
   15.9243750000000         9.476193470529416E-217
   16.1381250000000         2.066438546995593E-215
   16.3518750000000         3.836628698567716E-214
   16.5656250000000         6.188435243307415E-213
   16.7793750000000         8.809278946249631E-212
   16.9931250000000         1.120362913585848E-210
   17.2068750000000         1.285296829497140E-209
   17.4206250000000         1.340025453446208E-208
   17.6343750000000         1.276888198694060E-207
   17.8481250000000         1.116615850665352E-206
   18.0618750000000         8.984307673389375E-206
   18.2756250000000         6.657217844225916E-205
   18.4893750000000         4.537518473921493E-204
   18.7031250000000         2.832825589928652E-203
   18.9168750000000         1.604587542708400E-202
   19.1306250000000         8.080213993526380E-202
   19.3443750000000         3.447667003137056E-201
   19.5581250000000         1.069818171317130E-200
   19.7718750000000         3.760151755136223E-201
   19.9856250000000        -2.928456439422027E-199
   20.1993750000000        -3.152848545522066E-198
   20.4131250000000        -2.375195588386543E-197
   20.6268750000000        -1.511596242063816E-196
   20.8406250000000        -8.607568965096455E-196
   21.0543750000000        -4.499462788976050E-195
   21.2681250000000        -2.189373843053377E-194
   21.4818750000000        -1.000285460219735E-193
   21.6956250000000        -4.317442363460809E-193
   21.9093750000000        -1.769172474766244E-192
   22.1231250000000        -6.914679189929938E-192
   22.3368750000000        -2.590768031350384E-191
   22.5506250000000        -9.362159885528836E-191
   22.7643750000000        -3.287535371234076E-190
   22.9781250000000        -1.131778947578421E-189
   23.1918750000000        -3.855483539712396E-189
   23.4056250000000        -1.309545084039367E-188
   23.6193750000000        -4.448970104558467E-188
   23.8331250000000        -1.506743497191808E-187
   24.0468750000000        -5.035435072428147E-187
   24.2606250000000        -1.634120142399823E-186
   24.4743750000000        -5.038620497756007E-186
   24.6881250000000        -1.429864171705362E-185
   24.9018750000000        -3.517293476974148E-185
   25.1156250000000        -6.281936589345091E-185
   25.3293750000000         2.635021740905876E-186
   25.5431250000000         7.548304514209828E-184
   25.7568750000000         4.884614406861835E-183
   25.9706250000000         2.297074142292293E-182
   26.1843750000000         9.268818755841001E-182
   26.3981250000000         3.379495837195172E-181
   26.6118750000000         1.138653233970896E-180
   26.8256250000000         3.584867218177233E-180
   27.0393750000000         1.060508116854522E-179
   27.2531250000000         2.954401172831630E-179
   27.4668750000000         7.748080858830974E-179
   27.6806250000000         1.907673326026349E-178
   27.8943750000000         4.385445453381085E-178
   28.1081250000000         9.326532633216890E-178
   28.3218750000000         1.808119643119790E-177
   28.5356250000000         3.122765570625194E-177
   28.7493750000000         4.650858058478007E-177
   28.9631250000000         5.897578371725769E-177
   29.1768750000000         8.272880748616864E-177
   29.3906250000000         2.693214539576760E-176
   29.6043750000000         1.361618797942059E-175
   29.8181250000000         6.147870161201048E-175
   30.0318750000000         2.357437111209395E-174
   30.2456250000000         7.924494146830604E-174
   30.4593750000000         2.397971272949219E-173
   30.6731250000000         6.642097194479234E-173
   30.8868750000000         1.700156569988323E-172
   31.1006250000000         4.038797770637022E-172
   31.3143750000000         8.901929116591701E-172
   31.5281250000000         1.810795902566183E-171
   31.7418750000000         3.355744052890187E-171
   31.9556250000000         5.508946296794153E-171
   32.1693750000000         7.478431146419848E-171
   32.3831250000000         6.505544361789121E-171
   32.5968750000000        -4.117613841511511E-171
   32.8106250000000        -3.736848217665547E-170
   33.0243750000000        -1.129353683297799E-169
   33.2381250000000        -2.501390451760144E-169
   33.4518750000000        -4.436820072753044E-169
   33.6656250000000        -6.150221082078949E-169
   33.8793750000000        -5.641359643781901E-169
   34.0931250000000        -6.580575313138366E-170
   34.3068750000000         4.187686127555130E-169
   34.5206250000000        -2.792388230689534E-168
   34.7343750000000        -2.355932961190018E-167
   34.9481250000000        -1.020051477449999E-166
   35.1618750000000        -3.364102591207829E-166
   35.3756250000000        -9.360857677658292E-166
   35.5893750000000        -2.286424796416992E-165
   35.8031250000000        -4.971635659434993E-165
   36.0168750000000        -9.588986896092108E-165
   36.2306250000000        -1.596297180063716E-164
   36.4443750000000        -2.099068432104750E-164
   36.6581250000000        -1.386967786151348E-164
   36.8718750000000         3.280546399755211E-164
   37.0856250000000         1.767043004078238E-163
   37.2993750000000         5.206653335841955E-163
   37.5131250000000         1.214074966231113E-162
   37.7268750000000         2.401883964680031E-162
   37.9406250000000         4.039923409954328E-162
   38.1543750000000         5.435527205512537E-162
   38.3681250000000         4.320368969001589E-162
   38.5818750000000        -4.701901175139513E-162
   38.7956250000000        -3.218072212803593E-161
   39.0093750000000        -9.522762919482973E-161
   39.2231250000000        -2.151158295674478E-160
   39.4368750000000        -4.039955898077479E-160
   39.6506250000000        -6.278140809760516E-160
   39.8643750000000        -7.262249750790895E-160
   40.0781250000000        -2.690969612081245E-160
   40.2918750000000         1.653181251104102E-159
   40.5056250000000         6.645474506551866E-159
   40.7193750000000         1.701874634743192E-158
   40.9331250000000         3.509332855886442E-158
   41.1468750000000         6.082577119940331E-158
   41.3606250000000         8.621090490670052E-158
   41.5743750000000         8.452686101758119E-158
   41.7881250000000        -6.889833906822942E-159
   42.0018750000000        -3.083988559651656E-157
   42.2156250000000        -1.013808705165487E-156
   42.4293750000000        -2.372095641283039E-156
   42.6431250000000        -4.577651401658317E-156
   42.8568750000000        -7.471799399625460E-156
   43.0706250000000        -9.921997933977029E-156
   43.2843750000000        -8.751757744599553E-156
   43.4981250000000         2.774240598430919E-156
   43.7118750000000         3.651088327534991E-155
   43.9256250000000         1.097963229362467E-154
   44.1393750000000         2.419127006919267E-154
   44.3531250000000         4.418807859587256E-154
   44.5668750000000         6.807489242050317E-154
   44.7806250000000         8.411344590718555E-154
   44.9943750000000         6.415653470999619E-154
   45.2081250000000        -4.510104811053634E-154
   45.4218750000000        -3.272700499374443E-153
   45.6356250000000        -8.870764387163861E-153
   45.8493750000000        -1.807899832568658E-152
   46.0631250000000        -3.049271911916330E-152
   46.2768750000000        -4.257222853176277E-152
   46.4906250000000        -4.481545070741822E-152
   46.7043750000000        -1.858589318384415E-152
   46.9181250000000         6.548384666255617E-152
   47.1318750000000         2.434307142948594E-151
   47.3456250000000         5.414864724452433E-151
   47.5593750000000         9.386148127628963E-151
   47.7731250000000         1.301737325239877E-150
   47.9868750000000         1.299435714728834E-150
   48.2006250000000         3.300743040979179E-151
   48.4143750000000        -2.443555418677845E-150
   48.6281250000000        -7.778662349970970E-150
   48.8418750000000        -1.549627310883462E-149
   49.0556250000000        -2.280836653140182E-149
   49.2693750000000        -2.175767669268825E-149
   49.4831250000000         3.614156600398995E-150
   49.6968750000000         7.823985711632722E-149
   49.9106250000000         2.303617535542601E-148
   50.1243750000000         4.707463079268919E-148
   50.3381250000000         7.446969312943435E-148
   50.5518750000000         8.446516071773067E-148
   50.7656250000000         2.815036773151416E-148
   50.9793750000000        -1.854476200607382E-147
   51.1931250000000        -6.940755190113383E-147
   51.4068750000000        -1.654917519321900E-146
   51.6206250000000        -3.144108721111962E-146
   51.8343750000000        -4.922215922646164E-146
   52.0481250000000        -5.996694880936859E-146
   52.2618750000000        -3.944866521827707E-146
   52.4756250000000         5.914344178282599E-146
   52.6893750000000         3.111884238448057E-145
   52.9031250000000         8.150307684526589E-145
   53.1168750000000         1.656960833121492E-144
   53.3306250000000         2.818237912360508E-144
   53.5443750000000         3.986922038887291E-144
   53.7581250000000         4.240941950129299E-144
   53.9718750000000         1.604741644309856E-144
   54.1856250000000        -7.418051557797439E-144
   54.3993750000000        -2.802719883950789E-143
   54.6131250000000        -6.636311757290761E-143
   54.8268750000000        -1.266377427248161E-142
   55.0406250000000        -2.044474459105339E-142
   55.2543750000000        -2.742655994259413E-142
   55.4681250000000        -2.697483238729766E-142
   55.6818750000000        -5.822398155701703E-143
   55.8956250000000         5.826942092163102E-142
   56.1093750000000         1.966000075653991E-141
   56.3231250000000         4.433586589383962E-141
   56.5368750000000         8.165978286834162E-141
   56.7506250000000         1.277296774466384E-140
   56.9643750000000         1.657039148889016E-140
   57.1781250000000         1.550173683636437E-140
   57.3918750000000         1.835249814051430E-141
   57.6056250000000        -3.685984713354079E-140
   57.8193750000000        -1.172959577121297E-139
   58.0331250000000        -2.564685808825667E-139
   58.2468750000000        -4.607614726361909E-139
   58.4606250000000        -7.039193697579444E-139
   58.6743750000000        -8.900045225209240E-139
   58.8881250000000        -8.009163068205319E-139
   59.1018750000000        -3.740429919147585E-140
   59.3156250000000         2.018827263186949E-138
   59.5293750000000         6.163425103202281E-138
   59.7431250000000         1.314672967713378E-137
   59.9568750000000         2.312218953243801E-137
   60.1706250000000         3.459110830085392E-137
   60.3843750000000         4.270984498770362E-137
   60.5981250000000         3.701389784017373E-137
   60.8118750000000        -9.393728170404440E-139
   61.0256250000000        -9.867816653720544E-137
   61.2393750000000        -2.900541956293982E-136
   61.4531250000000        -6.043306497794191E-136
   61.6668750000000        -1.041249257073510E-135
   61.8806250000000        -1.525752211666636E-135
   62.0943750000000        -1.838698116332297E-135
   62.3081250000000        -1.528756418346671E-135
   62.5218750000000         1.703745992194557E-136
   62.7356250000000         4.360451683497589E-135
   62.9493750000000         1.233209077561298E-134
   63.1631250000000         2.508955061138064E-134
   63.3768750000000         4.233960895073082E-134
   63.5906250000000         6.074492184709464E-134
   63.8043750000000         7.137593656779086E-134
   64.0181250000000         5.665930065556607E-134
   64.2318750000000        -1.216392336232695E-134
   64.4456250000000        -1.748961458122035E-133
   64.6593750000000        -4.758016117661973E-133
   64.8731250000000        -9.451220515389922E-133
   65.0868750000000        -1.562168158467194E-132
   65.3006250000000        -2.194546122370546E-132
   65.5143750000000        -2.513662407674097E-132
   65.7281250000000        -1.899875388066215E-132
   65.9418750000000         6.252172120390665E-133
   66.1556250000000         6.365090082809245E-132
   66.3693750000000         1.669219393577706E-131
   66.5831250000000         3.240338761563811E-131
   66.7968750000000         5.250379932727420E-131
   67.0106250000000         7.229348687494023E-131
   67.2243750000000         8.083189510527077E-131
   67.4381250000000         5.828272766366837E-131
   67.6518750000000        -2.562853261325015E-131
   67.8656250000000        -2.097648691713573E-130
   68.0793750000000        -5.328193107805843E-130
   68.2931250000000        -1.013096351355214E-129
   68.5068750000000        -1.612238893902862E-129
   68.7206250000000        -2.180550879742678E-129
   68.9343750000000        -2.387880122971088E-129
   69.1481250000000        -1.656396141214866E-129
   69.3618750000000         8.685269750187364E-130
   69.5756250000000         6.246212194237787E-129
   69.7893750000000         1.547489298487387E-128
   70.0031250000000         2.891937680472227E-128
   70.2168750000000         4.532901236821920E-128
   70.4306250000000         6.041498959240777E-128
   70.6443750000000         6.513213981189062E-128
   70.8581250000000         4.413216536295154E-128
   71.0718750000000        -2.465541375852788E-128
   71.2856250000000        -1.677331363439673E-127
   71.4993750000000        -4.088282954070064E-127
   71.7131250000000        -7.542276327280499E-127
   71.9268750000000        -1.168580319306426E-126
   72.1406250000000        -1.541090275086318E-126
   72.3543750000000        -1.646409951076305E-126
   72.5681250000000        -1.112105482319726E-126
   72.7818750000000         5.845089534494453E-127
   72.9956250000000         4.054179982787979E-126
   73.2093750000000         9.820141400527061E-126
   73.4231250000000         1.797703576526879E-125
   73.6368750000000         2.764697227685136E-125
   73.8506250000000         3.624377170230404E-125
   74.0643750000000         3.865487940171274E-125
   74.2781250000000         2.661132600475582E-125
   74.4918750000000        -1.126185459486841E-125
   74.7056250000000        -8.796890264664615E-125
   74.9193750000000        -2.142858308682370E-124
   75.1331250000000        -3.915440671735856E-124
   75.3468750000000        -6.004514628959322E-124
   75.5606250000000        -7.863912551984438E-124
   75.7743750000000        -8.436324008203519E-124
   75.9881250000000        -6.039984741427396E-124
   76.2018750000000         1.603420360428250E-124
   76.4156250000000         1.705852029174305E-123
   76.6293750000000         4.240987934492553E-123
   76.8431250000000         7.787089174123692E-123
   77.0568750000000         1.196801167658152E-122
   77.2706250000000         1.573989869813052E-122
   77.4843750000000         1.710903253240697E-122
   77.6981250000000         1.294060218859392E-122
   77.9118750000000        -9.690264325579186E-124
   78.1256250000000        -2.931236843166556E-122
   78.3393750000000        -7.589254990608328E-122
   78.5531250000000        -1.411786021743839E-121
   78.7668750000000        -2.186781523808178E-121
   78.9806250000000        -2.903617710096082E-121
   79.1943750000000        -3.219813598930341E-121
   79.4081250000000        -2.600072497857296E-121
   79.6218750000000        -3.299094912908069E-122
   79.8356250000000         4.387808119287449E-121
   80.0493750000000         1.220870079989370E-120
   80.2631250000000         2.325556577808420E-120
   80.4768750000000         3.654557499231048E-120
   80.6906250000000         4.927639321638247E-120
   80.9043750000000         5.610334715109509E-120
   81.1181250000000         4.866897911564297E-120
   81.3318750000000         1.580006755353381E-120
   81.5456250000000        -5.506845887865965E-120
   81.7593750000000        -1.746099814287064E-119
   81.9731250000000        -3.459198937540055E-119
   82.1868750000000        -5.562518461836050E-119
   82.4006250000000        -7.667687319549538E-119
   82.6143750000000        -9.021497473576757E-119
   82.8281250000000        -8.436127142603053E-119
   83.0418750000000        -4.309065133173242E-119
   83.2556250000000         5.193530355215647E-119
   83.4693750000000         2.170776458033563E-118
   83.6831250000000         4.592736238665019E-118
   83.8968750000000         7.652067429140186E-118
   84.1106250000000         1.087818861094234E-117
   84.3243750000000         1.332411334815272E-117
   84.5381250000000         1.346638675255991E-117
   84.7518750000000         9.210512450659969E-118
   84.9656250000000        -1.910369807082220E-118
   85.1793750000000        -2.224575060674997E-117
   85.3931250000000        -5.316250203093188E-117
   85.6068750000000        -9.377080293604221E-117
   85.8206250000000        -1.393105571026378E-116
   86.0343750000000        -1.794298223637280E-116
   86.2481250000000        -1.968043411177787E-116
   86.4618750000000        -1.667959438634732E-116
   86.6756250000000        -5.907582780821465E-117
   86.8893750000000         1.577364588717003E-116
   87.1031250000000         5.074580275299083E-116
   87.3168750000000         9.932257824074002E-116
   87.5306250000000         1.580249977253636E-115
   87.7443750000000         2.176244766466418E-115
   87.9581250000000         2.613288098623360E-115
   88.1718750000000         2.637146579830105E-115
   88.3856250000000         1.912355450935985E-115
   88.5993750000000         5.299402453092201E-117
   88.8131250000000        -3.310616906671966E-115
   89.0268750000000        -8.421012882992350E-115
   89.2406250000000        -1.523521193315656E-114
   89.4543750000000        -2.322434720941249E-114
   89.6681250000000        -3.114957287611783E-114
   89.8818750000000        -3.684921033801615E-114
   90.0956250000000        -3.709212012936655E-114
   90.3093750000000        -2.757462823488432E-114
   90.5231250000000        -3.161652759047417E-115
   90.7368750000000         4.150495337576294E-114
   90.9506250000000         1.108897168654279E-113
   91.1643750000000         2.067900902969301E-113
   91.3781250000000         3.257743069230606E-113
   91.5918750000000         4.557627411803112E-113
   91.8056250000000         5.718359359122774E-113
   92.0193750000000         6.316472109758351E-113
   92.2331250000000         5.713267868986850E-113
   92.4468750000000         3.035549022536839E-113
   92.6606250000000        -2.794187396126067E-113
   92.8743750000000        -1.293695886745800E-112
   93.0881250000000        -2.837167209801762E-112
   93.3018750000000        -4.942310805251925E-112
   93.5156250000000        -7.502980379296646E-112
   93.7293750000000        -1.017346308632375E-111
   93.9431250000000        -1.224626357375320E-111
   94.1568750000000        -1.252939645469237E-111
   94.3706250000000        -9.265361530649392E-112
   94.5843750000000        -1.615801276197072E-113
   94.7981250000000         1.736816717896357E-111
   95.0118750000000         4.562868743004670E-111
   95.2256250000000         8.561065801140361E-111
   95.4393750000000         1.354177403242796E-110
   95.6531250000000         1.881814706329100E-110
   95.8668750000000         2.296966235048738E-110
   96.0806250000000         2.363240324598521E-110
   96.2943750000000         1.741221116176555E-110
   96.5081250000000         6.291815644860726E-113
   96.7218750000000        -3.288914264616758E-110
   96.9356250000000        -8.488103913795302E-110
   97.1493750000000        -1.562590079746950E-109
   97.3631250000000        -2.414149588481128E-109
   97.5768750000000        -3.253476977953193E-109
   97.7906250000000        -3.802781313649867E-109
   98.0043750000000        -3.634754820657395E-109
   98.2181250000000        -2.180497301122731E-109
   98.4318750000000         1.210036944752526E-109
   98.6456250000000         7.129885617243082E-109
   98.8593750000000         1.587795000642939E-108
   99.0731250000000         2.711569118884564E-108
   99.2868750000000         3.943850402155703E-108
   99.5006250000000         4.992711139280178E-108
   99.7143750000000         5.380440503568317E-108
   99.9281250000000         4.439233342791238E-108
   100.141875000000         1.362708885495030E-108
   100.355625000000        -4.657554382132827E-108
   100.569375000000        -1.418437389691541E-107
   100.783125000000        -2.716380557000924E-107
   100.996875000000        -4.244644671142417E-107
   101.210625000000        -5.726294014285064E-107
   101.424375000000        -6.677800445599242E-107
   101.638125000000        -6.392051199988453E-107
   101.851875000000        -3.975672000683268E-107
   102.065625000000         1.528425792166826E-107
   102.279375000000         1.090430960323738E-106
   102.493125000000         2.439530260967471E-106
   102.706875000000         4.121492292853553E-106
   102.920625000000         5.898967632621427E-106
   103.134375000000         7.324731207750279E-106
   103.348125000000         7.713603409881816E-106
   103.561875000000         6.163068903579453E-106
   103.775625000000         1.652929205943641E-106
   103.989375000000        -6.746357444923351E-106
   104.203125000000        -1.953685594648374E-105
   104.416875000000        -3.633090086730571E-105
   104.630625000000        -5.530503480093321E-105
   104.844375000000        -7.266624679116068E-105
   105.058125000000        -8.229268652253435E-105
   105.271875000000        -7.577794011030471E-105
   105.485625000000        -4.315710330392094E-105
   105.699375000000         2.540237389384325E-105
   105.913125000000         1.367344823994206E-104
   106.126875000000         2.906056794503415E-104
   106.340625000000         4.747354358921623E-104
   106.554375000000         6.596598262526645E-104
   106.768125000000         7.947630379018906E-104
   106.981875000000         8.073992049672222E-104
   107.195625000000         6.075018069419046E-104
   107.409375000000         1.002136500672307E-104
   107.623125000000        -7.914021632861017E-104
   107.836875000000        -2.092874172632893E-103
   108.050625000000        -3.735845537648698E-103
   108.264375000000        -5.512073729032041E-103
   108.478125000000        -7.034038407620695E-103
   108.691875000000        -7.717330749269409E-103
   108.905625000000        -6.804293361814838E-103
   109.119375000000        -3.450267962074067E-103
   109.333125000000         3.108817496483069E-103
   109.546875000000         1.329819914984363E-102
   109.760625000000         2.686416150631543E-102
   109.974375000000         4.248852798264178E-102
   110.188125000000         5.743029663577632E-102
   110.401875000000         6.730725637444062E-102
   110.615625000000         6.616697235880225E-102
   110.829375000000         4.701723522676221E-102
   111.043125000000         2.975264203735988E-103
   111.256875000000        -7.086470276557804E-102
   111.470625000000        -1.748698187275885E-101
   111.684375000000        -3.018342510488199E-101
   111.898125000000        -4.339575806522444E-101
   112.111875000000        -5.406271668124359E-101
   112.325625000000        -5.780891192256808E-101
   112.539375000000        -4.922900855012110E-101
   112.753125000000        -2.261627114570224E-101
   112.966875000000         2.677151627888081E-101
   113.180625000000         1.008952667358924E-100
   113.394375000000         1.966858076676085E-100
   113.608125000000         3.036658920622108E-100
   113.821875000000         4.019660682703789E-100
   114.035625000000         4.614802919586676E-100
   114.249375000000         4.430775056479474E-100
   114.463125000000         3.028281797950262E-100
   114.676875000000         3.177393068140758E-104
   114.890625000000        -4.906446987762792E-100
   115.104375000000        -1.163448257574653E-099
   115.318125000000        -1.963988764703022E-099
   115.531875000000        -2.773112284048982E-099
   115.745625000000        -3.397059758709661E-099
   115.959375000000        -3.570124448256824E-099
   116.173125000000        -2.976638335884187E-099
   116.386875000000        -1.298410053173958E-099
   116.600625000000         1.708901602194579E-099
   116.814375000000         6.112048083571507E-099
   117.028125000000         1.167829494766015E-098
   117.241875000000         1.775443877301689E-098
   117.455625000000         2.317676195729491E-098
   117.669375000000         2.625195426781567E-098
   117.883125000000         2.485508680991561E-098
   118.096875000000         1.668907515054423E-098
   118.310625000000        -2.633252125855612E-100
   118.524375000000        -2.709258006257680E-098
   118.738125000000        -6.316374158841269E-098
   118.951875000000        -1.052707241990153E-097
   119.165625000000        -1.469192786091157E-097
   119.379375000000        -1.779838665526937E-097
   119.593125000000        -1.850335762926415E-097
   119.806875000000        -1.526296776017924E-097
   120.020625000000        -6.583667754571013E-098
   120.234375000000         8.596395363535364E-098
   120.448125000000         3.041278618044269E-097
   120.661875000000         5.752045261527896E-097
   120.875625000000         8.657720068335602E-097
   121.089375000000         1.119079368992272E-096
   121.303125000000         1.255294028621677E-096
   121.516875000000         1.177297121318731E-096
   121.730625000000         7.837373753860199E-097
   121.944375000000        -9.710060975314182E-099
   122.158125000000        -1.241339551684038E-096
   122.371875000000        -2.869192871133440E-096
   122.585625000000        -4.736748449911444E-096
   122.799375000000        -6.546466564789634E-096
   123.013125000000        -7.851617258624015E-096
   123.226875000000        -8.078204304999968E-096
   123.440625000000        -6.588173583834151E-096
   123.654375000000        -2.791522436216796E-096
   123.868125000000         3.692337191411880E-096