  -1.60312500000000         0.000000000000000E+000
  -1.38937500000000         0.000000000000000E+000
  -1.17562500000000         0.000000000000000E+000
 -0.961875000000000         0.000000000000000E+000
 -0.748125000000000         0.000000000000000E+000
 -0.534375000000000         0.000000000000000E+000
 -0.320625000000000         0.000000000000000E+000
 -0.106875000000000         0.000000000000000E+000
  0.106875000000000         0.000000000000000E+000
  0.320625000000000         0.000000000000000E+000
  0.534375000000000         0.000000000000000E+000
  0.748125000000000         0.000000000000000E+000
  0.961875000000000         0.000000000000000E+000
   1.17562500000000         0.000000000000000E+000
   1.38937500000000         0.000000000000000E+000
   1.60312500000000         0.000000000000000E+000
   1.81687500000000         0.000000000000000E+000
   2.03062500000000         0.000000000000000E+000
   2.24437500000000         0.000000000000000E+000
   2.45812500000000         0.000000000000000E+000
   2.67187500000000         0.000000000000000E+000
   2.88562500000000         0.000000000000000E+000
   3.09937500000000         0.000000000000000E+000
   3.31312500000000         0.000000000000000E+000
   3.52687500000000         0.000000000000000E+000
   3.74062500000000         0.000000000000000E+000
   3.95437500000000         0.000000000000000E+000
   4.16812500000000         0.000000000000000E+000
   4.38187500000000         0.000000000000000E+000
   4.59562500000000         0.000000000000000E+000
   4.80937500000000         0.000000000000000E+000
   5.02312500000000         0.000000000000000E+000
   5.23687500000000         0.000000000000000E+000
   5.45062500000000         0.000000000000000E+000
   5.66437500000000         0.000000000000000E+000
   5.87812500000000         0.000000000000000E+000
   6.09187500000000         0.000000000000000E+000
   6.30562500000000         0.000000000000000E+000
   6.51937500000000         0.000000000000000E+000
   6.73312500000000         0.000000000000000E+000
   6.94687500000000         0.000000000000000E+000
   7.16062500000000         0.000000000000000E+000
   7.37437500000000         0.000000000000000E+000
   7.58812500000000         0.000000000000000E+000
   7.80187500000000         0.000000000000000E+000
   8.01562500000000         0.000000000000000E+000
   8.22937500000000         0.000000000000000E+000
   8.44312500000000         0.000000000000000E+000
   8.65687500000000         0.000000000000000E+000
   8.87062500000000         0.000000000000000E+000
   9.08437500000000         0.000000000000000E+000
   9.29812500000000         0.000000000000000E+000
   9.51187500000000         0.000000000000000E+000
   9.72562500000000         0.000000000000000E+000
   9.93937500000000         0.000000000000000E+000
   10.1531250000000         0.000000000000000E+000
   10.3668750000000         0.000000000000000E+000
   10.5806250000000         0.000000000000000E+000
   10.7943750000000         0.000000000000000E+000
   11.0081250000000         0.000000000000000E+000
   11.2218750000000         0.000000000000000E+000
   11.4356250000000         0.000000000000000E+000
   11.6493750000000         0.000000000000000E+000
   11.8631250000000         0.000000000000000E+000
   12.0768750000000         0.000000000000000E+000
   12.2906250000000         0.000000000000000E+000
   12.5043750000000        -1.379531134820461E-276
   12.7181250000000         1.033902643725492E-269
   12.9318750000000        -8.157897656567794E-267
   13.1456250000000        -2.169258653111586E-263
   13.3593750000000         2.828374948250992E-245
   13.5731250000000        -1.073251757654107E-239
   13.7868750000000         2.545105720641284E-232
   14.0006250000000         4.223906257002498E-230
   14.2143750000000        -1.008905485507301E-227
   14.4281250000000         1.655376724041370E-225
   14.6418750000000         2.029656517002843E-223
   14.8556250000000         1.573621709176888E-221
   15.0693750000000         9.450655469315843E-220
   15.2831250000000         4.240807882817784E-218
   15.4968750000000         1.448484060179865E-216
   15.7106250000000         3.916765517618088E-215
   15.9243750000000         8.694947464998774E-214
   16.1381250000000         1.631179343899618E-212
   16.3518750000000         2.644486950413174E-211
   16.5656250000000         3.769573846279093E-210
   16.7793750000000         4.788609826703640E-209
   16.9931250000000         5.479019319784729E-208
   17.2068750000000         5.694074987722589E-207
   17.4206250000000         5.410797771689628E-206
   17.6343750000000         4.725880135436390E-205
   17.8481250000000         3.809009736106095E-204
   18.0618750000000         2.841016936939858E-203
   18.2756250000000         1.964203756668542E-202
   18.4893750000000         1.259210804262022E-201
   18.7031250000000         7.475315090046764E-201
   18.9168750000000         4.093928429377493E-200
   19.1306250000000         2.052237067218187E-199
   19.3443750000000         9.270061832028107E-199
   19.5581250000000         3.647186048137975E-198
   19.7718750000000         1.140977637932029E-197
   19.9856250000000         1.826579992766026E-197
   20.1993750000000        -9.781904113958784E-197
   20.4131250000000        -1.282399260644252E-195
   20.6268750000000        -9.167553742140092E-195
   20.8406250000000        -5.266106354706054E-194
   21.0543750000000        -2.648403261944443E-193
   21.2681250000000        -1.205160490980434E-192
   21.4818750000000        -5.041087885208299E-192
   21.6956250000000        -1.955128751432293E-191
   21.9093750000000        -7.070775984149949E-191
   22.1231250000000        -2.397862825981910E-190
   22.3368750000000        -7.693524149973175E-190
   22.5506250000000        -2.377009903883493E-189
   22.7643750000000        -7.310554258335210E-189
   22.9781250000000        -2.351535495392475E-188
   23.1918750000000        -8.270070953892219E-188
   23.4056250000000        -3.189499544069219E-187
   23.6193750000000        -1.294076932615694E-186
   23.8331250000000        -5.248738284037667E-186
   24.0468750000000        -2.052421021088096E-185
   24.2606250000000        -7.579260616272202E-185
   24.4743750000000        -2.610952993125069E-184
   24.6881250000000        -8.301531203926026E-184
   24.9018750000000        -2.399429398805909E-183
   25.1156250000000        -6.119439444931973E-183
   25.3293750000000        -1.277438155430555E-182
   25.5431250000000        -1.604364920999456E-182
   25.7568750000000         2.742912541514404E-182
   25.9706250000000         3.057508917089342E-181
   26.1843750000000         1.489201715988553E-180
   26.3981250000000         5.670900059826798E-180
   26.6118750000000         1.870024368228567E-179
   26.8256250000000         5.522072850332938E-179
   27.0393750000000         1.474981176278685E-178
   27.2531250000000         3.548164824049164E-178
   27.4668750000000         7.520920573449220E-178
   27.6806250000000         1.321436546759801E-177
   27.8943750000000         1.536482028825043E-177
   28.1081250000000        -8.288332807152501E-178
   28.3218750000000        -1.245388782248895E-176
   28.5356250000000        -4.937463234766883E-176
   28.7493750000000        -1.416667013829344E-175
   28.9631250000000        -3.232281693505820E-175
   29.1768750000000        -5.540875799195088E-175
   29.3906250000000        -4.254229727690515E-175
   29.6043750000000         1.715846985872027E-174
   29.8181250000000         1.097755415699080E-173
   30.0318750000000         4.076192957503772E-173
   30.2456250000000         1.217898833204410E-172
   30.4593750000000         3.153013829134843E-172
   30.6731250000000         7.229665140054229E-172
   30.8868750000000         1.464080551361028E-171
   31.1006250000000         2.539670944026650E-171
   31.3143750000000         3.407007763169042E-171
   31.5281250000000         1.950183572250967E-171
   31.7418750000000        -7.562616415225608E-171
   31.9556250000000        -3.770007259776949E-170
   32.1693750000000        -1.111279504260533E-169
   32.3831250000000        -2.590763819401455E-169
   32.5968750000000        -5.024354899633802E-169
   32.8106250000000        -7.910294973752524E-169
   33.0243750000000        -8.682251853343695E-169
   33.2381250000000        -5.272654928530489E-170
   33.4518750000000         2.934264284942529E-168
   33.6656250000000         9.555239742717287E-168
   33.8793750000000         1.895004506118120E-167
   34.0931250000000         2.000853380712005E-167
   34.3068750000000        -2.793626715849809E-167
   34.5206250000000        -2.336732402456491E-166
   34.7343750000000        -8.355805205685351E-166
   34.9481250000000        -2.265440176176589E-165
   35.1618750000000        -5.121578418471122E-165
   35.3756250000000        -9.790405074927498E-165
   35.5893750000000        -1.513462720004438E-164
   35.8031250000000        -1.517277835440283E-164
   36.0168750000000         7.837318379592942E-165
   36.2306250000000         9.539866343637014E-164
   36.4443750000000         3.289849281100282E-163
   36.6581250000000         8.415191451044059E-163
   36.8718750000000         1.795479104604075E-162
   37.0856250000000         3.259689695702874E-162
   37.2993750000000         4.852033464218536E-162
   37.5131250000000         4.933384481995524E-162
   37.7268750000000        -9.103727671047348E-163
   37.9406250000000        -2.223252564182180E-161
   38.1543750000000        -7.645086460365333E-161
   38.3681250000000        -1.897766978884069E-160
   38.5818750000000        -3.906454467522038E-160
   38.7956250000000        -6.837036512405071E-160
   39.0093750000000        -9.834906393296624E-160
   39.2231250000000        -9.782565796092668E-160
   39.4368750000000         1.045310098640450E-160
   39.6506250000000         3.826296505541938E-159
   39.8643750000000         1.284736370728300E-158
   40.0781250000000         3.086134795799581E-158
   40.2918750000000         6.133536985748816E-158
   40.5056250000000         1.035216501099040E-157
   40.7193750000000         1.433533176140367E-157
   40.9331250000000         1.363589991217729E-157
   41.1468750000000        -1.909053857936506E-158
   41.3606250000000        -5.145298132796543E-157
   41.5743750000000        -1.652830895169192E-156
   41.7881250000000        -3.813869663014840E-156
   42.0018750000000        -7.275330179866413E-156
   42.2156250000000        -1.174084252025853E-155
   42.4293750000000        -1.537808246106538E-155
   42.6431250000000        -1.319194569831646E-155
   42.8568750000000         5.219709883829492E-156
   43.0706250000000         5.784632887426102E-155
   43.2843750000000         1.703753184686606E-154
   43.4981250000000         3.699756068279165E-154
   43.7118750000000         6.654065832681774E-154
   43.9256250000000         1.003155936763740E-153
   44.1393750000000         1.189263204739274E-153
   44.3531250000000         7.749781843043618E-154
   44.5668750000000        -1.069305205264744E-153
   44.7806250000000        -5.611316060238907E-153
   44.9943750000000        -1.436912839328477E-152
   45.2081250000000        -2.837127970738604E-152
   45.4218750000000        -4.643393223326220E-152
   45.6356250000000        -6.202208237994494E-152
   45.8493750000000        -5.860802177456335E-152
   46.0631250000000        -4.492916005863402E-153
   46.2768750000000         1.497480796891603E-151
   46.4906250000000         4.644060492354335E-151
   46.7043750000000         9.828569461847027E-151
   46.9181250000000         1.667444087970397E-150
   47.1318750000000         2.285215188899799E-150
   47.3456250000000         2.245611937193680E-150
   47.5593750000000         4.355273373573667E-151
   47.7731250000000        -4.817609988187032E-150
   47.9868750000000        -1.539040032848737E-149
   48.2006250000000        -3.219099666348362E-149
   48.4143750000000        -5.264196276256297E-149
   48.6281250000000        -6.643791336372472E-149
   48.8418750000000        -4.993776664255572E-149
   49.0556250000000         3.862328130424379E-149
   49.2693750000000         2.574937446903656E-148
   49.4831250000000         6.625507878654966E-148
   49.6968750000000         1.254490037650036E-147
   49.9106250000000         1.872022744337850E-147
   50.1243750000000         2.018045581415048E-147
   50.3381250000000         6.365805128810806E-148
   50.5518750000000        -4.067536031565957E-147
   50.7656250000000        -1.453554755849721E-146
   50.9793750000000        -3.304510842773595E-146
   51.1931250000000        -5.948600920660478E-146
   51.4068750000000        -8.684762325682357E-146
   51.6206250000000        -9.373033848443950E-146
   51.8343750000000        -3.425882840383045E-146
   52.0481250000000         1.714933670849329E-145
   52.2618750000000         6.381161257877561E-145
   52.4756250000000         1.489427202445294E-144
   52.6893750000000         2.778544296862690E-144
   52.9031250000000         4.314533902004212E-144
   53.1168750000000         5.356463632164691E-144
   53.3306250000000         4.164153860503667E-144
   53.5443750000000        -2.517776796890504E-144
   53.7581250000000        -1.977949992501653E-143
   53.9718750000000        -5.408116269059826E-143
   54.1856250000000        -1.109440359266334E-142
   54.3993750000000        -1.892027890413102E-142
   54.6131250000000        -2.698980903478244E-142
   54.8268750000000        -2.983682230274820E-142
   55.0406250000000        -1.604367382725441E-142
   55.2543750000000         3.406590480362841E-142
   55.4681250000000         1.488989766677530E-141
   55.6818750000000         3.607282093918100E-141
   55.8956250000000         6.897171667932446E-141
   56.1093750000000         1.108946860271286E-140
   56.3231250000000         1.482311793200837E-140
   56.5368750000000         1.472103125599432E-140
   56.7506250000000         4.285326769077504E-141
   56.9643750000000        -2.693691681329932E-140
   57.1781250000000        -9.289788358699004E-140
   57.3918750000000        -2.074641202556193E-139
   57.6056250000000        -3.749320258006262E-139
   57.8193750000000        -5.712721588028205E-139
   58.0331250000000        -7.134000038653936E-139
   58.2468750000000        -6.173260338745035E-139
   58.4606250000000         4.521514188060366E-140
   58.6743750000000         1.765540794608675E-138
   58.8881250000000         5.140214275603730E-138
   59.1018750000000         1.065145884776951E-137
   59.3156250000000         1.817002841482295E-137
   59.5293750000000         2.606086298759416E-137
   59.7431250000000         2.983904836069902E-137
   59.9568750000000         2.053001470615294E-137
   60.1706250000000        -1.668157662479000E-137
   60.3843750000000        -1.022018232479741E-136
   60.5981250000000        -2.578409284288371E-136
   60.8118750000000        -4.952286478107217E-136
   61.0256250000000        -7.926930753919575E-136
   61.2393750000000        -1.057342448509974E-135
   61.4531250000000        -1.073338548631467E-135
   61.6668750000000        -4.474273480471984E-136
   61.8806250000000         1.418756243553615E-135
   62.0943750000000         5.272065135422833E-135
   62.3081250000000         1.177461629852787E-134
   62.5218750000000         2.097142652334484E-134
   62.7356250000000         3.133554641897357E-134
   62.9493750000000         3.833975507037604E-134
   63.1631250000000         3.271337217515040E-134
   63.3768750000000        -1.035917377193133E-135
   63.5906250000000        -8.456499239149084E-134
   63.8043750000000        -2.418928199283693E-133
   64.0181250000000        -4.886467373196825E-133
   64.2318750000000        -8.106029369670835E-133
   64.4456250000000        -1.128621029879786E-132
   64.6593750000000        -1.250825226773839E-132
   64.8731250000000        -8.214649010042678E-133
   65.0868750000000         7.088388158509026E-133
   65.3006250000000         4.044131151852164E-132
   65.5143750000000         9.860741772342328E-132
   65.7281250000000         1.838349759181026E-131
   65.9418750000000         2.862204984079792E-131
   66.1556250000000         3.722263895348914E-131
   66.3693750000000         3.704297695675879E-131
   66.5831250000000         1.585863618465668E-131
   66.7968750000000        -4.390604817627333E-131
   67.0106250000000        -1.628779955567523E-130
   67.2243750000000        -3.576331366075730E-130
   67.4381250000000        -6.261548309167593E-130
   67.6518750000000        -9.236899537286300E-130
   67.8656250000000        -1.129095340789289E-129
   68.0793750000000        -1.006943808993892E-129
   68.2931250000000        -1.798369989013804E-130
   68.5068750000000         1.861065660379053E-129
   68.7206250000000         5.662752186456158E-129
   68.9343750000000         1.157496890347116E-128
   69.1481250000000         1.931024487663077E-128
   69.3618750000000         2.726165697085344E-128
   69.5756250000000         3.161618254630085E-128
   69.7893750000000         2.545321329826594E-128
   70.0031250000000        -1.735317290971117E-129
   70.2168750000000        -6.332984438431794E-128
   70.4306250000000        -1.725290009357993E-127
   70.6443750000000        -3.355491579457784E-127
   70.8581250000000        -5.397760462732448E-127
   71.0718750000000        -7.364380775223549E-127
   71.2856250000000        -8.195113969831124E-127
   71.4993750000000        -6.064704739044679E-127
   71.7131250000000         1.675978342935018E-127
   71.9268750000000         1.823530533036070E-126
   72.1406250000000         4.652948242179017E-126
   72.3543750000000         8.744512672623802E-126
   72.5681250000000         1.369787022215144E-125
   72.7818750000000         1.822613157510011E-125
   72.9956250000000         1.970051367412583E-125
   73.2093750000000         1.377993856511653E-125
   73.4231250000000        -5.605234068695476E-126
   73.6368750000000        -4.549776864040594E-125
   73.8506250000000        -1.118407440810780E-124
   74.0643750000000        -2.055145318172866E-124
   74.2781250000000        -3.161097664117423E-124
   74.4918750000000        -4.136512684956241E-124
   74.7056250000000        -4.396374988083164E-124
   74.9193750000000        -3.005824259716546E-124
   75.1331250000000         1.303191725311040E-124
   75.3468750000000         9.951292687199991E-124
   75.5606250000000         2.406474023693512E-123
   75.7743750000000         4.366313406877712E-123
   75.9881250000000         6.643184277351455E-123
   76.2018750000000         8.615241876512065E-123
   76.4156250000000         9.108755340530982E-123
   76.6293750000000         6.295213672603304E-123
   76.8431250000000        -2.247451707702996E-123
   77.0568750000000        -1.916123226705647E-122
   77.2706250000000        -4.644772133244429E-122
   77.4843750000000        -8.396565752593830E-122
   77.6981250000000        -1.272326601207631E-121
   77.9118750000000        -1.647052042686987E-121
   78.1256250000000        -1.750998263305129E-121
   78.3393750000000        -1.258744085884432E-121
   78.5531250000000         2.534423137655759E-122
   78.7668750000000         3.239757794169627E-121
   78.9806250000000         8.036417891827332E-121
   79.1943750000000         1.461038002144336E-120
   79.4081250000000         2.220119119697445E-120
   79.6218750000000         2.888939235524916E-120
   79.8356250000000         3.118579678015373E-120
   80.0493750000000         2.381929966498841E-120
   80.2631250000000        -3.751644395608885E-124
   80.4768750000000        -4.751295470050760E-120
   80.6906250000000        -1.240774802518650E-119
   80.9043750000000        -2.294083240947098E-119
   81.1181250000000        -3.522514892074317E-119
   81.3318750000000        -4.641137833900606E-119
   81.5456250000000        -5.134183998232950E-119
   81.7593750000000        -4.226145093884444E-119
   81.9731250000000        -9.199990001712620E-120
   82.1868750000000         5.849896063635422E-119
   82.4006250000000         1.690083547207444E-118
   82.6143750000000         3.228530328940253E-118
   82.8281250000000         5.057829755951128E-118
   83.0418750000000         6.804305612988608E-118
   83.2556250000000         7.785694882661297E-118
   83.4693750000000         6.971588641742113E-118
   83.6831250000000         3.027978803114027E-118
   83.8968750000000        -5.496901052025369E-118
   84.1106250000000        -1.978735405632531E-117
   84.3243750000000        -4.013518110767294E-117
   84.5381250000000        -6.507979456770423E-117
   84.7518750000000        -9.039903647304062E-117
   84.9656250000000        -1.081538375114313E-116
   85.1793750000000        -1.061358113211563E-116
   85.3931250000000        -6.821700248281785E-117
   85.6068750000000         2.378840975831400E-117
   85.8206250000000         1.861334003298305E-116
   86.0343750000000         4.265760335600779E-116
   86.2481250000000         7.352403230166790E-116
   86.4618750000000         1.073651107436463E-115
   86.6756250000000         1.363775882311154E-115
   86.8893750000000         1.480228590506770E-115
   87.1031250000000         1.250145661614614E-115
   87.3168750000000         4.662872152701455E-116
   87.5306250000000        -1.080825300828810E-115
   87.7443750000000        -3.546991591999817E-115
   87.9581250000000        -6.952795064232248E-115
   88.1718750000000        -1.107967946270110E-114
   88.3856250000000        -1.535412562920502E-114
   88.5993750000000        -1.873940443049231E-114
   88.8131250000000        -1.966419507313148E-114
   89.0268750000000        -1.602671633576674E-114
   89.2406250000000        -5.320539064441069E-115
   89.4543750000000         1.506722546629088E-114
   89.6681250000000         4.733385635631932E-114
   89.8818750000000         9.246698664952779E-114
   90.0956250000000         1.491395238050845E-113
   90.3093750000000         2.122734836729763E-113
   90.5231250000000         2.712926288751554E-113
   90.7368750000000         3.081658418298451E-113
   90.9506250000000         2.955014337225699E-113
   91.1643750000000         1.952323155408194E-113
   91.3781250000000        -4.112131121817763E-114
   91.5918750000000        -4.689903224484828E-113
   91.8056250000000        -1.141698425181815E-112
   92.0193750000000        -2.092667296421886E-112
   92.2331250000000        -3.305412374664475E-112
   92.4468750000000        -4.668569756766316E-112
   92.6606250000000        -5.915862011605213E-112
   92.8743750000000        -6.556618811275718E-112
   93.0881250000000        -5.812215494594419E-112
   93.3018750000000        -2.587985911180174E-112
   93.5156250000000         4.472150581104844E-112
   93.7293750000000         1.678324588033868E-111
   93.9431250000000         3.539262768045545E-111
   94.1568750000000         6.025853984517345E-111
   94.3706250000000         8.920188415556409E-111
   94.5843750000000         1.165861179115515E-110
   94.7981250000000         1.319315928898724E-110
   95.0118750000000         1.188910450101887E-110
   95.2256250000000         5.528749731057208E-111
   95.4393750000000        -8.480390403013118E-111
   95.6531250000000        -3.257571374225872E-110
   95.8668750000000        -6.807520875794439E-110
   96.0806250000000        -1.137138527859898E-109
   96.2943750000000        -1.637291476678912E-109
   96.5081250000000        -2.057413362651516E-109
   96.7218750000000        -2.189606386915199E-109
   96.9356250000000        -1.736104311817521E-109
   97.1493750000000        -3.282103579588274E-110
   97.3631250000000         2.414915702019229E-109
   97.5768750000000         6.772712235251987E-109
   97.7906250000000         1.274537582773900E-108
   98.0043750000000         1.981522630586321E-108
   98.2181250000000         2.667356022742062E-108
   98.4318750000000         3.097240780219673E-108
   98.6456250000000         2.920179947721302E-108
   98.8593750000000         1.683563973758787E-108
   99.0731250000000        -1.107955372358856E-108
   99.2868750000000        -5.871807253928155E-108
   99.5006250000000        -1.275299746671145E-107
   99.7143750000000        -2.135729550968786E-107
   99.9281250000000        -3.043758784210533E-107
   100.141875000000        -3.759375836326751E-107
   100.355625000000        -3.908994889879574E-107
   100.569375000000        -2.993830242053747E-107
   100.783125000000        -4.432627596532137E-108
   100.996875000000         4.268016699963764E-107
   101.210625000000         1.142528316247936E-106
   101.424375000000         2.080068194043043E-106
   101.638125000000         3.132414249232026E-106
   101.851875000000         4.075464744074233E-106
   102.065625000000         4.545079907335400E-106
   102.279375000000         4.038448031345554E-106
   102.493125000000         1.957674784059151E-106
   102.706875000000        -2.285667809228676E-106
   102.920625000000        -9.090427540078878E-106
   103.134375000000        -1.840708212921779E-105
   103.348125000000        -2.941799988503433E-105
   103.561875000000        -4.020532018924568E-105
   103.775625000000        -4.749407063424499E-105
   103.989375000000        -4.659990027120856E-105
   104.203125000000        -3.174508743209344E-105
   104.416875000000         3.081996827467707E-106
   104.630625000000         6.257951789374053E-105
   104.844375000000         1.478464800975895E-104
   105.058125000000         2.534832576867982E-104
   105.271875000000         3.644656237559013E-104
   105.485625000000         4.535165116260959E-104
   105.699375000000         4.800670341223848E-104
   105.913125000000         3.922131032842117E-104
   106.126875000000         1.332114802999589E-104
   106.340625000000        -3.461411434454010E-104
   106.554375000000        -1.068615374188823E-103
   106.768125000000        -2.005888166292071E-103
   106.981875000000        -3.050966230696678E-103
   107.195625000000        -3.993294568503528E-103
   107.409375000000        -4.505213313367523E-103
   107.623125000000        -4.151170696070867E-103
   107.836875000000        -2.432561798882505E-103
   108.050625000000         1.120011194127387E-103
   108.264375000000         6.800259145396048E-103
   108.478125000000         1.452886226340747E-102
   108.691875000000         2.362456970937648E-102
   108.905625000000         3.258429060803959E-102
   109.119375000000         3.893699079358433E-102
   109.333125000000         3.925895727125387E-102
   109.546875000000         2.945215220394089E-102
   109.760625000000         5.383629888465397E-103
   109.974375000000        -3.604818787566276E-102
   110.188125000000        -9.542487838955784E-102
   110.401875000000        -1.690156975665915E-101
   110.615625000000        -2.469561108419864E-101
   110.829375000000        -3.118547478926384E-101
   111.043125000000        -3.384657462270662E-101
   111.256875000000        -2.951900226014265E-101
   111.470625000000        -1.481766379755807E-101
   111.684375000000         1.313922558023315E-101
   111.898125000000         5.567054396141151E-101
   112.111875000000         1.112061357362290E-100
   112.325625000000         1.738674590727602E-100
   112.539375000000         2.322598753020011E-100
   112.753125000000         2.689161467081440E-100
   112.966875000000         2.609360139667381E-100
   113.180625000000         1.823978171877461E-100
   113.394375000000         9.021911822590231E-102
   113.608125000000        -2.747107235363935E-100
   113.821875000000        -6.662767887973553E-100
   114.035625000000        -1.134679617471092E-099
   114.249375000000        -1.610784435970379E-099
   114.463125000000        -1.981299080339523E-099
   114.676875000000        -2.090099625941532E-099
   114.890625000000        -1.750987012609947E-099
   115.104375000000        -7.755597527092247E-100
   115.318125000000         9.816671077562583E-100
   115.531875000000         3.561770005385586E-099
   115.745625000000         6.828984547690384E-099
   115.959375000000         1.039866596058738E-098
   116.173125000000         1.358354452043366E-098
   116.386875000000         1.538218806846281E-098
   116.600625000000         1.453723213937460E-098
   116.814375000000         9.689961682755826E-099
   117.028125000000        -3.502070366879167E-100
   117.241875000000        -1.621999478091283E-098
   117.455625000000        -3.752636319717874E-098
   117.669375000000        -6.234339911423321E-098
   117.883125000000        -8.678764128089430E-098
   118.096875000000        -1.048190680626942E-097
   118.310625000000        -1.084446462900867E-097
   118.524375000000        -8.850525291807898E-098
   118.738125000000        -3.618942265163462E-098
   118.951875000000         5.467550934034288E-098
   119.165625000000         1.846615829772687E-097
   119.379375000000         3.454344486159209E-097
   119.593125000000         5.166955383993788E-097
   119.806875000000         6.642360301830821E-097
   120.020625000000         7.401841689090723E-097
   120.234375000000         6.866089963451099E-097
   120.448125000000         4.434941591924489E-097
   120.661875000000        -3.837647584358785E-098
   120.875625000000        -7.799394130319476E-097
   121.089375000000        -1.753352655660066E-096
   121.303125000000        -2.861624039553715E-096
   121.516875000000        -3.923202488694715E-096
   121.730625000000        -4.667838541177869E-096
   121.944375000000        -4.750807793145850E-096
   122.158125000000        -3.792140309516194E-096
   122.371875000000        -1.445249354348133E-096
   122.585625000000         2.505134700164948E-096
   122.799375000000         8.022691718217618E-096
   123.013125000000         1.469278876378153E-095
   123.226875000000         2.161517151945548E-095
   123.440625000000         2.735119472727621E-095
   123.654375000000         2.996671727584763E-095
   123.868125000000         2.721140769204898E-095