  -1.60312500000000         0.000000000000000E+000
  -1.38937500000000         0.000000000000000E+000
  -1.17562500000000         0.000000000000000E+000
 -0.961875000000000         0.000000000000000E+000
 -0.748125000000000         0.000000000000000E+000
 -0.534375000000000         0.000000000000000E+000
 -0.320625000000000         0.000000000000000E+000
 -0.106875000000000         0.000000000000000E+000
  0.106875000000000         0.000000000000000E+000
  0.320625000000000         0.000000000000000E+000
  0.534375000000000         0.000000000000000E+000
  0.748125000000000         0.000000000000000E+000
  0.961875000000000         0.000000000000000E+000
   1.17562500000000         0.000000000000000E+000
   1.38937500000000         0.000000000000000E+000
   1.60312500000000         0.000000000000000E+000
   1.81687500000000         0.000000000000000E+000
   2.03062500000000         0.000000000000000E+000
   2.24437500000000         0.000000000000000E+000
   2.45812500000000         0.000000000000000E+000
   2.67187500000000         0.000000000000000E+000
   2.88562500000000         0.000000000000000E+000
   3.09937500000000         0.000000000000000E+000
   3.31312500000000         0.000000000000000E+000
   3.52687500000000         0.000000000000000E+000
   3.74062500000000         0.000000000000000E+000
   3.95437500000000         0.000000000000000E+000
   4.16812500000000         0.000000000000000E+000
   4.38187500000000         0.000000000000000E+000
   4.59562500000000         0.000000000000000E+000
   4.80937500000000         0.000000000000000E+000
   5.02312500000000         0.000000000000000E+000
   5.23687500000000         0.000000000000000E+000
   5.45062500000000         0.000000000000000E+000
   5.66437500000000         0.000000000000000E+000
   5.87812500000000         0.000000000000000E+000
   6.09187500000000         0.000000000000000E+000
   6.30562500000000         0.000000000000000E+000
   6.51937500000000         0.000000000000000E+000
   6.73312500000000         0.000000000000000E+000
   6.94687500000000         0.000000000000000E+000
   7.16062500000000         0.000000000000000E+000
   7.37437500000000         0.000000000000000E+000
   7.58812500000000         0.000000000000000E+000
   7.80187500000000         0.000000000000000E+000
   8.01562500000000         0.000000000000000E+000
   8.22937500000000         0.000000000000000E+000
   8.44312500000000         0.000000000000000E+000
   8.65687500000000         0.000000000000000E+000
   8.87062500000000         0.000000000000000E+000
   9.08437500000000         0.000000000000000E+000
   9.29812500000000         0.000000000000000E+000
   9.51187500000000         0.000000000000000E+000
   9.72562500000000         0.000000000000000E+000
   9.93937500000000         0.000000000000000E+000
   10.1531250000000         0.000000000000000E+000
   10.3668750000000         0.000000000000000E+000
   10.5806250000000         0.000000000000000E+000
   10.7943750000000         0.000000000000000E+000
   11.0081250000000         0.000000000000000E+000
   11.2218750000000         0.000000000000000E+000
   11.4356250000000         0.000000000000000E+000
   11.6493750000000         0.000000000000000E+000
   11.8631250000000         0.000000000000000E+000
   12.0768750000000         0.000000000000000E+000
   12.2906250000000         0.000000000000000E+000
   12.5043750000000        -1.403858627666717E-274
   12.7181250000000        -1.284551939034254E-267
   12.9318750000000         2.631418412306275E-264
   13.1456250000000         2.808130248540340E-261
   13.3593750000000         4.618955474427714E-244
   13.5731250000000         1.917577856665666E-236
   13.7868750000000        -6.757908938761882E-232
   14.0006250000000        -3.622672434519449E-229
   14.2143750000000        -1.089194252320520E-227
   14.4281250000000        -4.409047551731899E-225
   14.6418750000000        -4.760646455258832E-223
   14.8556250000000        -4.343068232496794E-221
   15.0693750000000        -2.888651925875182E-219
   15.2831250000000        -1.348798583468159E-217
   15.4968750000000        -4.669893940314921E-216
   15.7106250000000        -1.267912791672287E-214
   15.9243750000000        -2.817418025230362E-213
   16.1381250000000        -5.287397740864217E-212
   16.3518750000000        -8.578493238791559E-211
   16.5656250000000        -1.224779678064665E-209
   16.7793750000000        -1.560048662432322E-208
   16.9931250000000        -1.791978058285006E-207
   17.2068750000000        -1.872260165200774E-206
   17.4206250000000        -1.791532916683190E-205
   17.6343750000000        -1.578728307117033E-204
   17.8481250000000        -1.286856933812705E-203
   18.0618750000000        -9.736364925205122E-203
   18.2756250000000        -6.855508644420146E-202
   18.4893750000000        -4.500255848782841E-201
   18.7031250000000        -2.756792114449097E-200
   18.9168750000000        -1.575972280072485E-199
   19.1306250000000        -8.398150714626536E-199
   19.3443750000000        -4.160632436210175E-198
   19.5581250000000        -1.907010978783470E-197
   19.7718750000000        -8.018016057955074E-197
   19.9856250000000        -3.046038808866837E-196
   20.1993750000000        -1.015588545118064E-195
   20.4131250000000        -2.780339633334798E-195
   20.6268750000000        -4.989218974931647E-195
   20.8406250000000         3.407267359971109E-195
   21.0543750000000         7.958252102281057E-194
   21.2681250000000         3.957677288388165E-193
   21.4818750000000         9.898455093077380E-193
   21.6956250000000        -1.848938919899673E-192
   21.9093750000000        -4.042917461551785E-191
   22.1231250000000        -3.078288564580171E-190
   22.3368750000000        -1.757073448747474E-189
   22.5506250000000        -8.492111906277263E-189
   22.7643750000000        -3.622617351407913E-188
   22.9781250000000        -1.384646206713392E-187
   23.1918750000000        -4.740398813035515E-187
   23.4056250000000        -1.428389231580987E-186
   23.6193750000000        -3.589330612530855E-186
   23.8331250000000        -6.171487619947990E-186
   24.0468750000000         2.692088024758123E-186
   24.2606250000000         8.926140937000053E-185
   24.4743750000000         5.374682675020308E-184
   24.6881250000000         2.393526849045273E-183
   24.9018750000000         9.097151584741811E-183
   25.1156250000000         3.086098176665856E-182
   25.3293750000000         9.500340462239706E-182
   25.5431250000000         2.661711243484109E-181
   25.7568750000000         6.729446838674197E-181
   25.9706250000000         1.496099946647143E-180
   26.1843750000000         2.728134868576258E-180
   26.3981250000000         3.107432685523191E-180
   26.6118750000000        -3.277693234214156E-180
   26.8256250000000        -3.565683693441415E-179
   27.0393750000000        -1.437646236817661E-178
   27.2531250000000        -4.275371089199202E-178
   27.4668750000000        -1.004786599443128E-177
   27.6806250000000        -1.698017580270485E-177
   27.8943750000000        -6.932830033006725E-178
   28.1081250000000         9.916968214503629E-177
   28.3218750000000         5.684789003585013E-176
   28.5356250000000         2.177595537121942E-175
   28.7493750000000         6.937153322513700E-175
   28.9631250000000         1.953109216031943E-174
   29.1768750000000         4.972896363085105E-174
   29.3906250000000         1.153446322943609E-173
   29.6043750000000         2.429162579807315E-173
   29.8181250000000         4.572635910092510E-173
   30.0318750000000         7.392685605677475E-173
   30.2456250000000         9.144363035190152E-173
   30.4593750000000         4.266532197838509E-173
   30.6731250000000        -1.999309416620868E-172
   30.8868750000000        -8.575192769525719E-172
   31.1006250000000        -2.167683989337296E-171
   31.3143750000000        -3.986024675059670E-171
   31.5281250000000        -4.634332636912125E-171
   31.7418750000000         1.585231409131769E-171
   31.9556250000000         2.832092788259265E-170
   32.1693750000000         1.000501713331587E-169
   32.3831250000000         2.433777441918808E-169
   32.5968750000000         4.371521891003832E-169
   32.8106250000000         4.551634305369122E-169
   33.0243750000000        -5.185905206302199E-169
   33.2381250000000        -4.662686446933694E-168
   33.4518750000000        -1.675601983524563E-167
   33.6656250000000        -4.546803689935042E-167
   33.8793750000000        -1.028310103633478E-166
   34.0931250000000        -1.967231703322545E-166
   34.3068750000000        -3.052214242009613E-166
   34.5206250000000        -3.136952672203299E-166
   34.7343750000000         1.086450482215602E-166
   34.9481250000000         1.697739759351090E-165
   35.1618750000000         5.769772272997936E-165
   35.3756250000000         1.406992599780070E-164
   35.5893750000000         2.747953330409496E-164
   35.8031250000000         4.188708646846008E-164
   36.0168750000000         3.837136598470301E-164
   36.2306250000000        -3.582013925084410E-164
   36.4443750000000        -2.968301115791504E-163
   36.6581250000000        -9.551971430559890E-163
   36.8718750000000        -2.310516245745778E-162
   37.0856250000000        -4.610023628495140E-162
   37.2993750000000        -7.561332277096812E-162
   37.5131250000000        -9.134848254228406E-162
   37.7268750000000        -3.158314331633027E-162
   37.9406250000000         2.468947942192379E-161
   38.1543750000000         1.020320701112888E-160
   38.3681250000000         2.730957168441684E-160
   38.5818750000000         5.914261391771114E-160
   38.7956250000000         1.082682412548659E-159
   39.0093750000000         1.642098697108194E-159
   39.2231250000000         1.813516822177322E-159
   39.4368750000000         3.924424165842508E-160
   39.6506250000000        -5.159069470774997E-159
   39.8643750000000        -1.933100882373404E-158
   40.0781250000000        -4.865853871084918E-158
   40.2918750000000        -9.994379517860524E-158
   40.5056250000000        -1.739930300860741E-157
   40.7193750000000        -2.506595057947364E-157
   40.9331250000000        -2.598672378952371E-157
   41.1468750000000        -3.479705804371962E-158
   41.3606250000000         7.481124788000720E-157
   41.5743750000000         2.615040678951794E-156
   41.7881250000000         6.252854064419886E-156
   42.0018750000000         1.222763666821891E-155
   42.2156250000000         2.020639946376534E-155
   42.4293750000000         2.732934895662514E-155
   42.6431250000000         2.540129154068340E-155
   42.8568750000000        -3.071506374637851E-156
   43.0706250000000        -8.890965606560090E-155
   43.2843750000000        -2.770050821671887E-154
   43.4981250000000        -6.165468565694651E-154
   43.7118750000000        -1.128110129592460E-153
   43.9256250000000        -1.729770847882754E-153
   44.1393750000000        -2.104101929346385E-153
   44.3531250000000        -1.502230382580266E-153
   44.5668750000000         1.473975878557658E-153
   44.7806250000000         8.974609414448738E-153
   44.9943750000000         2.358916685250000E-152
   45.2081250000000         4.709788558449104E-152
   45.4218750000000         7.756408764351711E-152
   45.6356250000000         1.040642755360559E-151
   45.8493750000000         9.898957388489550E-152
   46.0631250000000         9.719723540632842E-153
   46.2768750000000        -2.447113075468803E-151
   46.4906250000000        -7.601573199354361E-151
   46.7043750000000        -1.597578309826877E-150
   46.9181250000000        -2.671776633831252E-150
   47.1318750000000        -3.558667364141425E-150
   47.3456250000000        -3.232901292369513E-150
   47.5593750000000         1.710296977545086E-151
   47.7731250000000         9.326479759316861E-150
   47.9868750000000         2.692937162274932E-149
   48.2006250000000         5.341470727716549E-149
   48.4143750000000         8.230664331225653E-149
   48.6281250000000         9.272513999817067E-149
   48.8418750000000         4.012677087142318E-149
   49.0556250000000        -1.500216399861313E-148
   49.2693750000000        -5.743636081951925E-148
   49.4831250000000        -1.308660592079331E-147
   49.6968750000000        -2.298314843422006E-147
   49.9106250000000        -3.146880937574792E-147
   50.1243750000000        -2.784670597483454E-147
   50.3381250000000         9.340694795267831E-148
   50.5518750000000         1.150348357483441E-146
   50.7656250000000         3.342507218683793E-146
   50.9793750000000         7.034741918129066E-146
   51.1931250000000         1.202862413867477E-145
   51.4068750000000         1.662159186559670E-145
   51.6206250000000         1.607913120687040E-145
   51.8343750000000         6.280259285107196E-147
   52.0481250000000        -4.634026920948041E-145
   52.2618750000000        -1.480406935927036E-144
   52.4756250000000        -3.284116188263385E-144
   52.6893750000000        -5.945695164090368E-144
   52.9031250000000        -8.994083033386054E-144
   53.1168750000000        -1.076153848038431E-143
   53.3306250000000        -7.428309315009718E-144
   53.5443750000000         8.065963778375866E-144
   53.7581250000000         4.667331672946350E-143
   53.9718750000000         1.221727718303097E-142
   54.1856250000000         2.460738700107147E-142
   54.3993750000000         4.149707546622703E-142
   54.6131250000000         5.860403494787173E-142
   54.8268750000000         6.372929218263077E-142
   55.0406250000000         3.141290939859801E-142
   55.2543750000000        -8.237541140703978E-142
   55.4681250000000        -3.416769986724240E-141
   55.6818750000000        -8.203398580320796E-141
   55.8956250000000        -1.567091759142031E-140
   56.1093750000000        -2.527512604856911E-140
   56.3231250000000        -3.402891658301023E-140
   56.5368750000000        -3.435312619479147E-140
   56.7506250000000        -1.140786038250803E-140
   56.9643750000000         5.915484118543329E-140
   57.1781250000000         2.107807051150889E-139
   57.3918750000000         4.787620201142578E-139
   57.6056250000000         8.795912129915088E-139
   57.8193750000000         1.368452045485284E-138
   58.0331250000000         1.766942741595869E-138
   58.2468750000000         1.659814892168577E-138
   58.4606250000000         2.778590924772278E-139
   58.6743750000000        -3.579126199660224E-138
   58.8881250000000        -1.146439549556132E-137
   59.1018750000000        -2.485221818969225E-137
   59.3156250000000        -4.406221508821727E-137
   59.5293750000000        -6.620194832916583E-137
   59.7431250000000        -8.187918840109147E-137
   59.9568750000000        -7.082179522855380E-137
   60.1706250000000         2.555474359305982E-138
   60.3843750000000         1.909502192099214E-136
   60.5981250000000         5.581345709988690E-136
   60.8118750000000         1.156720872799831E-135
   61.0256250000000         1.978541271748194E-135
   61.2393750000000         2.866167929452115E-135
   61.4531250000000         3.380358662956725E-135
   61.6668750000000         2.637001985604175E-135
   61.8806250000000        -8.342180004342171E-136
   62.0943750000000        -9.092463975283882E-135
   62.3081250000000        -2.444197607072672E-134
   62.5218750000000        -4.843306687575915E-134
   62.7356250000000        -7.983196185565762E-134
   62.9493750000000        -1.112388966166795E-133
   63.1631250000000        -1.243555898214641E-133
   63.3768750000000        -8.468642427793609E-134
   63.5906250000000         6.209122093347190E-134
   63.8043750000000         3.876176115442435E-133
   64.0181250000000         9.648829840903928E-133
   64.2318750000000         1.828769251598018E-132
   64.4456250000000         2.902209980038234E-132
   64.6593750000000         3.881125010872413E-132
   64.8731250000000         4.084752481012936E-132
   65.0868750000000         2.306347962826035E-132
   65.3006250000000        -3.252865358356592E-132
   65.5143750000000        -1.481583156430862E-131
   65.7281250000000        -3.439970541564014E-131
   65.9418750000000        -6.243735964194146E-131
   66.1556250000000        -9.538206886849755E-131
   66.3693750000000        -1.222135771166940E-130
   66.5831250000000        -1.202417481847525E-130
   66.7968750000000        -5.150330124910933E-131
   67.0106250000000         1.375557275290244E-130
   67.2243750000000         5.086100324934726E-130
   67.4381250000000         1.109886837913127E-129
   67.6518750000000         1.933321229775846E-129
   67.8656250000000         2.844988042351372E-129
   68.0793750000000         3.490119497143186E-129
   68.2931250000000         3.188720575238114E-129
   68.5068750000000         8.629932657164551E-130
   68.7206250000000        -4.926101420193277E-129
   68.9343750000000        -1.571333536846276E-128
   69.1481250000000        -3.247950439075685E-128
   69.3618750000000        -5.446024842589985E-128
   69.5756250000000        -7.732972914819631E-128
   69.7893750000000        -9.088101928139169E-128
   70.0031250000000        -7.672238032762611E-128
   70.2168750000000        -7.136163815580319E-129
   70.4306250000000         1.529224491677232E-127
   70.6443750000000         4.378343779858135E-127
   70.8581250000000         8.639284209031095E-127
   71.0718750000000         1.399709962083729E-126
   71.2856250000000         1.923059694834600E-126
   71.4993750000000         2.170164962180268E-126
   71.7131250000000         1.690469790882797E-126
   71.9268750000000        -1.641090435726799E-127
   72.1406250000000        -4.170426509162487E-126
   72.3543750000000        -1.102482040458729E-125
   72.5681250000000        -2.092663517874449E-125
   72.7818750000000        -3.290637933735425E-125
   72.9956250000000        -4.391188798785252E-125
   73.2093750000000        -4.779113027602188E-125
   73.4231250000000        -3.451418496108899E-125
   73.6368750000000         9.744499272516312E-126
   73.8506250000000         1.007307990903170E-124
   74.0643750000000         2.512673213552517E-124
   74.2781250000000         4.622763666916962E-124
   74.4918750000000         7.090387794674005E-124
   74.7056250000000         9.234531285233952E-124
   74.9193750000000         9.756385519879875E-124
   75.1331250000000         6.621430796290126E-124
   75.3468750000000        -2.869788583086992E-124
   75.5606250000000        -2.164863394852495E-123
   75.7743750000000        -5.187846626061457E-123
   75.9881250000000        -9.320617281366610E-123
   76.2018750000000        -1.402072228396678E-122
   76.4156250000000        -1.792440771512526E-122
   76.6293750000000        -1.854329031788958E-122
   76.8431250000000        -1.210919977193180E-122
   77.0568750000000         6.214503322819651E-123
   77.2706250000000         4.146266754404684E-122
   77.4843750000000         9.701654770608499E-122
   77.6981250000000         1.715183620273075E-121
   77.9118750000000         2.545435457259504E-121
   78.1256250000000         3.215126858331653E-121
   78.3393750000000         3.291114479211729E-121
   78.5531250000000         2.135469687564781E-121
   78.7668750000000        -1.048483682009031E-121
   78.9806250000000        -7.061964927988436E-121
   79.1943750000000        -1.640224638200382E-120
   79.4081250000000        -2.876888380373396E-120
   79.6218750000000        -4.239530648784194E-120
   79.8356250000000        -5.329369194774802E-120
   80.0493750000000        -5.461805747501297E-120
   80.2631250000000        -3.649996811497200E-120
   80.4768750000000         1.313308307458304E-120
   80.6906250000000         1.061374784469514E-119
   80.9043750000000         2.495333233818528E-119
   81.1181250000000         4.383482145830529E-119
   81.3318750000000         6.462135941340334E-119
   81.5456250000000         8.150873300397671E-119
   81.7593750000000         8.470372610520206E-119
   81.9731250000000         6.029149549287739E-119
   82.1868750000000        -8.541079740658973E-120
   82.4006250000000        -1.381509783759356E-118
   82.6143750000000        -3.382503069521971E-118
   82.8281250000000        -6.025612962916302E-118
   83.0418750000000        -8.968141799070150E-118
   83.2556250000000        -1.145934720271169E-117
   83.4693750000000        -1.224118903678533E-117
   83.6831250000000        -9.536309815136023E-118
   83.8968750000000        -1.200987969516175E-118
   84.1106250000000         1.486998223319966E-117
   84.3243750000000         4.001173837517226E-117
   84.5381250000000         7.370303987827846E-117
   84.7518750000000         1.121900753122125E-116
   84.9656250000000         1.470303855655058E-116
   85.1793750000000         1.639576456977028E-116
   85.3931250000000         1.426783675612913E-116
   85.6068750000000         5.839001570569483E-117
   85.8206250000000        -1.141222542501054E-116
   86.0343750000000        -3.930967583430113E-116
   86.2481250000000        -7.788625418852167E-116
   86.4618750000000        -1.239973923592785E-115
   86.6756250000000        -1.698307548072610E-115
   86.8893750000000        -2.016631481945003E-115
   87.1031250000000        -1.993857609682072E-115
   87.3168750000000        -1.374562883592118E-115
   87.5306250000000         1.201532207625234E-116
   87.7443750000000         2.734453356964218E-115
   87.9581250000000         6.589300168673767E-115
   88.1718750000000         1.156636765036345E-114
   88.3856250000000         1.717465042735006E-114
   88.5993750000000         2.241921321119801E-114
   88.8131250000000         2.570071377671773E-114
   89.0268750000000         2.478199812944933E-114
   89.2406250000000         1.686294117651515E-114
   89.4543750000000        -1.193351250758311E-115
   89.6681250000000        -3.243917718856909E-114
   89.8818750000000        -7.917891853151684E-114
   90.0956250000000        -1.420075240737960E-113
   90.3093750000000        -2.184772937120490E-113
   90.5231250000000        -3.013018152180047E-113
   90.7368750000000        -3.760121554316712E-113
   90.9506250000000        -4.180599402815634E-113
   91.1643750000000        -3.895934620537660E-113
   91.3781250000000        -2.366179101680010E-113
   91.5918750000000         1.119123660173649E-113
   91.8056250000000         7.402916233011195E-113
   92.0193750000000         1.733252058491182E-112
   92.2331250000000         3.148397717585627E-112
   92.4468750000000         4.967504610822756E-112
   92.6606250000000         7.021706920563442E-112
   92.8743750000000         8.890669115251260E-112
   93.0881250000000         9.786457264062607E-112
   93.3018750000000         8.450461007279029E-112
   93.5156250000000         3.116545386942560E-112
   93.7293750000000        -8.376905613265375E-112
   93.9431250000000        -2.821611741650768E-111
   94.1568750000000        -5.785990677841569E-111
   94.3706250000000        -9.680587957165993E-111
   94.5843750000000        -1.408544322686639E-110
   94.7981250000000        -1.800144801220117E-110
   95.0118750000000        -1.964614648925472E-110
   95.2256250000000        -1.633245759903816E-110
   95.4393750000000        -4.550528733774490E-111
   95.6531250000000         1.958855731310585E-110
   95.8668750000000         5.937124698125626E-110
   96.0806250000000         1.158151451980991E-109
   96.2943750000000         1.852765953537226E-109
   96.5081250000000         2.565040514698635E-109
   96.7218750000000         3.076490083206596E-109
   96.9356250000000         3.042059149076307E-109
   97.1493750000000         1.993779572651162E-109
   97.3631250000000        -6.116469265685766E-110
   97.5768750000000        -5.279579319455627E-109
   97.7906250000000        -1.228009227373677E-108
   98.0043750000000        -2.136042767404606E-108
   98.2181250000000        -3.138554193691862E-108
   98.4318750000000        -3.996359514429425E-108
   98.6456250000000        -4.316481598843672E-108
   98.8593750000000        -3.550062678269626E-108
   99.0731250000000        -1.038189685630239E-108
   99.2868750000000         3.870111840649667E-108
   99.5006250000000         1.160692088082901E-107
   99.7143750000000         2.207349843020446E-107
   99.9281250000000         3.424479612684753E-107
   100.141875000000         4.574764767555889E-107
   100.355625000000         5.252294606929342E-107
   100.569375000000         4.874201327187439E-107
   100.783125000000         2.720080869400259E-107
   100.996875000000        -1.955883177728757E-107
   101.210625000000        -9.718311605633984E-107
   101.424375000000        -2.063992791386883E-106
   101.638125000000        -3.390143961249402E-106
   101.851875000000        -4.735477338720605E-106
   102.065625000000        -5.715310484943232E-106
   102.279375000000        -5.760843834929112E-106
   102.493125000000        -4.148917701366827E-106
   102.706875000000        -9.966256780685003E-108
   102.920625000000         7.036556980766917E-106
   103.134375000000         1.749214181142641E-105
   103.348125000000         3.070597232542532E-105
   103.561875000000         4.490255784652141E-105
   103.775625000000         5.671667172687343E-105
   103.989375000000         6.100513801740764E-105
   104.203125000000         5.103481323226822E-105
   104.416875000000         1.926224456409125E-105
   104.630625000000        -4.109637661840095E-105
   104.844375000000        -1.335920166709064E-104
   105.058125000000        -2.552313911443271E-104
   105.271875000000        -3.926760849948045E-104
   105.485625000000        -5.186829294954540E-104
   105.699375000000        -5.899562317618315E-104
   105.913125000000        -5.479958432540205E-104
   106.126875000000        -3.247776781769850E-104
   106.340625000000         1.449850131921986E-104
   106.554375000000         9.038869564935523E-104
   106.768125000000         1.944445687568997E-103
   106.981875000000         3.176780447629355E-103
   107.195625000000         4.396893794975913E-103
   107.409375000000         5.264654719523352E-103
   107.623125000000         5.304023682091717E-103
   107.836875000000         3.940363009178584E-103
   108.050625000000         5.894617316923514E-104
   108.264375000000        -5.191422585852595E-103
   108.478125000000        -1.349015889597775E-102
   108.691875000000        -2.378019418557352E-102
   108.905625000000        -3.465408615727344E-102
   109.119375000000        -4.361677552583497E-102
   109.333125000000        -4.703263036876544E-102
   109.546875000000        -4.034026641515841E-102
   109.760625000000        -1.865166672118714E-102
   109.974375000000         2.217460223444844E-102
   110.188125000000         8.396376360581890E-102
   110.401875000000         1.642527210521267E-101
   110.615625000000         2.541745938321064E-101
   110.829375000000         3.366606376040901E-101
   111.043125000000         3.856284308260260E-101
   111.256875000000         3.669896826500356E-101
   111.470625000000         2.423619117618526E-101
   111.684375000000        -2.377806102482656E-102
   111.898125000000        -4.531884053713101E-101
   112.111875000000        -1.039665711642613E-100
   112.325625000000        -1.733147721718480E-100
   112.539375000000        -2.425120352641476E-100
   112.753125000000        -2.939847369733368E-100
   112.966875000000        -3.037226733061733E-100
   113.180625000000        -2.433670422526851E-100
   113.394375000000        -8.467353968562661E-101
   113.608125000000         1.933288206750646E-100
   113.821875000000         5.946474508715945E-100
   114.035625000000         1.095003514921145E-099
   114.249375000000         1.630724759995212E-099
   114.463125000000         2.090754237342533E-099
   114.676875000000         2.315629358896230E-099
   114.890625000000         2.107845005979402E-099
   115.104375000000         1.257806825733814E-099
   115.318125000000        -4.117927247796511E-100
   115.531875000000        -2.983225258824148E-099
   115.745625000000        -6.367213077179610E-099
   115.959375000000        -1.022334746586957E-098
   116.173125000000        -1.389513721508881E-098
   116.386875000000        -1.638411189472352E-098
   116.600625000000        -1.639204286899001E-098
   116.814375000000        -1.246055678702794E-098
   117.028125000000        -3.230606317519046E-099
   117.241875000000         1.217192965000334E-098
   117.455625000000         3.364523516573943E-098
   117.669375000000         5.957323331082621E-098
   117.883125000000         8.634264222845004E-098
   118.096875000000         1.080631991994104E-097
   118.310625000000         1.166738087157458E-097
   118.524375000000         1.026280574681847E-097
   118.738125000000         5.632271858464431E-098
   118.951875000000        -2.965299305103215E-098
   119.165625000000        -1.575222520997549E-097
   119.379375000000        -3.208743148002923E-097
   119.593125000000        -5.013338699291982E-097
   119.806875000000        -6.662007642146555E-097
   120.020625000000        -7.681586262633877E-097
   120.234375000000        -7.482680950637937E-097
   120.448125000000        -5.433532932016014E-097
   120.661875000000        -9.846124049586075E-098
   120.875625000000         6.157512201800667E-097
   121.089375000000         1.582090224142926E-096
   121.303125000000         2.715335717423099E-096
   121.516875000000         3.844921931807345E-096
   121.730625000000         4.708107880191060E-096
   121.944375000000         4.960918186452396E-096
   122.158125000000         4.213900139229644E-096
   122.371875000000         2.097727163077392E-096
   122.585625000000        -1.640598604662433E-096
   122.799375000000        -7.016934668450444E-096
   123.013125000000        -1.367950574734439E-095
   123.226875000000        -2.079386189733432E-095
   123.440625000000        -2.697816375961749E-095
   123.654375000000        -3.033043215154478E-095
   123.868125000000        -2.859001596130016E-095