  -1.60312500000000         0.000000000000000E+000
  -1.38937500000000        -2.186262702716944E-012
  -1.17562500000000        -1.526795149627020E-011
 -0.961875000000000        -7.297091584707971E-011
 -0.748125000000000        -2.812612318111747E-010
 -0.534375000000000        -9.102778301943799E-010
 -0.320625000000000        -2.517772263039015E-009
 -0.106875000000000        -6.036693264112307E-009
  0.106875000000000        -1.272778569837316E-008
  0.320625000000000        -2.395214987552485E-008
  0.534375000000000        -4.086747853775555E-008
  0.748125000000000        -6.419394914314994E-008
  0.961875000000000        -9.411872461153386E-008
   1.17562500000000        -1.303963932383850E-007
   1.38937500000000        -1.724688419762514E-007
   1.60312500000000        -2.194497087001987E-007
   1.81687500000000        -2.702482295131299E-007
   2.03062500000000        -3.236099757027176E-007
   2.24437500000000        -3.769181298539585E-007
   2.45812500000000        -4.318044395897005E-007
   2.67187500000000        -4.832120542010552E-007
   2.88562500000000        -5.346781790247862E-007
   3.09937500000000        -5.819024225758960E-007
   3.31312500000000        -6.241525475790532E-007
   3.52687500000000        -6.608705155207307E-007
   3.74062500000000        -6.914239988813819E-007
   3.95437500000000        -7.154437554353428E-007
   4.16812500000000        -7.327802255343958E-007
   4.38187500000000        -7.426217294196898E-007
   4.59562500000000        -7.455980925049652E-007
   4.80937500000000        -7.414307030559592E-007
   5.02312500000000        -7.317205973569100E-007
   5.23687500000000        -7.167224264141166E-007
   5.45062500000000        -6.977824691296771E-007
   5.66437500000000        -6.764642304742828E-007
   5.87812500000000        -6.547024071060122E-007
   6.09187500000000        -6.346156601809397E-007
   6.30562500000000        -6.181728847986019E-007
   6.51937500000000        -6.080539134401187E-007
   6.73312500000000        -6.072725611504735E-007
   6.94687500000000        -6.130354235261906E-007
   7.16062500000000        -6.308784581689968E-007
   7.37437500000000        -6.592492891572292E-007
   7.58812500000000        -6.967322656396069E-007
   7.80187500000000        -7.411511171965826E-007
   8.01562500000000        -7.894445704669531E-007
   8.22937500000000        -8.379286755784603E-007
   8.44312500000000        -8.826273145749444E-007
   8.65687500000000        -9.196105306808497E-007
   8.87062500000000        -9.452982601461987E-007
   9.08437500000000        -9.568009250592520E-007
   9.29812500000000        -9.525994869187074E-007
   9.51187500000000        -9.317421840594253E-007
   9.72562500000000        -8.946760982403246E-007
   9.93937500000000        -8.438626531721739E-007
   10.1531250000000        -7.819842345200704E-007
   10.3668750000000        -7.127010295993849E-007
   10.5806250000000        -6.399277859398153E-007
   10.7943750000000        -5.676099732845818E-007
   11.0081250000000        -4.994606200843713E-007
   11.2218750000000        -4.422652968708928E-007
   11.4356250000000        -3.891497613636740E-007
   11.6493750000000        -3.533479314887827E-007
   11.8631250000000        -3.203655262827654E-007
   12.0768750000000        -3.070060216621870E-007
   12.2906250000000        -2.943439075504198E-007
   12.5043750000000        -2.972619515243093E-007
   12.7181250000000        -2.989491213066375E-007
   12.9318750000000        -3.100704168219893E-007
   13.1456250000000        -3.200843218423497E-007
   13.3593750000000        -3.340290458463286E-007
   13.5731250000000        -3.484118513068026E-007
   13.7868750000000        -3.629773724942285E-007
   14.0006250000000        -3.769883821540907E-007
   14.2143750000000        -3.898116925520240E-007
   14.4281250000000        -4.010317847892463E-007
   14.6418750000000        -4.104157278845097E-007
   14.8556250000000        -4.178328267923009E-007
   15.0693750000000        -4.230401387179242E-007
   15.2831250000000        -4.259163849658024E-007
   15.4968750000000        -4.258503002999050E-007
   15.7106250000000        -4.236364778046494E-007
   15.9243750000000        -4.187780346841957E-007
   16.1381250000000        -4.110275143376457E-007
   16.3518750000000        -4.006750957475711E-007
   16.5656250000000        -3.879899049169879E-007
   16.7793750000000        -3.730362333085338E-007
   16.9931250000000        -3.559967451504182E-007
   17.2068750000000        -3.372734006728695E-007
   17.4206250000000        -3.150687149384546E-007
   17.6343750000000        -2.912743893468919E-007
   17.8481250000000        -2.739794909168631E-007
   18.0618750000000        -2.516323722022959E-007
   18.2756250000000        -2.389471004370838E-007
   18.4893750000000        -2.198255951841500E-007
   18.7031250000000        -2.065101712750682E-007
   18.9168750000000        -1.897369514119966E-007
   19.1306250000000        -1.735384958196916E-007
   19.3443750000000        -1.557002172688351E-007
   19.5581250000000        -1.362766950314859E-007
   19.7718750000000        -1.160184484262312E-007
   19.9856250000000        -9.597018927220559E-008
   20.1993750000000        -7.742015046772217E-008
   20.4131250000000        -6.190471091363334E-008
   20.6268750000000        -5.114963136924515E-008
   20.8406250000000        -4.710860926240299E-008
   21.0543750000000        -5.076747859687817E-008
   21.2681250000000        -6.275029102821886E-008
   21.4818750000000        -8.339867076313431E-008
   21.6956250000000        -1.135078359214719E-007
   21.9093750000000        -1.520712699747141E-007
   22.1231250000000        -1.975822737667671E-007
   22.3368750000000        -2.480613993275101E-007
   22.5506250000000        -3.012041293056072E-007
   22.7643750000000        -3.545065194974524E-007
   22.9781250000000        -4.054789651175384E-007
   23.1918750000000        -4.520550373715953E-007
   23.4056250000000        -4.927483750427082E-007
   23.6193750000000        -5.268854591734790E-007
   23.8331250000000        -5.544119167598469E-007
   24.0468750000000        -5.755051147521010E-007
   24.2606250000000        -5.909915332232045E-007
   24.4743750000000        -6.015285613989094E-007
   24.6881250000000        -6.079477954579846E-007
   24.9018750000000        -6.110801528035515E-007
   25.1156250000000        -6.114682937925341E-007
   25.3293750000000        -6.099622949166704E-007
   25.5431250000000        -6.055210035148795E-007
   25.7568750000000        -5.996275329725883E-007
   25.9706250000000        -5.938209638080755E-007
   26.1843750000000        -5.902238419272400E-007
   26.3981250000000        -5.754919541064992E-007
   26.6118750000000        -5.674170018143111E-007
   26.8256250000000        -5.468067946502950E-007
   27.0393750000000        -5.332998769323768E-007
   27.2531250000000        -5.096650200561852E-007
   27.4668750000000        -4.883200797877932E-007
   27.6806250000000        -4.679573601448414E-007
   27.8943750000000        -4.488490244569558E-007
   28.1081250000000        -4.307811630806996E-007
   28.3218750000000        -4.150972905984143E-007
   28.5356250000000        -4.011250723346235E-007
   28.7493750000000        -3.881972727381094E-007
   28.9631250000000        -3.754490853644172E-007
   29.1768750000000        -3.622260668618289E-007
   29.3906250000000        -3.473844559470033E-007
   29.6043750000000        -3.301969173635957E-007
   29.8181250000000        -3.104158693596772E-007
   30.0318750000000        -2.876632760674945E-007
   30.2456250000000        -2.609365621435385E-007
   30.4593750000000        -2.312290388967608E-007
   30.6731250000000        -1.986405724919827E-007
   30.8868750000000        -1.636717562753347E-007
   31.1006250000000        -1.270630458311372E-007
   31.3143750000000        -8.952773508686331E-008
   31.5281250000000        -5.177571139943162E-008
   31.7418750000000        -1.434461089918928E-008
   31.9556250000000         2.234383785983503E-008
   32.1693750000000         5.805351105623161E-008
   32.3831250000000         9.268825872301961E-008
   32.5968750000000         1.262148003641075E-007
   32.8106250000000         1.585775551434937E-007
   33.0243750000000         1.897788033320541E-007
   33.2381250000000         2.195183367031052E-007
   33.4518750000000         2.472982162224398E-007
   33.6656250000000         2.723528358261537E-007
   33.8793750000000         2.936751270506314E-007
   34.0931250000000         3.101184989309081E-007
   34.3068750000000         3.203585999573687E-007
   34.5206250000000         3.230557721723934E-007
   34.7343750000000         3.177140302419134E-007
   34.9481250000000         3.034110255007621E-007
   35.1618750000000         2.798665332093503E-007
   35.3756250000000         2.474608604466428E-007
   35.5893750000000         2.069651452728125E-007
   35.8031250000000         1.600273012352628E-007
   36.0168750000000         1.088526851756983E-007
   36.2306250000000         5.605198731624989E-008
   36.4443750000000         4.431137833258904E-009
   36.6581250000000        -4.336852535847317E-008
   36.8718750000000        -8.758672644071059E-008
   37.0856250000000        -1.177924199443009E-007
   37.2993750000000        -1.397133123410560E-007
   37.5131250000000        -1.473260859646003E-007
   37.7268750000000        -1.518930890828172E-007
   37.9406250000000        -1.350411944899418E-007
   38.1543750000000        -1.142648805006967E-007
   38.3681250000000        -8.624576266118426E-008
   38.5818750000000        -5.390185668406064E-008
   38.7956250000000        -1.970025053321379E-008
   39.0093750000000         1.397217695374230E-008
   39.2231250000000         4.518772656219782E-008
   39.4368750000000         7.222141526828897E-008
   39.6506250000000         9.732603985442251E-008
   39.8643750000000         1.111682912981953E-007
   40.0781250000000         1.163017317205557E-007
   40.2918750000000         1.120698590079789E-007
   40.5056250000000         9.794185728846833E-008
   40.7193750000000         7.445298824344730E-008
   40.9331250000000         3.830804821473242E-008
   41.1468750000000         3.797858275205738E-009
   41.3606250000000        -4.384814051169621E-008
   41.5743750000000        -9.241558974048861E-008
   41.7881250000000        -1.410396290233235E-007
   42.0018750000000        -1.879126069780323E-007
   42.2156250000000        -2.309816930768942E-007
   42.4293750000000        -2.681430913243037E-007
   42.6431250000000        -2.975413502627939E-007
   42.8568750000000        -3.202237043263329E-007
   43.0706250000000        -3.231318063560782E-007
   43.2843750000000        -3.190516819346505E-007
   43.4981250000000        -2.927047824583669E-007
   43.7118750000000        -2.542603351294881E-007
   43.9256250000000        -2.024176415891700E-007
   44.1393750000000        -1.379055471692445E-007
   44.3531250000000        -6.220112851192579E-008
   44.5668750000000         2.273267642986495E-008
   44.7806250000000         1.145613175964951E-007
   44.9943750000000         2.106736411617027E-007
   45.2081250000000         3.083373368710003E-007
   45.4218750000000         4.047984975855549E-007
   45.6356250000000         4.973863299307075E-007
   45.8493750000000         5.835951414192838E-007
   46.0631250000000         6.611799109373958E-007
   46.2768750000000         7.281569228303032E-007
   46.4906250000000         7.829536178962868E-007
   46.7043750000000         8.244496363162553E-007
   46.9181250000000         8.521201416894884E-007
   47.1318750000000         8.659191390793478E-007
   47.3456250000000         8.645713529414359E-007
   47.5593750000000         8.461675420827521E-007
   47.7731250000000         8.174016470406997E-007
   47.9868750000000         7.752691305478614E-007
   48.2006250000000         7.273638170602004E-007
   48.4143750000000         6.682058588079285E-007
   48.6281250000000         6.070108290849452E-007
   48.8418750000000         5.434911519875503E-007
   49.0556250000000         4.822503833395539E-007
   49.2693750000000         4.223046247186191E-007
   49.4831250000000         3.670623178285320E-007
   49.6968750000000         3.184183167235248E-007
   49.9106250000000         2.781756403533342E-007
   50.1243750000000         2.474035025908219E-007
   50.3381250000000         2.270414358254635E-007
   50.5518750000000         2.178779938007873E-007
   50.7656250000000         2.253847264820454E-007
   50.9793750000000         2.341725309805099E-007
   51.1931250000000         2.600315437104182E-007
   51.4068750000000         2.845501717816224E-007
   51.6206250000000         3.211659636443056E-007
   51.8343750000000         3.545339070317247E-007
   52.0481250000000         3.939759389207553E-007
   52.2618750000000         4.271470505295873E-007
   52.4756250000000         4.599650553162606E-007
   52.6893750000000         4.876933355141477E-007
   52.9031250000000         5.090308470273346E-007
   53.1168750000000         5.253447622075515E-007
   53.3306250000000         5.350502318492889E-007
   53.5443750000000         5.395561699042459E-007
   53.7581250000000         5.400487419332268E-007
   53.9718750000000         5.371690903859253E-007
   54.1856250000000         5.319796821143651E-007
   54.3993750000000         5.256764778135258E-007
   54.6131250000000         5.193394149120119E-007
   54.8268750000000         5.138667072474395E-007
   55.0406250000000         5.099219940142912E-007
   55.2543750000000         5.079011141516556E-007
   55.4681250000000         5.080135167905090E-007
   55.6818750000000         5.103021904654799E-007
   55.8956250000000         5.147237152202255E-007
   56.1093750000000         5.213167615887743E-007
   56.3231250000000         5.303999650723809E-007
   56.5368750000000         5.420563526160018E-007
   56.7506250000000         5.546545841155311E-007
   56.9643750000000         5.723363552173998E-007
   57.1781250000000         5.936158331560934E-007
   57.3918750000000         6.199131054330928E-007
   57.6056250000000         6.514867396640678E-007
   57.8193750000000         6.881228463900755E-007
   58.0331250000000         7.298543561841365E-007
   58.2468750000000         7.757117552529830E-007
   58.4606250000000         8.245999642432100E-007
   58.6743750000000         8.749276469628149E-007
   58.8881250000000         9.206905206172174E-007
   59.1018750000000         9.703442463221277E-007
   59.3156250000000         1.008317216384659E-006
   59.5293750000000         1.046446628657845E-006
   59.7431250000000         1.078111142345182E-006
   59.9568750000000         1.104125638550662E-006
   60.1706250000000         1.124528344918886E-006
   60.3843750000000         1.139685480636914E-006
   60.5981250000000         1.150528335347787E-006
   60.8118750000000         1.158103361203785E-006
   61.0256250000000         1.166160559313670E-006
   61.2393750000000         1.164423997615781E-006
   61.4531250000000         1.168759653576470E-006
   61.6668750000000         1.166104525321026E-006
   61.8806250000000         1.161059848009619E-006
   62.0943750000000         1.152350648721495E-006
   62.3081250000000         1.140097071923831E-006
   62.5218750000000         1.125286044373040E-006
   62.7356250000000         1.106516078947752E-006
   62.9493750000000         1.088132925464219E-006
   63.1631250000000         1.056376533936864E-006
   63.3768750000000         1.026652301087658E-006
   63.5906250000000         9.852133005076456E-007
   63.8043750000000         9.426593114360683E-007
   64.0181250000000         9.029309396412472E-007
   64.2318750000000         8.545991870483804E-007
   64.4456250000000         8.091808421303247E-007
   64.6593750000000         7.677064051603946E-007
   64.8731250000000         7.320807583823393E-007
   65.0868750000000         7.046262182218947E-007
   65.3006250000000         6.874178422446906E-007
   65.5143750000000         6.822219372137431E-007
   65.7281250000000         6.904239355635150E-007
   65.9418750000000         7.127826463285936E-007
   66.1556250000000         7.499127689107597E-007
   66.3693750000000         7.993626590663975E-007
   66.5831250000000         8.603474363267720E-007
   66.7968750000000         9.298616898217044E-007
   67.0106250000000         1.004676731725807E-006
   67.2243750000000         1.081132088584198E-006
   67.4381250000000         1.155549777725370E-006
   67.6518750000000         1.227354696679282E-006
   67.8656250000000         1.284906348788811E-006
   68.0793750000000         1.336446435615207E-006
   68.2931250000000         1.369579786083679E-006
   68.5068750000000         1.391784637930583E-006
   68.7206250000000         1.396730824056044E-006
   68.9343750000000         1.392348240109543E-006
   69.1481250000000         1.378822726660041E-006
   69.3618750000000         1.358373376070798E-006
   69.5756250000000         1.333386783393194E-006
   69.7893750000000         1.306142750346113E-006
   70.0031250000000         1.278551739607457E-006
   70.2168750000000         1.252202617627924E-006
   70.4306250000000         1.228280224866452E-006
   70.6443750000000         1.208285391545386E-006
   70.8581250000000         1.191995638052133E-006
   71.0718750000000         1.180230360103375E-006
   71.2856250000000         1.176281688486105E-006
   71.4993750000000         1.172728831927103E-006
   71.7131250000000         1.188332215135538E-006
   71.9268750000000         1.207505092994576E-006
   72.1406250000000         1.246870437761340E-006
   72.3543750000000         1.293069693022397E-006
   72.5681250000000         1.361431994548146E-006
   72.7818750000000         1.442367215109842E-006
   72.9956250000000         1.532833208255250E-006
   73.2093750000000         1.636382419915005E-006
   73.4231250000000         1.745849247565102E-006
   73.6368750000000         1.855743462571969E-006
   73.8506250000000         1.960694133903069E-006
   74.0643750000000         2.055193548010829E-006
   74.2781250000000         2.134152060156854E-006
   74.4918750000000         2.193527762743894E-006
   74.7056250000000         2.230794794149527E-006
   74.9193750000000         2.246146035480653E-006
   75.1331250000000         2.235201999128422E-006
   75.3468750000000         2.202216213131380E-006
   75.5606250000000         2.156519499447082E-006
   75.7743750000000         2.093731893847082E-006
   75.9881250000000         2.026270033600139E-006
   76.2018750000000         1.955805716040368E-006
   76.4156250000000         1.887632076083700E-006
   76.6293750000000         1.822033587135068E-006
   76.8431250000000         1.761807854071838E-006
   77.0568750000000         1.707769514872358E-006
   77.2706250000000         1.660021786157483E-006
   77.4843750000000         1.618306574450845E-006
   77.6981250000000         1.588241730701498E-006
   77.9118750000000         1.552542469333628E-006
   78.1256250000000         1.530164436648402E-006
   78.3393750000000         1.499476520353016E-006
   78.5531250000000         1.482879196157674E-006
   78.7668750000000         1.458864580415293E-006
   78.9806250000000         1.451792455917066E-006
   79.1943750000000         1.442021820641240E-006
   79.4081250000000         1.445242299524682E-006
   79.6218750000000         1.459121132691211E-006
   79.8356250000000         1.483625126712428E-006
   80.0493750000000         1.518958201681735E-006
   80.2631250000000         1.562845270363353E-006
   80.4768750000000         1.613733965041800E-006
   80.6906250000000         1.668572892218101E-006
   80.9043750000000         1.724401439850826E-006
   81.1181250000000         1.772565536460986E-006
   81.3318750000000         1.825391314902457E-006
   81.5456250000000         1.865884098826455E-006
   81.7593750000000         1.905882580653002E-006
   81.9731250000000         1.936201167326666E-006
   82.1868750000000         1.953753887718898E-006
   82.4006250000000         1.974136743953135E-006
   82.6143750000000         1.982957960901291E-006
   82.8281250000000         1.990941672768296E-006
   83.0418750000000         1.993146789796149E-006
   83.2556250000000         1.994319688970324E-006
   83.4693750000000         1.993079230656343E-006
   83.6831250000000         1.990459300008736E-006
   83.8968750000000         1.988083397095957E-006
   84.1106250000000         1.991361048009836E-006
   84.3243750000000         1.987040227066662E-006
   84.5381250000000         1.992505308106399E-006
   84.7518750000000         1.992870287616507E-006
   84.9656250000000         1.996467546662304E-006
   85.1793750000000         2.002675782166010E-006
   85.3931250000000         2.013372511247892E-006
   85.6068750000000         2.025320301640355E-006
   85.8206250000000         2.051017539674434E-006
   86.0343750000000         2.081308329803995E-006
   86.2481250000000         2.123193842190700E-006
   86.4618750000000         2.175783685677938E-006
   86.6756250000000         2.237817458325243E-006
   86.8893750000000         2.307130496167010E-006
   87.1031250000000         2.375552610386275E-006
   87.3168750000000         2.459340532652666E-006
   87.5306250000000         2.535729906567460E-006
   87.7443750000000         2.623578903512272E-006
   87.9581250000000         2.700306881693759E-006
   88.1718750000000         2.782462149589358E-006
   88.3856250000000         2.856701263391524E-006
   88.5993750000000         2.923037481069341E-006
   88.8131250000000         2.981025878652136E-006
   89.0268750000000         3.030233275702231E-006
   89.2406250000000         3.070165104060876E-006
   89.4543750000000         3.100589318116898E-006
   89.6681250000000         3.121299133475489E-006
   89.8818750000000         3.132072595559412E-006
   90.0956250000000         3.133087970916467E-006
   90.3093750000000         3.123959872235037E-006
   90.5231250000000         3.104601801639691E-006
   90.7368750000000         3.074831591736685E-006
   90.9506250000000         3.035063910687071E-006
   91.1643750000000         2.985866371714444E-006
   91.3781250000000         2.928324457949272E-006
   91.5918750000000         2.863843401923910E-006
   91.8056250000000         2.794187830365369E-006
   92.0193750000000         2.721616472702264E-006
   92.2331250000000         2.648736545775489E-006
   92.4468750000000         2.578370621021392E-006
   92.6606250000000         2.513376812413461E-006
   92.8743750000000         2.456554282422196E-006
   93.0881250000000         2.410384549967389E-006
   93.3018750000000         2.376774805074150E-006
   93.5156250000000         2.357217204201541E-006
   93.7293750000000         2.351629562418405E-006
   93.9431250000000         2.360639578732213E-006
   94.1568750000000         2.380940158290522E-006
   94.3706250000000         2.410847916703581E-006
   94.5843750000000         2.447809407169729E-006
   94.7981250000000         2.489102305895292E-006
   95.0118750000000         2.531358396105438E-006
   95.2256250000000         2.572314358992576E-006
   95.4393750000000         2.609265736299707E-006
   95.6531250000000         2.640709986851408E-006
   95.8668750000000         2.669720833085297E-006
   96.0806250000000         2.684510806606272E-006
   96.2943750000000         2.695122971495651E-006
   96.5081250000000         2.702754582714413E-006
   96.7218750000000         2.709201018817197E-006
   96.9356250000000         2.715989451419400E-006
   97.1493750000000         2.725016803949243E-006
   97.3631250000000         2.737587024195286E-006
   97.5768750000000         2.751980216737460E-006
   97.7906250000000         2.772007337176648E-006
   98.0043750000000         2.796756885787198E-006
   98.2181250000000         2.825681118039869E-006
   98.4318750000000         2.857225697795548E-006
   98.6456250000000         2.890579584013721E-006
   98.8593750000000         2.922839834867972E-006
   99.0731250000000         2.955313813432171E-006
   99.2868750000000         2.987820672418230E-006
   99.5006250000000         3.026277791036083E-006
   99.7143750000000         3.057263540041117E-006
   99.9281250000000         3.097520444229672E-006
   100.141875000000         3.133500333004183E-006
   100.355625000000         3.175416259839765E-006
   100.569375000000         3.220090771842158E-006
   100.783125000000         3.267956418834898E-006
   100.996875000000         3.319948689730305E-006
   101.210625000000         3.374841489927673E-006
   101.424375000000         3.430985089254138E-006
   101.638125000000         3.486274729125717E-006
   101.851875000000         3.538573142379528E-006
   102.065625000000         3.581295177868746E-006
   102.279375000000         3.624805369500353E-006
   102.493125000000         3.654892472131948E-006
   102.706875000000         3.686895073094683E-006
   102.920625000000         3.710430059853344E-006
   103.134375000000         3.728662361426394E-006
   103.348125000000         3.743949391112496E-006
   103.561875000000         3.760952351969679E-006
   103.775625000000         3.775657117042155E-006
   103.989375000000         3.791699837261151E-006
   104.203125000000         3.810242221989602E-006
   104.416875000000         3.831034980363340E-006
   104.630625000000         3.853578300016633E-006
   104.844375000000         3.876748349307233E-006
   105.058125000000         3.898857812946082E-006
   105.271875000000         3.918192908537726E-006
   105.485625000000         3.933730403150054E-006
   105.699375000000         3.943856961719220E-006
   105.913125000000         3.946627476170587E-006
   106.126875000000         3.942120294166806E-006
   106.340625000000         3.930864456052213E-006
   106.554375000000         3.913891067608454E-006
   106.768125000000         3.892720268282569E-006
   106.981875000000         3.869888525541580E-006
   107.195625000000         3.847388588355604E-006
   107.409375000000         3.827366587189779E-006
   107.623125000000         3.811608035780990E-006
   107.836875000000         3.801256186322574E-006
   108.050625000000         3.796626061862530E-006
   108.264375000000         3.797209471518901E-006
   108.478125000000         3.803903340560549E-006
   108.691875000000         3.817489680581951E-006
   108.905625000000         3.828192833449069E-006
   109.119375000000         3.841458611773971E-006
   109.333125000000         3.853092031900562E-006
   109.546875000000         3.861613906462166E-006
   109.760625000000         3.866703134884692E-006
   109.974375000000         3.866130821739831E-006
   110.188125000000         3.860813329716313E-006
   110.401875000000         3.851483714999829E-006
   110.615625000000         3.839844321870118E-006
   110.829375000000         3.826770592887394E-006
   111.043125000000         3.813810750049062E-006
   111.256875000000         3.807648856866637E-006
   111.470625000000         3.793822206670819E-006
   111.684375000000         3.785688702631797E-006
   111.898125000000         3.787290559394141E-006
   112.111875000000         3.783068115435332E-006
   112.325625000000         3.785898730715138E-006
   112.539375000000         3.794093831531962E-006
   112.753125000000         3.807037513400556E-006
   112.966875000000         3.825945397525952E-006
   113.180625000000         3.851363102345231E-006
   113.394375000000         3.883889906288476E-006
   113.608125000000         3.923874156057277E-006
   113.821875000000         3.970917659828548E-006
   114.035625000000         4.026329407152734E-006
   114.249375000000         4.089351159270844E-006
   114.463125000000         4.158738959913425E-006
   114.676875000000         4.232806573272220E-006
   114.890625000000         4.309300540977741E-006
   115.104375000000         4.385659144759579E-006
   115.318125000000         4.459274546056288E-006
   115.531875000000         4.527660786074851E-006
   115.745625000000         4.588875830152307E-006
   115.959375000000         4.641610544613569E-006
   116.173125000000         4.685328808232681E-006
   116.386875000000         4.720397620169653E-006
   116.600625000000         4.747866954436043E-006
   116.814375000000         4.769551210180647E-006
   117.028125000000         4.787567473468681E-006
   117.241875000000         4.805201268872013E-006
   117.455625000000         4.820799429580462E-006
   117.669375000000         4.837277895662902E-006
   117.883125000000         4.854877207836898E-006
   118.096875000000         4.873279867701968E-006
   118.310625000000         4.891276168968352E-006
   118.524375000000         4.907040033642253E-006
   118.738125000000         4.918597199775495E-006
   118.951875000000         4.924128196249176E-006
   119.165625000000         4.922789969711752E-006
   119.379375000000         4.915437148182137E-006
   119.593125000000         4.901770748201976E-006
   119.806875000000         4.883563839463023E-006
   120.020625000000         4.863032241553280E-006
   120.234375000000         4.843044534480231E-006
   120.448125000000         4.826694975907453E-006
   120.661875000000         4.817086815915297E-006
   120.875625000000         4.816579158109316E-006
   121.089375000000         4.829393348177269E-006
   121.303125000000         4.846786447174437E-006
   121.516875000000         4.870541582230193E-006
   121.730625000000         4.898893253450221E-006
   121.944375000000         4.929069236328508E-006
   122.158125000000         4.957649548340373E-006
   122.371875000000         4.981702908335196E-006
   122.585625000000         4.999163433945427E-006
   122.799375000000         5.009131543699807E-006
   123.013125000000         5.011926838035986E-006
   123.226875000000         5.010020008515050E-006
   123.440625000000         5.005707125679193E-006
   123.654375000000         5.001981664129455E-006
   123.868125000000         5.002627292357265E-006