  -1.60312500000000         0.000000000000000E+000
  -1.38937500000000         0.000000000000000E+000
  -1.17562500000000         0.000000000000000E+000
 -0.961875000000000         0.000000000000000E+000
 -0.748125000000000         0.000000000000000E+000
 -0.534375000000000         0.000000000000000E+000
 -0.320625000000000         0.000000000000000E+000
 -0.106875000000000         0.000000000000000E+000
  0.106875000000000         0.000000000000000E+000
  0.320625000000000         0.000000000000000E+000
  0.534375000000000         0.000000000000000E+000
  0.748125000000000         0.000000000000000E+000
  0.961875000000000         0.000000000000000E+000
   1.17562500000000         0.000000000000000E+000
   1.38937500000000         0.000000000000000E+000
   1.60312500000000         0.000000000000000E+000
   1.81687500000000         0.000000000000000E+000
   2.03062500000000         0.000000000000000E+000
   2.24437500000000         0.000000000000000E+000
   2.45812500000000         0.000000000000000E+000
   2.67187500000000         0.000000000000000E+000
   2.88562500000000         0.000000000000000E+000
   3.09937500000000         0.000000000000000E+000
   3.31312500000000         0.000000000000000E+000
   3.52687500000000         0.000000000000000E+000
   3.74062500000000         0.000000000000000E+000
   3.95437500000000         0.000000000000000E+000
   4.16812500000000         0.000000000000000E+000
   4.38187500000000         0.000000000000000E+000
   4.59562500000000         0.000000000000000E+000
   4.80937500000000         0.000000000000000E+000
   5.02312500000000         0.000000000000000E+000
   5.23687500000000         0.000000000000000E+000
   5.45062500000000         0.000000000000000E+000
   5.66437500000000         0.000000000000000E+000
   5.87812500000000         0.000000000000000E+000
   6.09187500000000         0.000000000000000E+000
   6.30562500000000         0.000000000000000E+000
   6.51937500000000         0.000000000000000E+000
   6.73312500000000         0.000000000000000E+000
   6.94687500000000         0.000000000000000E+000
   7.16062500000000         0.000000000000000E+000
   7.37437500000000         0.000000000000000E+000
   7.58812500000000         0.000000000000000E+000
   7.80187500000000         0.000000000000000E+000
   8.01562500000000         0.000000000000000E+000
   8.22937500000000         0.000000000000000E+000
   8.44312500000000         0.000000000000000E+000
   8.65687500000000         0.000000000000000E+000
   8.87062500000000         0.000000000000000E+000
   9.08437500000000         0.000000000000000E+000
   9.29812500000000         0.000000000000000E+000
   9.51187500000000         0.000000000000000E+000
   9.72562500000000         0.000000000000000E+000
   9.93937500000000         0.000000000000000E+000
   10.1531250000000         0.000000000000000E+000
   10.3668750000000         0.000000000000000E+000
   10.5806250000000         0.000000000000000E+000
   10.7943750000000         0.000000000000000E+000
   11.0081250000000         0.000000000000000E+000
   11.2218750000000         0.000000000000000E+000
   11.4356250000000         0.000000000000000E+000
   11.6493750000000         0.000000000000000E+000
   11.8631250000000         0.000000000000000E+000
   12.0768750000000         0.000000000000000E+000
   12.2906250000000         0.000000000000000E+000
   12.5043750000000        -1.474373900339368E-277
   12.7181250000000         1.104983155606840E-270
   12.9318750000000        -8.696653454395944E-268
   13.1456250000000        -2.320136726170493E-264
   13.3593750000000         3.022825725943248E-246
   13.5731250000000        -1.147031770341375E-240
   13.7868750000000         2.720081509528412E-233
   14.0006250000000         4.568701444656058E-231
   14.2143750000000        -1.069184736379100E-228
   14.4281250000000         1.747709349079064E-226
   14.6418750000000         2.204364334775771E-224
   14.8556250000000         1.725543799056024E-222
   15.0693750000000         1.044112323290519E-220
   15.2831250000000         4.737778537418871E-219
   15.4968750000000         1.640768758939034E-217
   15.7106250000000         4.504926756779956E-216
   15.9243750000000         1.016182209359087E-214
   16.1381250000000         1.937868395760799E-213
   16.3518750000000         3.194414560209433E-212
   16.5656250000000         4.630803047057131E-211
   16.7793750000000         5.983780261816305E-210
   16.9931250000000         6.965862599430513E-209
   17.2068750000000         7.367699092873561E-208
   17.4206250000000         7.128114292093495E-207
   17.6343750000000         6.341874835806318E-206
   17.8481250000000         5.210145078518783E-205
   18.0618750000000         3.964439274752690E-204
   18.2756250000000         2.799320377550221E-203
   18.4893750000000         1.835637861304008E-202
   18.7031250000000         1.117066241084652E-201
   18.9168750000000         6.291376550230596E-201
   19.1306250000000         3.260004621502216E-200
   19.3443750000000         1.536071157007170E-199
   19.5581250000000         6.424739104252633E-199
   19.7718750000000         2.251686769859866E-198
   19.9856250000000         5.423263987668411E-198
   20.1993750000000        -3.078988666856352E-198
   20.4131250000000        -1.505898196700041E-196
   20.6268750000000        -1.267428546842581E-195
   20.8406250000000        -7.875362019625897E-195
   21.0543750000000        -4.180832304824922E-194
   21.2681250000000        -1.989146603838144E-193
   21.4818750000000        -8.664824555889850E-193
   21.6956250000000        -3.494792576413884E-192
   21.9093750000000        -1.314122826256740E-191
   22.1231250000000        -4.632527904830933E-191
   22.3368750000000        -1.541769773538293E-190
   22.5506250000000        -4.904444501842159E-190
   22.7643750000000        -1.525802870021340E-189
   22.9781250000000        -4.820321917081623E-189
   23.1918750000000        -1.617216380975463E-188
   23.4056250000000        -5.909857851896673E-188
   23.6193750000000        -2.314908270695088E-187
   23.8331250000000        -9.307542033493367E-187
   24.0468750000000        -3.685238073743764E-186
   24.2606250000000        -1.397909782367258E-185
   24.4743750000000        -4.998399272133768E-185
   24.6881250000000        -1.666111675773212E-184
   24.9018750000000        -5.117727993166621E-184
   25.1156250000000        -1.422226906991148E-183
   25.3293750000000        -3.441504026284658E-183
   25.5431250000000        -6.521431064219233E-183
   25.7568750000000        -5.304608294793882E-183
   25.9706250000000         3.030400603534197E-182
   26.1843750000000         2.221395659830110E-181
   26.3981250000000         9.873754432732768E-181
   26.6118750000000         3.592041430711548E-180
   26.8256250000000         1.149234533304916E-179
   27.0393750000000         3.315792201332093E-179
   27.2531250000000         8.684279489182483E-179
   27.4668750000000         2.051436450775888E-178
   27.6806250000000         4.267520146412811E-178
   27.8943750000000         7.321920624069112E-178
   28.1081250000000         8.078220223611457E-178
   28.3218750000000        -6.117687955438018E-178
   28.5356250000000        -7.219691888729411E-177
   28.7493750000000        -2.763723443118764E-176
   28.9631250000000        -7.732287374083220E-176
   29.1768750000000        -1.710859944440732E-175
   29.3906250000000        -2.757711847626631E-175
   29.6043750000000        -1.378571183622825E-175
   29.8181250000000         1.218750128781182E-174
   30.0318750000000         6.748407452641728E-174
   30.2456250000000         2.412113245584602E-173
   30.4593750000000         7.083526153459678E-173
   30.6731250000000         1.818001430178050E-172
   30.8868750000000         4.155407981288444E-172
   31.1006250000000         8.434417391984025E-172
   31.3143750000000         1.478993026029942E-171
   31.5281250000000         2.051542850002955E-171
   31.7418750000000         1.451714089910040E-171
   31.9556250000000        -3.385735798353812E-171
   32.1693750000000        -1.929173075902488E-170
   32.3831250000000        -5.885731878066238E-170
   32.5968750000000        -1.402439000903516E-169
   32.8106250000000        -2.784829706121680E-169
   33.0243750000000        -4.558158148267588E-169
   33.2381250000000        -5.542425314642366E-169
   33.4518750000000        -2.462781859658703E-169
   33.6656250000000         1.088537556990273E-168
   33.8793750000000         4.135039870406923E-168
   34.0931250000000         8.298737986956619E-168
   34.3068750000000         7.451461485028090E-168
   34.5206250000000        -2.050805461879013E-167
   34.7343750000000        -1.347845503058060E-166
   34.9481250000000        -4.662061372704411E-166
   35.1618750000000        -1.255693749573415E-165
   35.3756250000000        -2.849411985430393E-165
   35.5893750000000        -5.513274809818010E-165
   35.8031250000000        -8.752378778449556E-165
   36.0168750000000        -9.536356063257368E-165
   36.2306250000000         1.496989493323687E-165
   36.4443750000000         4.685298583984499E-164
   36.6581250000000         1.719506086646376E-163
   36.8718750000000         4.537797966022315E-163
   37.0856250000000         9.940509621350365E-163
   37.2993750000000         1.860991374851638E-162
   37.5131250000000         2.906807917853265E-162
   37.7268750000000         3.336767294882219E-162
   37.9406250000000         8.633700274281958E-163
   38.1543750000000        -9.683417305056955E-162
   38.3681250000000        -3.813648804639589E-161
   38.5818750000000        -1.001691047548612E-160
   38.7956250000000        -2.149901646028322E-160
   39.0093750000000        -3.931715544075190E-160
   39.2231250000000        -6.028332884316170E-160
   39.4368750000000        -6.962127086981376E-160
   39.6506250000000        -2.761055179891236E-160
   39.8643750000000         1.505891917256542E-159
   40.0781250000000         6.177260476483216E-159
   40.2918750000000         1.603078469301306E-158
   40.5056250000000         3.364987870202811E-158
   40.7193750000000         6.003464087752428E-158
   40.9331250000000         8.992889472866395E-158
   41.1468750000000         1.024619614491338E-157
   41.3606250000000         4.543128634420106E-158
   41.5743750000000        -1.862053893712694E-157
   41.7881250000000        -7.704590115271880E-157
   42.0018750000000        -1.955617244735122E-156
   42.2156250000000        -3.987970702060975E-156
   42.4293750000000        -6.886305809439968E-156
   42.6431250000000        -9.939727568973898E-156
   42.8568750000000        -1.079176027164719E-155
   43.0706250000000        -4.051577379376268E-156
   43.2843750000000         2.033961118039848E-155
   43.4981250000000         7.808961632147015E-155
   43.7118750000000         1.887460878879902E-154
   43.9256250000000         3.670737072164013E-154
   44.1393750000000         6.013885029645359E-154
   44.3531250000000         8.113168014185747E-154
   44.5668750000000         7.798606010534339E-154
   44.7806250000000         6.586920330273120E-155
   44.9943750000000        -2.069540797667612E-153
   45.2081250000000        -6.637421913426804E-153
   45.4218750000000        -1.463222893958359E-152
   45.6356250000000        -2.622346550137010E-152
   45.8493750000000        -3.911580788288317E-152
   46.0631250000000        -4.585972060816628E-152
   46.2768750000000        -3.033557498951390E-152
   46.4906250000000         3.530214753930204E-152
   46.7043750000000         1.899783801748291E-151
   46.9181250000000         4.732293032001554E-151
   47.1318750000000         8.956697634156574E-151
   47.3456250000000         1.379901912516898E-150
   47.5593750000000         1.666448672484541E-150
   47.7731250000000         1.198113589177120E-150
   47.9868750000000        -9.616175134174562E-151
   48.2006250000000        -6.046879316934356E-150
   48.4143750000000        -1.511340185559309E-149
   48.6281250000000        -2.784006361659009E-149
   48.8418750000000        -4.027771441726129E-149
   49.0556250000000        -4.148695003779339E-149
   49.2693750000000        -9.839442884619513E-150
   49.4831250000000         8.849031653228825E-149
   49.6968750000000         2.933740547592607E-148
   49.9106250000000         6.275201083342161E-148
   50.1243750000000         1.043271160649057E-147
   50.3381250000000         1.326984324476955E-147
   50.5518750000000         9.603009534175099E-148
   50.7656250000000        -1.027903605270491E-147
   50.9793750000000        -6.113086213799160E-147
   51.1931250000000        -1.600234941096933E-146
   51.4068750000000        -3.164175638049823E-146
   51.6206250000000        -5.094102604159572E-146
   51.8343750000000        -6.461986825277959E-146
   52.0481250000000        -4.995292693123675E-146
   52.2618750000000         3.657408761953187E-146
   52.4756250000000         2.639552808244392E-145
   52.6893750000000         7.200947348129799E-145
   52.9031250000000         1.478167467316879E-144
   53.1168750000000         2.511755328781181E-144
   53.3306250000000         3.529271323310112E-144
   53.5443750000000         3.705227871983768E-144
   53.7581250000000         1.322206422329953E-144
   53.9718750000000        -6.571651894713876E-144
   54.1856250000000        -2.420871999693051E-143
   54.3993750000000        -5.628691191537948E-143
   54.6131250000000        -1.053533184000932E-142
   54.8268750000000        -1.660867806420791E-142
   55.0406250000000        -2.151215608810194E-142
   55.2543750000000        -1.958603015250197E-142
   55.4681250000000        -3.165844524807728E-145
   55.6818750000000         5.443474706486773E-142
   55.8956250000000         1.667010966446454E-141
   56.1093750000000         3.589333145371670E-141
   56.3231250000000         6.358740831270001E-141
   56.5368750000000         9.516271775737788E-141
   56.7506250000000         1.154757628966734E-140
   56.9643750000000         9.126687603691133E-141
   57.1781250000000        -3.680656689089784E-141
   57.3918750000000        -3.578184584976864E-140
   57.6056250000000        -9.802543395952987E-140
   57.8193750000000        -1.991510061890232E-139
   58.0331250000000        -3.364503435741886E-139
   58.2468750000000        -4.786716888576401E-139
   58.4606250000000        -5.398160404394880E-139
   58.6743750000000        -3.462914997271965E-139
   58.8881250000000         3.917610734017541E-139
   59.1018750000000         2.079496138462269E-138
   59.3156250000000         5.159792589651838E-138
   59.5293750000000         9.886969108285165E-138
   59.7431250000000         1.586127213363400E-137
   59.9568750000000         2.124446574890380E-137
   60.1706250000000         2.165576756884946E-137
   60.3843750000000         8.950104207447804E-138
   60.5981250000000        -2.952946487801138E-137
   60.8118750000000        -1.100137758386142E-136
   61.0256250000000        -2.476604100059005E-136
   61.2393750000000        -4.453829566229194E-136
   61.4531250000000        -6.730994881924110E-136
   61.6668750000000        -8.356313433999437E-136
   61.8806250000000        -7.318205676926956E-136
   62.0943750000000        -1.673903281458783E-137
   62.3081250000000         1.805125045438892E-135
   62.5218750000000         5.304858372026537E-135
   62.7356250000000         1.089516610523682E-134
   62.9493750000000         1.834171395191106E-134
   63.1631250000000         2.593551692627669E-134
   63.3768750000000         2.932104490780837E-134
   63.5906250000000         2.017244767628027E-134
   63.8043750000000        -1.471773101540478E-134
   64.0181250000000        -9.279414619629029E-134
   64.2318750000000        -2.316514551356884E-133
   64.4456250000000        -4.389060165924475E-133
   64.6593750000000        -6.932093352723037E-133
   64.8731250000000        -9.146853426785887E-133
   65.0868750000000        -9.267222555293546E-133
   65.3006250000000        -4.187485902310896E-133
   65.5143750000000         1.067334703542196E-132
   65.7281250000000         4.085937785586004E-132
   65.9418750000000         9.109655667446003E-132
   66.1556250000000         1.614680678233543E-131
   66.3693750000000         2.408394448274317E-131
   66.5831250000000         2.973780438723195E-131
   66.7968750000000         2.674023723062792E-131
   67.0106250000000         4.640192556660807E-132
   67.2243750000000        -5.098943469340144E-131
   67.4381250000000        -1.561317737225644E-130
   67.6518750000000        -3.217714350815405E-130
   67.8656250000000        -5.411628634331431E-130
   68.0793750000000        -7.694520475662204E-130
   68.2931250000000        -8.962892464100278E-130
   68.5068750000000        -7.166079332146014E-130
   68.7206250000000         8.750009916591156E-131
   68.9343750000000         1.929781540651894E-129
   69.1481250000000         5.230638763400288E-129
   69.3618750000000         1.020801077335016E-128
   69.5756250000000         1.650057987174602E-128
   69.7893750000000         2.259987155263410E-128
   70.0031250000000         2.513472168841373E-128
   70.2168750000000         1.818088253436721E-128
   70.4306250000000        -7.026531559220327E-129
   70.6443750000000        -6.132738478968897E-128
   70.8581250000000        -1.548777659905970E-127
   71.0718750000000        -2.912731504712517E-127
   71.2856250000000        -4.575652505590235E-127
   71.4993750000000        -6.099670630101336E-127
   71.7131250000000        -6.568715763685554E-127
   71.9268750000000        -4.440697321102077E-127
   72.1406250000000         2.481039369909045E-127
   72.3543750000000         1.679957572260455E-126
   72.5681250000000         4.078487244139559E-126
   72.7818750000000         7.490364936220816E-126
   72.9956250000000         1.154377514723184E-125
   73.2093750000000         1.512199848030086E-125
   73.4231250000000         1.599567002335586E-125
   73.6368750000000         1.053403660882066E-125
   73.8506250000000        -6.281516938287929E-126
   74.0643750000000        -4.019886204992563E-125
   74.2781250000000        -9.594745892315310E-125
   74.4918750000000        -1.739406695288779E-124
   74.7056250000000        -2.651359065344865E-124
   74.9193750000000        -3.442469109953460E-124
   75.1331250000000        -3.624437962068047E-124
   75.3468750000000        -2.421614940480931E-124
   75.5606250000000         1.213848578286009E-124
   75.7743750000000         8.452265144709002E-124
   75.9881250000000         2.021866579472892E-123
   76.2018750000000         3.652610874667056E-123
   76.4156250000000         5.546863077238531E-123
   76.6293750000000         7.193162265517257E-123
   76.8431250000000         7.625766825515978E-123
   77.0568750000000         5.337713725713560E-123
   77.2706250000000        -1.674243190233081E-123
   77.4843750000000        -1.561217305572272E-122
   77.6981250000000        -3.818399325421393E-122
   77.9118750000000        -6.938485251083768E-122
   78.1256250000000        -1.057015151561284E-121
   78.3393750000000        -1.378681365130918E-121
   78.5531250000000        -1.486122992026121E-121
   78.7668750000000        -1.112787230490547E-121
   78.9806250000000         9.235404595037803E-123
   79.1943750000000         2.512730572931184E-121
   79.4081250000000         6.446967246899589E-121
   79.6218750000000         1.190727336404349E-120
   79.8356250000000         1.832780920288967E-120
   80.0493750000000         2.420647888546423E-120
   80.2631250000000         2.675176558016510E-120
   80.4768750000000         2.167341758955356E-120
   80.6906250000000         3.334689854018741E-121
   80.9043750000000        -3.444410548552145E-120
   81.1181250000000        -9.660899803218780E-120
   81.3318750000000        -1.838580365410447E-119
   81.5456250000000        -2.883317886219722E-119
   81.7593750000000        -3.883703057939769E-119
   81.9731250000000        -4.433697207991973E-119
   82.1868750000000        -3.906814459334240E-119
   82.4006250000000        -1.475330026455248E-119
   82.6143750000000         3.781438553677602E-119
   82.8281250000000         1.263748589440526E-118
   83.0418750000000         2.531514306995960E-118
   83.2556250000000         4.090820609968544E-118
   83.4693750000000         5.668005286639158E-118
   83.6831250000000         6.736709057308157E-118
   83.8968750000000         6.472842991955757E-118
   84.1106250000000         3.770588227250779E-118
   84.3243750000000        -2.633632718401532E-118
   84.5381250000000        -1.387848324370747E-117
   84.7518750000000        -3.049528331118707E-117
   84.9656250000000        -5.171562171827749E-117
   85.1793750000000        -7.461782793726031E-117
   85.3931250000000        -9.325178491256004E-117
   85.6068750000000        -9.800009075999138E-117
   85.8206250000000        -7.556469730682092E-117
   86.0343750000000        -1.008137655983701E-117
   86.2481250000000         1.140877465493039E-116
   86.4618750000000         3.074130181789833E-116
   86.6756250000000         5.679130277082599E-116
   86.8893750000000         8.718660057406755E-116
   87.1031250000000         1.163674753936148E-115
   87.3168750000000         1.347118517653207E-115
   87.5306250000000         1.281439759759124E-115
   87.7443750000000         7.868418293380652E-116
   87.9581250000000        -3.353228695467367E-116
   88.1718750000000        -2.262543584612738E-115
   88.3856250000000        -5.087656503810204E-115
   88.5993750000000        -8.731402528940354E-115
   88.8131250000000        -1.283578722589015E-114
   89.0268750000000        -1.665025338271614E-114
   89.2406250000000        -1.893174130361336E-114
   89.4543750000000        -1.789006419441565E-114
   89.6681250000000        -1.122094857462419E-114
   89.8818750000000         3.720266521625718E-115
   90.0956250000000         2.954196232646241E-114
   90.3093750000000         6.816797750068016E-114
   90.5231250000000         1.198491057792618E-113
   90.7368750000000         1.817787298358587E-113
   90.9506250000000         2.462956699105230E-113
   91.1643750000000         2.987428393630478E-113
   91.3781250000000         3.152134529500301E-113
   91.5918750000000         2.606952721019058E-113
   91.8056250000000         8.855291219891756E-114
   92.0193750000000        -2.571199242974780E-113
   92.2331250000000        -8.340396891448327E-113
   92.4468750000000        -1.686259029441499E-112
   92.6606250000000        -2.817470174686206E-112
   92.8743750000000        -4.150466562631605E-112
   93.0881250000000        -5.472385729071476E-112
   93.3018750000000        -6.370157254313636E-112
   93.5156250000000        -6.168787155215436E-112
   93.7293750000000        -3.897116658398658E-112
   93.9431250000000         1.679179828411215E-112
   94.1568750000000         1.190189835771280E-111
   94.3706250000000         2.787548117279162E-111
   94.5843750000000         4.986907389371460E-111
   94.7981250000000         7.642940423561678E-111
   95.0118750000000         1.032360736611858E-110
   95.2256250000000         1.218514053717171E-110
   95.4393750000000         1.186968394035643E-110
   95.6531250000000         7.481812809830498E-111
   95.8668750000000        -3.275254532378714E-111
   96.0806250000000        -2.270396048488668E-110
   96.2943750000000        -5.235568115839522E-110
   96.5081250000000        -9.184283912873917E-110
   96.7218750000000        -1.372328627022334E-109
   96.9356250000000        -1.791888957949393E-109
   97.1493750000000        -2.012512588281741E-109
   97.3631250000000        -1.789495954635286E-109
   97.5768750000000        -8.075682188394244E-110
   97.7906250000000         1.278427442892736E-109
   98.0043750000000         4.758341795921473E-109
   98.2181250000000         9.726830856666181E-109
   98.4318750000000         1.588774368983154E-108
   98.6456250000000         2.231886209281846E-108
   98.8593750000000         2.723911340890030E-108
   99.0731250000000         2.785429510164647E-108
   99.2868750000000         2.039467379480223E-108
   99.5006250000000         4.894137496186450E-110
   99.7143750000000        -3.596596186890810E-108
   99.9281250000000        -9.132174345113706E-108
   100.141875000000        -1.640302447081293E-107
   100.355625000000        -2.459859568444594E-107
   100.569375000000        -3.197599004419967E-107
   100.783125000000        -3.564938318977398E-107
   100.996875000000        -3.156167741606709E-107
   101.210625000000        -1.478946318808100E-107
   101.424375000000         1.965203701565384E-107
   101.638125000000         7.536044312815614E-107
   101.851875000000         1.523946498691168E-106
   102.065625000000         2.445267208310573E-106
   102.279375000000         3.362631756757100E-106
   102.493125000000         4.003467382653476E-106
   102.706875000000         3.968413128088484E-106
   102.920625000000         2.752592937631239E-106
   103.134375000000        -1.862034082748412E-107
   103.348125000000        -5.297509048548037E-106
   103.561875000000        -1.273850138148671E-105
   103.775625000000        -2.211137377574728E-105
   103.989375000000        -3.216766691626762E-105
   104.203125000000        -4.054078747705803E-105
   104.416875000000        -4.360415528542739E-105
   104.630625000000        -3.658658089959827E-105
   104.844375000000        -1.409730236427488E-105
   105.058125000000         2.879481336143156E-105
   105.271875000000         9.483810006562006E-105
   105.485625000000         1.822599407845710E-104
   105.699375000000         2.820366822364399E-104
   105.913125000000         3.752616219217699E-104
   106.126875000000         4.314163742923281E-104
   106.340625000000         4.086595165436590E-104
   106.554375000000         2.574574137215014E-104
   106.768125000000        -7.113015216739398E-105
   106.981875000000        -6.115814658455665E-104
   107.195625000000        -1.364436838760088E-103
   107.409375000000        -2.272714868635057E-103
   107.623125000000        -3.197865909643785E-103
   107.836875000000        -3.901502320041926E-103
   108.050625000000        -4.041781165925130E-103
   108.264375000000        -3.195302273388563E-103
   108.478125000000        -9.157524228226883E-104
   108.691875000000         3.161895619268595E-103
   108.905625000000         9.169217565692437E-103
   109.119375000000         1.681305451549099E-102
   109.333125000000         2.517024646492057E-102
   109.546875000000         3.251374629008201E-102
   109.760625000000         3.623682050120793E-102
   109.974375000000         3.295954586632622E-102
   110.188125000000         1.890836190923076E-102
   110.401875000000        -9.353724646082703E-103
   110.615625000000        -5.381071166974945E-102
   110.829375000000        -1.135336221970125E-101
   111.043125000000        -1.830366250060559E-101
   111.256875000000        -2.507585852996011E-101
   111.470625000000        -2.981433971487688E-101
   111.684375000000        -2.999372279935348E-101
   111.898125000000        -2.263967867959021E-101
   112.111875000000        -4.804733536904878E-102
   112.325625000000         2.566250690830583E-101
   112.539375000000         6.906736576960843E-101
   112.753125000000         1.226305531219427E-100
   112.966875000000         1.792585027940707E-100
   113.180625000000         2.266398059987062E-100
   113.394375000000         2.470977895366859E-100
   113.608125000000         2.187022977847732E-100
   113.821875000000         1.181342574041038E-100
   114.035625000000        -7.434295851583651E-101
   114.249375000000        -3.677644292273939E-100
   114.463125000000        -7.516683550330146E-100
   114.676875000000        -1.186799091766802E-099
   114.890625000000        -1.597315226261992E-099
   115.104375000000        -1.867339911805479E-099
   115.318125000000        -1.845312188234826E-099
   115.531875000000        -1.359732346767791E-099
   115.745625000000        -2.492204539077974E-100
   115.959375000000         1.591984694164389E-099
   116.173125000000         4.155083439323511E-099
   116.386875000000         7.250796109761821E-099
   116.600625000000         1.044843414447444E-098
   116.814375000000         1.303771548421463E-098
   117.028125000000         1.403590176201314E-098
   117.241875000000         1.226496144275706E-098
   117.455625000000         6.520819433848523E-099
   117.669375000000        -4.152761413183627E-099
   117.883125000000        -2.009114135541289E-098
   118.096875000000        -4.056910841650892E-098
   118.310625000000        -6.336166788796239E-098
   118.524375000000        -8.441068836583508E-098
   118.738125000000        -9.773743181734820E-098
   118.951875000000        -9.576173130249252E-098
   119.165625000000        -7.018257956104778E-098
   119.379375000000        -1.352856618452564E-098
   119.593125000000         7.861157617773455E-098
   119.806875000000         2.048236375699850E-097
   120.020625000000         3.549210463479591E-097
   120.234375000000         5.074095658844998E-097
   120.448125000000         6.281893406325764E-097
   120.661875000000         6.714862930404859E-097
   120.875625000000         5.840287824169131E-097
   121.089375000000         3.132831925754540E-097
   121.303125000000        -1.799424417255189E-097
   121.516875000000        -9.050707769320697E-097
   121.730625000000        -1.823238286999701E-096
   121.944375000000        -2.829856113980549E-096
   122.158125000000        -3.742883692452556E-096
   122.371875000000        -4.302629712778055E-096
   122.585625000000        -4.189354466443883E-096
   122.799375000000        -3.064193017979246E-096
   123.013125000000        -6.364760414655872E-097
   123.226875000000         3.243937213805369E-096
   123.440625000000         8.477217606424816E-096
   123.654375000000         1.460306945175868E-095
   123.868125000000         2.071398155770263E-095