  -1.60312500000000         0.000000000000000E+000
  -1.38937500000000         0.000000000000000E+000
  -1.17562500000000         0.000000000000000E+000
 -0.961875000000000         0.000000000000000E+000
 -0.748125000000000         0.000000000000000E+000
 -0.534375000000000         0.000000000000000E+000
 -0.320625000000000         0.000000000000000E+000
 -0.106875000000000         0.000000000000000E+000
  0.106875000000000         0.000000000000000E+000
  0.320625000000000         0.000000000000000E+000
  0.534375000000000         0.000000000000000E+000
  0.748125000000000         0.000000000000000E+000
  0.961875000000000         0.000000000000000E+000
   1.17562500000000         0.000000000000000E+000
   1.38937500000000         0.000000000000000E+000
   1.60312500000000         0.000000000000000E+000
   1.81687500000000         0.000000000000000E+000
   2.03062500000000         0.000000000000000E+000
   2.24437500000000         0.000000000000000E+000
   2.45812500000000         0.000000000000000E+000
   2.67187500000000         0.000000000000000E+000
   2.88562500000000         0.000000000000000E+000
   3.09937500000000         0.000000000000000E+000
   3.31312500000000         0.000000000000000E+000
   3.52687500000000         0.000000000000000E+000
   3.74062500000000         0.000000000000000E+000
   3.95437500000000         0.000000000000000E+000
   4.16812500000000         0.000000000000000E+000
   4.38187500000000         0.000000000000000E+000
   4.59562500000000         0.000000000000000E+000
   4.80937500000000         0.000000000000000E+000
   5.02312500000000         0.000000000000000E+000
   5.23687500000000         0.000000000000000E+000
   5.45062500000000         0.000000000000000E+000
   5.66437500000000         0.000000000000000E+000
   5.87812500000000         0.000000000000000E+000
   6.09187500000000         0.000000000000000E+000
   6.30562500000000         0.000000000000000E+000
   6.51937500000000         0.000000000000000E+000
   6.73312500000000         0.000000000000000E+000
   6.94687500000000         0.000000000000000E+000
   7.16062500000000         0.000000000000000E+000
   7.37437500000000         0.000000000000000E+000
   7.58812500000000         0.000000000000000E+000
   7.80187500000000         0.000000000000000E+000
   8.01562500000000         0.000000000000000E+000
   8.22937500000000         0.000000000000000E+000
   8.44312500000000         0.000000000000000E+000
   8.65687500000000         0.000000000000000E+000
   8.87062500000000         0.000000000000000E+000
   9.08437500000000         0.000000000000000E+000
   9.29812500000000         0.000000000000000E+000
   9.51187500000000         0.000000000000000E+000
   9.72562500000000         0.000000000000000E+000
   9.93937500000000         0.000000000000000E+000
   10.1531250000000         0.000000000000000E+000
   10.3668750000000         0.000000000000000E+000
   10.5806250000000         0.000000000000000E+000
   10.7943750000000         0.000000000000000E+000
   11.0081250000000         0.000000000000000E+000
   11.2218750000000         0.000000000000000E+000
   11.4356250000000         0.000000000000000E+000
   11.6493750000000         0.000000000000000E+000
   11.8631250000000         0.000000000000000E+000
   12.0768750000000         0.000000000000000E+000
   12.2906250000000         0.000000000000000E+000
   12.5043750000000         1.546695513995222E-275
   12.7181250000000         6.082649828750055E-269
   12.9318750000000        -8.959682164401506E-266
   13.1456250000000        -1.062049245996539E-262
   13.3593750000000        -2.642252998920479E-244
   13.5731250000000         1.985211159273239E-238
   13.7868750000000         6.537817540827421E-234
   14.0006250000000        -2.313487610779095E-231
   14.2143750000000        -7.452273917369611E-229
   14.4281250000000         8.579257493223091E-227
   14.6418750000000         1.330279528303054E-224
   14.8556250000000         1.067159936518572E-222
   15.0693750000000         6.080599616896585E-221
   15.2831250000000         2.575408102020619E-219
   15.4968750000000         8.427299861953784E-218
   15.7106250000000         2.214076968050947E-216
   15.9243750000000         4.825340997145289E-215
   16.1381250000000         8.952403520695173E-214
   16.3518750000000         1.442753417038001E-212
   16.5656250000000         2.051675475851218E-211
   16.7793750000000         2.606256089690156E-210
   16.9931250000000         2.985935790762318E-209
   17.2068750000000         3.108355144585617E-208
   17.4206250000000         2.956807556489097E-207
   17.6343750000000         2.580621277499161E-206
   17.8481250000000         2.071723708425723E-205
   18.0618750000000         1.531124271148394E-204
   18.2756250000000         1.040391905774876E-203
   18.4893750000000         6.470768214003267E-203
   18.7031250000000         3.647280369518559E-202
   18.9168750000000         1.823843610417196E-201
   19.1306250000000         7.689376020739700E-201
   19.3443750000000         2.313487792706120E-200
   19.5581250000000         7.309584842086935E-202
   19.7718750000000        -7.100440366207584E-199
   19.9856250000000        -7.383879993630884E-198
   20.1993750000000        -5.487511167233504E-197
   20.4131250000000        -3.462146799084433E-196
   20.6268750000000        -1.957906293861474E-195
   20.8406250000000        -1.017146939127408E-194
   21.0543750000000        -4.919995680473482E-194
   21.2681250000000        -2.234598438198772E-193
   21.4818750000000        -9.587146150071278E-193
   21.6956250000000        -3.904430242676657E-192
   21.9093750000000        -1.516476012534236E-191
   22.1231250000000        -5.646434582160844E-191
   22.3368750000000        -2.028232038955753E-190
   22.5506250000000        -7.084113609588395E-190
   22.7643750000000        -2.428438242627210E-189
   22.9781250000000        -8.249660824769564E-189
   23.1918750000000        -2.798519741009414E-188
   23.4056250000000        -9.505080118332697E-188
   23.6193750000000        -3.218219856813734E-187
   23.8331250000000        -1.073810072975977E-186
   24.0468750000000        -3.470048637849455E-186
   24.2606250000000        -1.060836722927063E-185
   24.4743750000000        -2.962461187053522E-185
   24.6881250000000        -7.048962402803625E-185
   24.9018750000000        -1.134987700032687E-184
   25.1156250000000         8.843966435239129E-185
   25.3293750000000         1.912631151612712E-183
   25.5431250000000         1.141983481899633E-182
   25.7568750000000         5.196704320819170E-182
   25.9706250000000         2.053884752082999E-181
   26.1843750000000         7.367926135592850E-181
   26.3981250000000         2.446701862953184E-180
   26.6118750000000         7.595128969491732E-180
   26.8256250000000         2.214369107502765E-179
   27.0393750000000         6.072314505295690E-179
   27.2531250000000         1.564344501047124E-178
   27.4668750000000         3.771305751446050E-178
   27.6806250000000         8.445935362568396E-178
   27.8943750000000         1.735405685892524E-177
   28.1081250000000         3.203684439255394E-177
   28.3218750000000         5.123069724686563E-177
   28.5356250000000         6.649680503761915E-177
   28.7493750000000         6.490790178013035E-177
   28.9631250000000         8.472567696231254E-177
   29.1768750000000         4.920366555331422E-176
   29.3906250000000         2.991555533230152E-175
   29.6043750000000         1.375099112805468E-174
   29.8181250000000         5.195965453602781E-174
   30.0318750000000         1.709873013031697E-173
   30.2456250000000         5.057842249890710E-173
   30.4593750000000         1.368338661940626E-172
   30.6731250000000         3.416045479984563E-172
   30.8868750000000         7.893773219155787E-172
   31.1006250000000         1.684625157100206E-171
   31.3143750000000         3.291031872520424E-171
   31.5281250000000         5.767371090598870E-171
   31.7418750000000         8.650644197024494E-171
   31.9556250000000         9.643712499484591E-171
   32.1693750000000         2.331223543847878E-171
   32.3831250000000        -2.712525143375757E-170
   32.5968750000000        -1.026293018443149E-169
   32.8106250000000        -2.545444549433179E-169
   33.0243750000000        -4.977089192967461E-169
   33.2381250000000        -7.736763484105836E-169
   33.4518750000000        -8.535276328231126E-169
   33.6656250000000        -2.817636423459319E-169
   33.8793750000000         1.284716620062015E-168
   34.0931250000000         2.299191993295216E-168
   34.3068750000000        -6.377970707738350E-168
   34.5206250000000        -5.608911865416542E-167
   34.7343750000000        -2.320766304428312E-166
   34.9481250000000        -7.318150397868599E-166
   35.1618750000000        -1.951065777826501E-165
   35.3756250000000        -4.561437514143180E-165
   35.5893750000000        -9.439882787530208E-165
   35.8031250000000        -1.708201660742717E-164
   36.0168750000000        -2.571072781567760E-164
   36.2306250000000        -2.667063725135764E-164
   36.4443750000000         4.896594009646067E-165
   36.6581250000000         1.258389434353207E-163
   36.8718750000000         4.457870836709644E-163
   37.0856250000000         1.141192677395658E-162
   37.2993750000000         2.426598048709449E-162
   37.5131250000000         4.400511417768038E-162
   37.7268750000000         6.610171798182962E-162
   37.9406250000000         7.096241499023410E-162
   38.1543750000000         6.560130036193251E-163
   38.3681250000000        -2.371328276175919E-161
   38.5818750000000        -8.538266923283630E-161
   38.7956250000000        -2.117560889349480E-160
   39.0093750000000        -4.279183799752327E-160
   39.2231250000000        -7.222642353518552E-160
   39.4368750000000        -9.653760266867922E-160
   39.6506250000000        -7.537529480031380E-160
   39.8643750000000         8.391043737261447E-160
   40.0781250000000         5.565862517387584E-159
   40.2918750000000         1.617443618189472E-158
   40.5056250000000         3.594284233059139E-158
   40.7193750000000         6.654468784166682E-158
   40.9331250000000         1.024725727531495E-157
   41.1468750000000         1.195732780066341E-157
   41.3606250000000         5.544114577351542E-158
   41.5743750000000        -2.177795059965464E-157
   41.7881250000000        -9.191244841701678E-157
   42.0018750000000        -2.355365780722022E-156
   42.2156250000000        -4.827360901328360E-156
   42.4293750000000        -8.336474143842877E-156
   42.6431250000000        -1.192913159846180E-155
   42.8568750000000        -1.250139539723676E-155
   43.0706250000000        -2.994054608126521E-156
   43.2843750000000         2.969880358458001E-155
   43.4981250000000         1.058775228536830E-154
   43.7118750000000         2.503440522522007E-154
   43.9256250000000         4.804720875241562E-154
   44.1393750000000         7.768057614560910E-154
   44.3531250000000         1.026517481902001E-153
   44.5668750000000         9.339267207324686E-154
   44.7806250000000        -9.165749030425636E-155
   44.9943750000000        -3.022561263572443E-153
   45.2081250000000        -9.156177418653576E-153
   45.4218750000000        -1.969533077440585E-152
   45.6356250000000        -3.463461479839097E-152
   45.8493750000000        -5.057767188771801E-152
   46.0631250000000        -5.729410574520746E-152
   46.2768750000000        -3.350346570352023E-152
   46.4906250000000         5.610838677875699E-152
   46.7043750000000         2.580100523274255E-151
   46.9181250000000         6.129043449794236E-151
   47.1318750000000         1.113456434579385E-150
   47.3456250000000         1.626161633843362E-150
   47.5593750000000         1.778364567940665E-150
   47.7731250000000         8.440255016747093E-151
   47.9868750000000        -2.272895955887624E-150
   48.2006250000000        -8.755534814986384E-150
   48.4143750000000        -1.896780503875765E-149
   48.6281250000000        -3.053267295943106E-149
   48.8418750000000        -3.515720276358096E-149
   49.0556250000000        -1.464655809088570E-149
   49.2693750000000         6.180707165333523E-149
   49.4831250000000         2.339123597871706E-148
   49.6968750000000         5.304037355645873E-148
   49.9106250000000         9.181437445861164E-148
   50.1243750000000         1.203123222783821E-147
   50.3381250000000         8.746322789483388E-148
   50.5518750000000        -1.083492991764216E-147
   50.7656250000000        -6.313749257975882E-147
   50.9793750000000        -1.689417278930650E-146
   51.1931250000000        -3.437356489499793E-146
   51.4068750000000        -5.731071817779236E-146
   51.6206250000000        -7.642803282629861E-146
   51.8343750000000        -6.672716163333093E-146
   52.0481250000000         2.286197428815109E-146
   52.2618750000000         2.786207967068880E-145
   52.4756250000000         8.202037171066262E-145
   52.6893750000000         1.768157489286159E-144
   52.9031250000000         3.148005635734939E-144
   53.1168750000000         4.685864664111928E-144
   53.3306250000000         5.450201650914154E-144
   53.5443750000000         3.327962661447467E-144
   53.7581250000000        -5.572351800181132E-144
   53.9718750000000        -2.727249943374676E-143
   54.1856250000000        -6.931448066390119E-143
   54.3993750000000        -1.378831953569829E-142
   54.6131250000000        -2.306679389130017E-142
   54.8268750000000        -3.230042768131609E-142
   55.0406250000000        -3.453283197687141E-142
   55.2543750000000        -1.527505917250122E-142
   55.4681250000000         5.053605096349111E-142
   55.6818750000000         1.994017621261490E-141
   55.8956250000000         4.735027034411717E-141
   56.1093750000000         9.007935392205036E-141
   56.3231250000000         1.450287300860859E-140
   56.5368750000000         1.950732433983598E-140
   56.7506250000000         1.965944608668071E-140
   56.9643750000000         6.383085594621106E-141
   57.1781250000000        -3.446816766044151E-140
   57.3918750000000        -1.224832373565033E-139
   57.6056250000000        -2.786694912893126E-139
   57.8193750000000        -5.137046403485986E-139
   58.0331250000000        -8.034281050855235E-139
   58.2468750000000        -1.046668511989188E-138
   58.4606250000000        -1.004077309671890E-138
   58.6743750000000        -2.268934200294443E-139
   58.8881250000000         1.994386487320348E-138
   59.1018750000000         6.595891391830367E-138
   59.3156250000000         1.450486409916669E-137
   59.5293750000000         2.603018108525574E-137
   59.7431250000000         3.966962439587307E-137
   59.9568750000000         5.016228917829275E-137
   60.1706250000000         4.581907708834059E-137
   60.3843750000000         5.667343951625256E-138
   60.5981250000000        -1.021034334613897E-136
   60.8118750000000        -3.174083377248635E-136
   61.0256250000000        -6.762919831868016E-136
   61.2393750000000        -1.182812826297576E-135
   61.4531250000000        -1.757181430278623E-135
   61.6668750000000        -2.155372074589983E-135
   61.8806250000000        -1.865377448558566E-135
   62.0943750000000        -7.027384046862628E-138
   62.3081250000000         4.699585299536264E-135
   62.5218750000000         1.377592538443103E-134
   62.7356250000000         2.844845889214859E-134
   62.9493750000000         4.848912029914164E-134
   63.1631250000000         7.019302497103589E-134
   63.3768750000000         8.340437715956496E-134
   63.5906250000000         6.792123419195327E-134
   63.8043750000000        -9.557008635154583E-135
   64.0181250000000        -1.954148770295153E-133
   64.2318750000000        -5.416501671760695E-133
   64.4456250000000        -1.084532604453498E-132
   64.6593750000000        -1.801698025091903E-132
   64.8731250000000        -2.541208296376601E-132
   65.0868750000000        -2.922629405453929E-132
   65.3006250000000        -2.225717542004451E-132
   65.5143750000000         6.892882673785534E-133
   65.7281250000000         7.342408467165293E-132
   65.9418750000000         1.933325256345138E-131
   66.1556250000000         3.758357128359764E-131
   66.3693750000000         6.090829832240671E-131
   66.5831250000000         8.376983717309272E-131
   66.7968750000000         9.331017370596992E-131
   67.0106250000000         6.626455152747736E-131
   67.2243750000000        -3.277370575736110E-131
   67.4381250000000        -2.490302402772419E-130
   67.6518750000000        -6.270119224211126E-130
   67.8656250000000        -1.186411176999612E-129
   68.0793750000000        -1.879137970020718E-129
   68.2931250000000        -2.524958089174918E-129
   68.5068750000000        -2.730887785701671E-129
   68.7206250000000        -1.814365448112811E-129
   68.9343750000000         1.226092955620615E-129
   69.1481250000000         7.617326545005444E-129
   69.3618750000000         1.848563353322258E-128
   69.5756250000000         3.416693803474886E-128
   69.7893750000000         5.303664236370640E-128
   70.0031250000000         6.983419738794230E-128
   70.2168750000000         7.367394804136960E-128
   70.4306250000000         4.632310513139516E-128
   70.6443750000000        -3.808847772972215E-128
   70.8581250000000        -2.100293650770024E-127
   71.0718750000000        -4.955913490220323E-127
   71.2856250000000        -8.986500155519969E-127
   71.4993750000000        -1.371916950606042E-126
   71.7131250000000        -1.777197716723789E-126
   71.9268750000000        -1.840614368089515E-126
   72.1406250000000        -1.117730132795037E-126
   72.3543750000000         1.003473199454015E-126
   72.5681250000000         5.218523753276610E-126
   72.7818750000000         1.208487828095370E-125
   72.9956250000000         2.160381858965524E-125
   73.2093750000000         3.256808370170951E-125
   73.4231250000000         4.170018918438433E-125
   73.6368750000000         4.272920687025788E-125
   73.8506250000000         2.574949035055292E-125
   74.0643750000000        -2.253203671941104E-125
   74.2781250000000        -1.167642900504823E-124
   74.4918750000000        -2.680239266699463E-124
   74.7056250000000        -4.749098860195756E-124
   74.9193750000000        -7.101173439226653E-124
   75.1331250000000        -9.033114199478252E-124
   75.3468750000000        -9.236191532745219E-124
   75.5606250000000        -5.688442992384086E-124
   75.7743750000000         4.266497802472609E-124
   75.9881250000000         2.348478214884624E-123
   76.2018750000000         5.403159072086655E-123
   76.4156250000000         9.545370522689423E-123
   76.6293750000000         1.422511612853659E-122
   76.8431250000000         1.807490933821981E-122
   77.0568750000000         1.860306321405106E-122
   77.2706250000000         1.202577977970864E-122
   77.4843750000000        -6.548062010611921E-123
   77.6981250000000        -4.228785722798803E-122
   77.9118750000000        -9.883735817604558E-122
   78.1256250000000        -1.752597040316383E-121
   78.3393750000000        -2.616754005677621E-121
   78.5531250000000        -3.340014092976246E-121
   78.7668750000000        -3.489664768075425E-121
   78.9806250000000        -2.416449298531377E-121
   79.1943750000000         7.100472800907293E-122
   79.4081250000000         6.760009608513526E-121
   79.6218750000000         1.634591957226842E-120
   79.8356250000000         2.933008255247838E-120
   80.0493750000000         4.413510563461228E-120
   80.2631250000000         5.692836068401585E-120
   80.4768750000000         6.086743260420655E-120
   80.6906250000000         4.574917464043186E-120
   80.9043750000000        -1.420851697636306E-121
   81.1181250000000        -9.427667742119605E-120
   81.3318750000000        -2.426606736708834E-119
   81.5456250000000        -4.454036233502698E-119
   81.7593750000000        -6.803542336265403E-119
   81.9731250000000        -8.927295081985933E-119
   82.1868750000000        -9.844417267858437E-119
   82.4006250000000        -8.091178974832064E-119
   82.6143750000000        -1.797520053926356E-119
   82.8281250000000         1.102323354480355E-118
   83.0418750000000         3.188223976097942E-118
   83.2556250000000         6.085808120119036E-118
   83.4693750000000         9.528381761739077E-118
   83.6831250000000         1.282173326574649E-117
   83.8968750000000         1.470281256673057E-117
   84.1106250000000         1.326794367020477E-117
   84.3243750000000         6.054264658754538E-118
   84.5381250000000        -9.622458239749129E-118
   84.7518750000000        -3.596902119214532E-117
   84.9656250000000        -7.358190188867825E-117
   85.1793750000000        -1.198880285938003E-116
   85.3931250000000        -1.673100639281691E-116
   85.6068750000000        -2.015159182963880E-116
   85.8206250000000        -2.003719752694404E-116
   86.0343750000000        -1.344883836611485E-116
   86.2481250000000         2.955293216433869E-117
   86.4618750000000         3.221719609580445E-116
   86.6756250000000         7.591401233571310E-116
   86.8893750000000         1.325225392603797E-115
   87.1031250000000         1.954360990726784E-115
   87.3168750000000         2.509454853154919E-115
   87.5306250000000         2.767295869143902E-115
   87.7443750000000         2.416463441800523E-115
   87.9581250000000         1.078132896757163E-115
   88.1718750000000        -1.639608532602045E-115
   88.3856250000000        -6.044801298945459E-115
   88.5993750000000        -1.221747919908293E-114
   88.8131250000000        -1.982223838017140E-114
   89.0268750000000        -2.789378953563649E-114
   89.2406250000000        -3.462768263490090E-114
   89.4543750000000        -3.722657530517257E-114
   89.6681250000000        -3.187102486223082E-114
   89.8818750000000        -1.390069532923674E-114
   90.0956250000000         2.169492889621482E-114
   90.3093750000000         7.936951431653595E-114
   90.5231250000000         1.615896645863093E-113
   90.7368750000000         2.667868295309364E-113
   90.9506250000000         3.866318992308006E-113
   91.1643750000000         5.026540118307199E-113
   91.3781250000000         5.823921658090784E-113
   91.5918750000000         5.755827578695130E-113
   91.8056250000000         4.114256603404071E-113
   92.0193750000000        -1.190991844661108E-115
   92.2331250000000        -7.674673888237456E-113
   92.4468750000000        -1.990048015231090E-112
   92.6606250000000        -3.736259155554347E-112
   92.8743750000000        -5.983037357167617E-112
   93.0881250000000        -8.534771739195616E-112
   93.3018750000000        -1.091418285261962E-111
   93.5156250000000        -1.223661352297504E-111
   93.7293750000000        -1.109539928527848E-111
   93.9431250000000        -5.510955247645885E-112
   94.1568750000000         6.972870276266211E-112
   94.3706250000000         2.893056450777228E-111
   94.5843750000000         6.230065195231102E-111
   94.7981250000000         1.071117369769975E-110
   95.0118750000000         1.596315575027837E-110
   95.2256250000000         2.100328722672114E-110
   95.4393750000000         2.399317254304243E-110
   95.6531250000000         2.205353992528520E-110
   95.8668750000000         1.126141797121452E-110
   96.0806250000000        -1.299988582157153E-110
   96.2943750000000        -5.513329845505639E-110
   96.5081250000000        -1.176639855156331E-109
   96.7218750000000        -1.986993153085418E-109
   96.9356250000000        -2.885844803006490E-109
   97.1493750000000        -3.661612156962802E-109
   97.3631250000000        -3.955290989956127E-109
   97.5768750000000        -3.248261345423949E-109
   97.7906250000000        -8.918779946297105E-110
   98.0043750000000         3.794816403572244E-109
   98.2181250000000         1.133284623487701E-108
   98.4318750000000         2.177867349325337E-108
   98.6456250000000         3.431090774661258E-108
   98.8593750000000         4.675042238971360E-108
   99.0731250000000         5.511240705293012E-108
   99.2868750000000         5.336004726071609E-108
   99.5006250000000         3.360444681666934E-108
   99.7143750000000        -1.294684904067697E-108
   99.9281250000000        -9.398202615376112E-108
   100.141875000000        -2.127903561385747E-107
   100.355625000000        -3.636744510505366E-107
   100.569375000000        -5.264620160906767E-107
   100.783125000000        -6.611011184680414E-107
   100.996875000000        -7.040733233413190E-107
   101.210625000000        -5.691592454869767E-107
   101.424375000000        -1.557326750183370E-107
   101.638125000000         6.320768292201106E-107
   101.851875000000         1.852743156059715E-106
   102.065625000000         3.480697451209512E-106
   102.279375000000         5.348977033335178E-106
   102.493125000000         7.090201947438160E-106
   102.706875000000         8.092251161763642E-106
   102.920625000000         7.492956526074217E-106
   103.134375000000         4.244762052071086E-106
   103.348125000000        -2.717338723206612E-106
   103.561875000000        -1.417701568172673E-105
   103.775625000000        -3.019748853450947E-105
   103.989375000000        -4.956674889456697E-105
   104.203125000000        -6.920361034475411E-105
   104.416875000000        -8.366825463029120E-105
   104.630625000000        -8.499496122539172E-105
   104.844375000000        -6.312900987509035E-105
   105.058125000000        -7.278814781623451E-106
   105.271875000000         9.154522390318927E-105
   105.485625000000         2.366790970857262E-104
   105.699375000000         4.207990308850095E-104
   105.913125000000         6.203586094888849E-104
   106.126875000000         7.906455052461798E-104
   106.340625000000         8.632845539235622E-104
   106.554375000000         7.486025778005344E-104
   106.768125000000         3.455891899755746E-104
   106.981875000000        -4.380379671578625E-104
   107.195625000000        -1.654235216140332E-103
   107.409375000000        -3.272289988837442E-103
   107.623125000000        -5.130029994620173E-103
   107.836875000000        -6.887586840614262E-103
   108.050625000000        -7.998127617307950E-103
   108.264375000000        -7.715071040870166E-103
   108.478125000000        -5.158495953771619E-103
   108.691875000000         5.374153118265677E-104
   108.905625000000         9.981433420339976E-103
   109.119375000000         2.318856341122318E-102
   109.333125000000         3.917770084659111E-102
   109.546875000000         5.556805616335054E-102
   109.760625000000         6.828147095391379E-102
   109.974375000000         7.149973129698454E-102
   110.188125000000         5.805550501005582E-102
   110.401875000000         2.043666835795535E-102
   110.615625000000        -4.746203777234720E-102
   110.829375000000        -1.478168611814415E-101
   111.043125000000        -2.757472233738954E-101
   111.256875000000        -4.160118898978352E-101
   111.470625000000        -5.402796451069988E-101
   111.684375000000        -6.060532442682013E-101
   111.898125000000        -5.585799199148914E-101
   112.111875000000        -3.371497978325995E-101
   112.325625000000         1.130691960496492E-101
   112.539375000000         8.232196672951071E-101
   112.753125000000         1.777790054479577E-100
   112.966875000000         2.889158780856013E-100
   113.180625000000         3.974603307338658E-100
   113.394375000000         4.743172522253066E-100
   113.608125000000         4.801877441000480E-100
   113.821875000000         3.691564909858639E-100
   114.035625000000         9.616710497676843E-101
   114.249375000000        -3.711160518447753E-100
   114.463125000000        -1.036364284718751E-099
   114.676875000000        -1.856076908938727E-099
   114.890625000000        -2.721590716971542E-099
   115.104375000000        -3.446418867664897E-099
   115.318125000000        -3.765295968361004E-099
   115.531875000000        -3.352212851477517E-099
   115.745625000000        -1.864355939667468E-099
   115.959375000000         9.834419247379505E-100
   116.173125000000         5.313951801363429E-099
   116.386875000000         1.096032734053512E-098
   116.600625000000         1.733440499823501E-098
   116.814375000000         2.332021835196625E-098
   117.028125000000         2.723366243145119E-098
   117.241875000000         2.689699885294680E-098
   117.455625000000         1.987722922759950E-098
   117.669375000000         3.925906088001653E-099
   117.883125000000        -2.236930787665835E-098
   118.096875000000        -5.875651935087995E-098
   118.310625000000        -1.024132285687042E-097
   118.524375000000        -1.471354769025196E-097
   118.738125000000        -1.828728517811428E-097
   118.951875000000        -1.959193848437498E-097
   119.165625000000        -1.700892218799494E-097
   119.379375000000        -8.915625189128843E-098
   119.593125000000         5.930804432959379E-098
   119.806875000000         2.788231549635823E-097
   120.020625000000         5.581137572798737E-097
   120.234375000000         8.654141271348238E-097
   120.448125000000         1.144422391853651E-096
   120.661875000000         1.313787473752358E-096
   120.875625000000         1.272221854595282E-096
   121.089375000000         9.111626240657707E-097
   121.303125000000         1.361818767870364E-097
   121.516875000000        -1.103056498796858E-096
   121.730625000000        -2.776624987822327E-096
   121.944375000000        -4.737022051625868E-096
   122.158125000000        -6.688848678732461E-096
   122.371875000000        -8.176395083572880E-096
   122.585625000000        -8.601809809722088E-096
   122.799375000000        -7.286242827397827E-096
   123.013125000000        -3.583012257801953E-096
   123.226875000000         2.955423800678047E-096
   123.440625000000         1.236650729539923E-095
   123.654375000000         2.404797842162815E-095
   123.868125000000         3.655290065189308E-095