  -1.60312500000000         0.000000000000000E+000
  -1.38937500000000         0.000000000000000E+000
  -1.17562500000000         0.000000000000000E+000
 -0.961875000000000         0.000000000000000E+000
 -0.748125000000000         0.000000000000000E+000
 -0.534375000000000         0.000000000000000E+000
 -0.320625000000000         0.000000000000000E+000
 -0.106875000000000         0.000000000000000E+000
  0.106875000000000         0.000000000000000E+000
  0.320625000000000         0.000000000000000E+000
  0.534375000000000         0.000000000000000E+000
  0.748125000000000         0.000000000000000E+000
  0.961875000000000         0.000000000000000E+000
   1.17562500000000         0.000000000000000E+000
   1.38937500000000         0.000000000000000E+000
   1.60312500000000         0.000000000000000E+000
   1.81687500000000         0.000000000000000E+000
   2.03062500000000         0.000000000000000E+000
   2.24437500000000         0.000000000000000E+000
   2.45812500000000         0.000000000000000E+000
   2.67187500000000         0.000000000000000E+000
   2.88562500000000         0.000000000000000E+000
   3.09937500000000         0.000000000000000E+000
   3.31312500000000         0.000000000000000E+000
   3.52687500000000         0.000000000000000E+000
   3.74062500000000         0.000000000000000E+000
   3.95437500000000         0.000000000000000E+000
   4.16812500000000         0.000000000000000E+000
   4.38187500000000         0.000000000000000E+000
   4.59562500000000         0.000000000000000E+000
   4.80937500000000         0.000000000000000E+000
   5.02312500000000         0.000000000000000E+000
   5.23687500000000         0.000000000000000E+000
   5.45062500000000         0.000000000000000E+000
   5.66437500000000         0.000000000000000E+000
   5.87812500000000         0.000000000000000E+000
   6.09187500000000         0.000000000000000E+000
   6.30562500000000         0.000000000000000E+000
   6.51937500000000         0.000000000000000E+000
   6.73312500000000         0.000000000000000E+000
   6.94687500000000         0.000000000000000E+000
   7.16062500000000         0.000000000000000E+000
   7.37437500000000         0.000000000000000E+000
   7.58812500000000         0.000000000000000E+000
   7.80187500000000         0.000000000000000E+000
   8.01562500000000         0.000000000000000E+000
   8.22937500000000         0.000000000000000E+000
   8.44312500000000         0.000000000000000E+000
   8.65687500000000         0.000000000000000E+000
   8.87062500000000         0.000000000000000E+000
   9.08437500000000         0.000000000000000E+000
   9.29812500000000         0.000000000000000E+000
   9.51187500000000         0.000000000000000E+000
   9.72562500000000         0.000000000000000E+000
   9.93937500000000         0.000000000000000E+000
   10.1531250000000         0.000000000000000E+000
   10.3668750000000         0.000000000000000E+000
   10.5806250000000         0.000000000000000E+000
   10.7943750000000         0.000000000000000E+000
   11.0081250000000         0.000000000000000E+000
   11.2218750000000         0.000000000000000E+000
   11.4356250000000         0.000000000000000E+000
   11.6493750000000         0.000000000000000E+000
   11.8631250000000         0.000000000000000E+000
   12.0768750000000         0.000000000000000E+000
   12.2906250000000         0.000000000000000E+000
   12.5043750000000         0.000000000000000E+000
   12.7181250000000         0.000000000000000E+000
   12.9318750000000         0.000000000000000E+000
   13.1456250000000         0.000000000000000E+000
   13.3593750000000         2.766871959593082E-265
   13.5731250000000         3.556976573027801E-255
   13.7868750000000        -1.794981995669338E-243
   14.0006250000000         5.273114513049923E-239
   14.2143750000000        -4.466729564374917E-237
   14.4281250000000        -2.908341219239680E-235
   14.6418750000000         1.892057966126895E-233
   14.8556250000000         2.485598253515248E-231
   15.0693750000000         1.275363387760193E-229
   15.2831250000000         4.229386496896789E-228
   15.4968750000000         1.035844435638683E-226
   15.7106250000000         1.989090181296876E-225
   15.9243750000000         3.081467318165412E-224
   16.1381250000000         3.871898390537897E-223
   16.3518750000000         3.833286216406255E-222
   16.5656250000000         2.611112851145065E-221
   16.7793750000000         2.299594370972459E-221
   16.9931250000000        -2.880990237005574E-219
   17.2068750000000        -6.052559475532189E-218
   17.4206250000000        -8.627968669853076E-217
   17.6343750000000        -1.017230531254348E-215
   17.8481250000000        -1.056014837402352E-214
   18.0618750000000        -9.939707026341464E-214
   18.2756250000000        -8.623776389529973E-213
   18.4893750000000        -6.968130011923945E-212
   18.7031250000000        -5.279415013082664E-211
   18.9168750000000        -3.768101618461077E-210
   19.1306250000000        -2.541745767886164E-209
   19.3443750000000        -1.624113288039021E-208
   19.5581250000000        -9.847283372089606E-208
   19.7718750000000        -5.673086078361064E-207
   19.9856250000000        -3.109188554754399E-206
   20.1993750000000        -1.623097899122919E-205
   20.4131250000000        -8.083234999903245E-205
   20.6268750000000        -3.848654752230495E-204
   20.8406250000000        -1.757598067839686E-203
   21.0543750000000        -7.736525325524144E-203
   21.2681250000000        -3.306311459942743E-202
   21.4818750000000        -1.385843614017372E-201
   21.6956250000000        -5.769847372993909E-201
   21.9093750000000        -2.417941945709606E-200
   22.1231250000000        -1.030175865033842E-199
   22.3368750000000        -4.475358962492530E-199
   22.5506250000000        -1.971908222738638E-198
   22.7643750000000        -8.716279064954893E-198
   22.9781250000000        -3.817482510790432E-197
   23.1918750000000        -1.638983696472160E-196
   23.4056250000000        -6.844517263600794E-196
   23.6193750000000        -2.766537873780584E-195
   23.8331250000000        -1.079449636072527E-194
   24.0468750000000        -4.061943500989854E-194
   24.2606250000000        -1.474716580431517E-193
   24.4743750000000        -5.173873485262008E-193
   24.6881250000000        -1.758983852672170E-192
   24.9018750000000        -5.818637163425850E-192
   25.1156250000000        -1.883140213783506E-191
   25.3293750000000        -6.003480144943358E-191
   25.5431250000000        -1.899592239061188E-190
   25.7568750000000        -6.007960253266952E-190
   25.9706250000000        -1.908705826426605E-189
   26.1843750000000        -6.098836883927274E-189
   26.3981250000000        -1.954371746348360E-188
   26.6118750000000        -6.242143428878865E-188
   26.8256250000000        -1.971437710987731E-187
   27.0393750000000        -6.106579731086267E-187
   27.2531250000000        -1.841122900528598E-186
   27.4668750000000        -5.366383674932504E-186
   27.6806250000000        -1.502581315249092E-185
   27.8943750000000        -4.015074258008072E-185
   28.1081250000000        -1.015817184071855E-184
   28.3218750000000        -2.406507839450249E-184
   28.5356250000000        -5.242621301664905E-184
   28.7493750000000        -1.014165851781865E-183
   28.9631250000000        -1.597098902829545E-183
   29.1768750000000        -1.402103353192004E-183
   29.3906250000000         2.800411433385133E-183
   29.6043750000000         2.026983749296257E-182
   29.8181250000000         7.303502160747735E-182
   30.0318750000000         2.035798896297086E-181
   30.2456250000000         4.670853017618616E-181
   30.4593750000000         8.447867172216152E-181
   30.6731250000000         8.840751574915542E-181
   30.8868750000000        -1.450973767854541E-180
   31.1006250000000        -1.294434431794296E-179
   31.3143750000000        -5.292957343008614E-179
   31.5281250000000        -1.707440537013246E-178
   31.7418750000000        -4.811908703192060E-178
   31.9556250000000        -1.229200692841241E-177
   32.1693750000000        -2.892218522705946E-177
   32.3831250000000        -6.308338252145445E-177
   32.5968750000000        -1.275504921862352E-176
   32.8106250000000        -2.375543788950095E-176
   33.0243750000000        -4.009468409469355E-176
   33.2381250000000        -5.901047876932609E-176
   33.4518750000000        -6.765594757983804E-176
   33.6656250000000        -2.940604530371246E-176
   33.8793750000000         1.437062207454626E-175
   34.0931250000000         6.476772653977121E-175
   34.3068750000000         1.910884868491558E-174
   34.5206250000000         4.884165778975586E-174
   34.7343750000000         1.172933423465819E-173
   34.9481250000000         2.739548495583439E-173
   35.1618750000000         6.293906710147047E-173
   35.3756250000000         1.416269854379566E-172
   35.5893750000000         3.077208011100942E-172
   35.8031250000000         6.321965591896530E-172
   36.0168750000000         1.192237167615008E-171
   36.2306250000000         1.958098956661252E-171
   36.4443750000000         2.429640041971157E-171
   36.6581250000000         7.002929170296521E-172
   36.8718750000000        -8.614864382196556E-171
   37.0856250000000        -3.838448588028454E-170
   37.2993750000000        -1.156200924805898E-169
   37.5131250000000        -2.903769846155107E-169
   37.7268750000000        -6.428609533207574E-169
   37.9406250000000        -1.276382065532644E-168
   38.1543750000000        -2.268415343817686E-168
   38.3681250000000        -3.529304244111013E-168
   38.5818750000000        -4.494801746599558E-168
   38.7956250000000        -3.576219986353762E-168
   39.0093750000000         2.646150509064616E-168
   39.2231250000000         2.031567623868940E-167
   39.4368750000000         5.877404269978674E-167
   39.6506250000000         1.297811210725482E-166
   39.8643750000000         2.449192012219611E-166
   40.0781250000000         4.129929389106037E-166
   40.2918750000000         6.463809434249158E-166
   40.5056250000000         1.000464119700123E-165
   40.7193750000000         1.693875321036422E-165
   40.9331250000000         3.377438154278104E-165
   41.1468750000000         7.591781775538356E-165
   41.3606250000000         1.726687751982420E-164
   41.5743750000000         3.655300807208258E-164
   41.7881250000000         6.799101557022285E-164
   42.0018750000000         1.026629370136454E-163
   42.2156250000000         9.550356573135834E-164
   42.4293750000000        -8.529426126328522E-164
   42.6431250000000        -7.443934338252902E-163
   42.8568750000000        -2.473805954904820E-162
   43.0706250000000        -6.236551435762547E-162
   43.2843750000000        -1.324232352451033E-161
   43.4981250000000        -2.422065964751739E-161
   43.7118750000000        -3.737202573692003E-161
   43.9256250000000        -4.392829690213928E-161
   44.1393750000000        -2.018280411382310E-161
   44.3531250000000         8.423616273173524E-161
   44.5668750000000         3.588576351740818E-160
   44.7806250000000         9.351272325717194E-160
   44.9943750000000         1.954929664971966E-159
   45.2081250000000         3.459058976657469E-159
   45.4218750000000         5.125480085610662E-159
   45.6356250000000         5.775876502828262E-159
   45.8493750000000         2.608006214956442E-159
   46.0631250000000        -9.730542863272552E-159
   46.2768750000000        -3.973251507647357E-158
   46.4906250000000        -9.807820419319219E-158
   46.7043750000000        -1.928431755854874E-157
   46.9181250000000        -3.172971187403418E-157
   47.1318750000000        -4.260001737387368E-157
   47.3456250000000        -3.964136274699084E-157
   47.5593750000000         1.995916491704443E-158
   47.7731250000000         1.236318967397685E-156
   47.9868750000000         3.807384093187805E-156
   48.2006250000000         8.244432401664455E-156
   48.4143750000000         1.451152275720235E-155
   48.6281250000000         2.100859877597306E-155
   48.8418750000000         2.289708994681565E-155
   49.0556250000000         9.882570035298099E-156
   49.2693750000000        -3.578209892483529E-155
   49.4831250000000        -1.390639079649687E-154
   49.6968750000000        -3.257129064650785E-154
   49.9106250000000        -6.031683777635810E-154
   50.1243750000000        -9.203211986408696E-154
   50.3381250000000        -1.098388162866520E-153
   50.5518750000000        -7.330758602063686E-154
   50.7656250000000         9.097817570268912E-154
   50.9793750000000         4.938017523602515E-153
   51.1931250000000         1.267362801520514E-152
   51.4068750000000         2.504121303211915E-152
   51.6206250000000         4.114129174192514E-152
   51.8343750000000         5.558867844424439E-152
   52.0481250000000         5.433592770942222E-152
   52.2618750000000         9.280902283293964E-153
   52.4756250000000        -1.266647792877977E-151
   52.6893750000000        -4.197582537662356E-151
   52.9031250000000        -9.423747392682695E-151
   53.1168750000000        -1.732566084610532E-150
   53.3306250000000        -2.706191508305292E-150
   53.5443750000000        -3.499076511622271E-150
   53.7581250000000        -3.224980821689856E-150
   53.9718750000000        -1.673588600689333E-151
   54.1856250000000         8.501463729289128E-150
   54.3993750000000         2.673675134402787E-149
   54.6131250000000         5.890473071614490E-149
   54.8268750000000         1.075465987908270E-148
   55.0406250000000         1.684986018568022E-148
   55.2543750000000         2.220760008418513E-148
   55.4681250000000         2.194385356791424E-148
   55.6818750000000         6.495996101836240E-149
   55.8956250000000        -4.004995600667734E-148
   56.1093750000000        -1.402755552392247E-147
   56.3231250000000        -3.198712840800353E-147
   56.5368750000000        -5.959905541646047E-147
   56.7506250000000        -9.515578152155197E-147
   56.9643750000000        -1.288861284666289E-146
   57.1781250000000        -1.358304141240029E-146
   57.3918750000000        -6.677310455508736E-147
   57.6056250000000         1.600428979542968E-146
   57.8193750000000         6.597059432258090E-146
   58.0331250000000         1.561091145591458E-145
   58.2468750000000         2.946451348889740E-145
   58.4606250000000         4.722884632843238E-145
   58.6743750000000         6.398658535963419E-145
   58.8881250000000         6.755667091104047E-145
   59.1018750000000         3.462641795154347E-145
   59.3156250000000        -7.216763977656488E-145
   59.5293750000000        -3.028337918157117E-144
   59.7431250000000        -7.083642613413489E-144
   59.9568750000000        -1.310141497930627E-143
   60.1706250000000        -2.040260663973965E-143
   60.3843750000000        -2.645355487730749E-143
   60.5981250000000        -2.558245228142119E-143
   60.8118750000000        -7.688426828884157E-144
   61.0256250000000         4.225315840790172E-143
   61.2393750000000         1.423549126420112E-142
   61.4531250000000         3.072385142717615E-142
   61.6668750000000         5.336033907972523E-142
   61.8806250000000         7.750317230593056E-142
   62.0943750000000         9.054382278873788E-142
   62.3081250000000         6.767598841486532E-142
   62.5218750000000        -3.115106567725567E-142
   62.7356250000000        -2.594242212212228E-141
   62.9493750000000        -6.712328657674195E-141
   63.1631250000000        -1.288806009243194E-140
   63.3768750000000        -2.041027911724965E-140
   63.5906250000000        -2.667290697732824E-140
   63.8043750000000        -2.593715703834530E-140
   64.0181250000000        -8.157877595158947E-141
   64.2318750000000         4.132463631956012E-140
   64.4456250000000         1.397711425734518E-139
   64.6593750000000         3.005086156189524E-139
   64.8731250000000         5.191489032086421E-139
   65.0868750000000         7.501420515618478E-139
   65.3006250000000         8.733853405172673E-139
   65.5143750000000         6.559450338123594E-139
   65.7281250000000        -2.760605081883447E-139
   65.9418750000000        -2.424839977218204E-138
   66.1556250000000        -6.316902427382415E-138
   66.3693750000000        -1.223710512011469E-137
   66.5831250000000        -1.972184447669260E-137
   66.7968750000000        -2.675563906374279E-137
   67.0106250000000        -2.870043434639213E-137
   67.2243750000000        -1.717186937322356E-137
   67.4381250000000         2.060275233779535E-137
   67.6518750000000         1.009416964050393E-136
   67.8656250000000         2.398100096680020E-136
   68.0793750000000         4.437873554225864E-136
   68.2931250000000         6.937208986101623E-136
   68.5068750000000         9.197547969731419E-136
   68.7206250000000         9.691031253084532E-136
   68.9343750000000         5.733944069212034E-136
   69.1481250000000        -6.684723993600776E-136
   69.3618750000000        -3.263079550186456E-135
   69.5756250000000        -7.706639388856912E-135
   69.7893750000000        -1.422298830272723E-134
   70.0031250000000        -2.229537842831856E-134
   70.2168750000000        -2.995506229663206E-134
   70.4306250000000        -3.285907758479473E-134
   70.6443750000000        -2.333028636243699E-134
   70.8581250000000         1.023292728234823E-134
   71.0718750000000         8.283478674011871E-134
   71.2856250000000         2.100996438323249E-133
   71.4993750000000         4.017015345983942E-133
   71.7131250000000         6.493297331681974E-133
   71.9268750000000         9.079404754109615E-133
   72.1406250000000         1.070549308494448E-132
   72.3543750000000         9.400316057005493E-133
   72.5681250000000         2.069567426112703E-133
   72.7818750000000        -1.549242499319337E-132
   72.9956250000000        -4.807830843335651E-132
   73.2093750000000        -9.963947928149059E-132
   73.4231250000000        -1.704876275765298E-131
   73.6368750000000        -2.526971895515922E-131
   73.8506250000000        -3.235486848502463E-131
   74.0643750000000        -3.375133342444595E-131
   74.2781250000000        -2.185143947826472E-131
   74.4918750000000         1.438352954528043E-131
   74.7056250000000         8.876018605931198E-131
   74.9193750000000         2.151884491912560E-130
   75.1331250000000         4.017647943761359E-130
   75.3468750000000         6.402578340779675E-130
   75.5606250000000         8.900225015260085E-130
   75.7743750000000         1.056604743935848E-129
   75.9881250000000         9.678967510001623E-130
   76.2018750000000         3.551678191137596E-130
   76.4156250000000        -1.147074444306624E-129
   76.6293750000000        -3.959930124338928E-129
   76.8431250000000        -8.446254223260529E-129
   77.0568750000000        -1.468666564309854E-128
   77.2706250000000        -2.211090653160397E-128
   77.4843750000000        -2.897125489757865E-128
   77.6981250000000        -3.169659645382633E-128
   77.9118750000000        -2.426206129342415E-128
   78.1256250000000         2.139583060425785E-129
   78.3393750000000         5.863308148172219E-128
   78.5531250000000         1.566759450719035E-127
   78.7668750000000         3.036299109665314E-127
   78.9806250000000         4.949317930522137E-127
   79.1943750000000         7.022416550838895E-127
   79.4081250000000         8.579273439821049E-127
   79.6218750000000         8.381931534544278E-127
   79.8356250000000         4.503520974251898E-127
   80.0493750000000        -5.657630171908069E-127
   80.2631250000000        -2.506873974777419E-126
   80.4768750000000        -5.625433937499874E-126
   80.6906250000000        -9.976389280575086E-126
   80.9043750000000        -1.517381508929156E-125
   81.1181250000000        -2.005712245673147E-125
   81.3318750000000        -2.230320501506485E-125
   81.5456250000000        -1.808280390809670E-125
   81.7593750000000        -1.948650969799124E-126
   81.9731250000000         3.274714102351221E-125
   82.1868750000000         9.250076902898426E-125
   82.4006250000000         1.809027910285320E-124
   82.6143750000000         2.940765853997144E-124
   82.8281250000000         4.141904577396787E-124
   83.0418750000000         5.015623148901777E-124
   83.2556250000000         4.869784028821557E-124
   83.4693750000000         2.674645477930238E-124
   83.6831250000000        -2.892221384385812E-124
   83.8968750000000        -1.324038949854823E-123
   84.1106250000000        -2.941341125024149E-123
   84.3243750000000        -5.130720609594816E-123
   84.5381250000000        -7.652276001017905E-123
   84.7518750000000        -9.891797559211865E-123
   84.9656250000000        -1.071038845545218E-122
   85.1793750000000        -8.339880787303606E-123
   85.3931250000000        -4.096391626647540E-124
   85.6068750000000         1.577360212681915E-122
   85.8206250000000         4.254508467382280E-122
   86.0343750000000         8.065603335275332E-122
   86.2481250000000         1.274179427225305E-121
   86.4618750000000         1.742827438961083E-121
   86.6756250000000         2.041958505947382E-121
   86.8893750000000         1.894691282540969E-121
   87.1031250000000         9.145253938882743E-122
   87.3168750000000        -1.361407188009481E-121
   87.5306250000000        -5.379466458223698E-121
   87.7443750000000        -1.139337819984943E-120
   87.9581250000000        -1.918865054798092E-120
   88.1718750000000        -2.771148986803696E-120
   88.3856250000000        -3.464377227326030E-120
   88.5993750000000        -3.602351376313258E-120
   88.8131250000000        -2.608677971629198E-120
   89.0268750000000         2.407642700199729E-121
   89.2406250000000         5.703687984110157E-120
   89.4543750000000         1.433989760134235E-119
   89.6681250000000         2.613467474815086E-119
   89.8818750000000         3.997397633306788E-119
   90.0956250000000         5.301634893377730E-119
   90.3093750000000         6.008217743264583E-119
   90.5231250000000         5.328329476003589E-119
   90.7368750000000         2.223409856146973E-119
   90.9506250000000        -4.470675424904297E-119
   91.1643750000000        -1.576623839478911E-118
   91.3781250000000        -3.204983464560909E-118
   91.5918750000000        -5.239573095771147E-118
   91.8056250000000        -7.370702147550764E-118
   92.0193750000000        -8.981654477757562E-118
   92.2331250000000        -9.080772775014131E-118
   92.4468750000000        -6.296862146471291E-118
   92.6606250000000         1.005763530620476E-118
   92.8743750000000         1.442671523129941E-117
   93.0881250000000         3.498114442157361E-117
   93.3018750000000         6.226788129705168E-117
   93.5156250000000         9.337898651708578E-117
   93.7293750000000         1.216791639391111E-116
   93.9431250000000         1.357330490789815E-116
   94.1568750000000         1.188449221603064E-116
   94.3706250000000         4.987076954583218E-117
   94.5843750000000        -9.388716072655250E-117
   94.7981250000000        -3.308721814990520E-116
   95.0118750000000        -6.659409778784197E-116
   95.2256250000000        -1.077488509659523E-115
   95.4393750000000        -1.502092494464903E-115
   95.6531250000000        -1.819375941386707E-115
   95.8668750000000        -1.841923578818472E-115
   96.0806250000000        -1.317477702345486E-115
   96.2943750000000         4.724438092419531E-117
   96.5081250000000         2.530787444698257E-115
   96.7218750000000         6.300284294401145E-115
   96.9356250000000         1.127005918992990E-114
   97.1493750000000         1.692211630438728E-114
   97.3631250000000         2.211185553492416E-114
   97.5768750000000         2.490540123093681E-114
   97.7906250000000         2.252238932885551E-114
   98.0043750000000         1.148524867885021E-114
   98.2181250000000        -1.190533787876140E-114
   98.4318750000000        -5.065119858183732E-114
   98.6456250000000        -1.056144894893650E-113
   98.8593750000000        -1.735651535688062E-113
   99.0731250000000        -2.448902915727770E-113
   99.2868750000000        -3.013712814893768E-113
   99.5006250000000        -3.147309708348842E-113
   99.7143750000000        -2.469749489960682E-113
   99.9281250000000        -5.382376061350900E-114
   100.141875000000         3.073596854818432E-113
   100.355625000000         8.639593512179833E-113
   100.569375000000         1.608348717450274E-112
   100.783125000000         2.472937432284548E-112
   100.996875000000         3.303194220812439E-112
   101.210625000000         3.834825330853891E-112
   101.424375000000         3.684815639811478E-112
   101.638125000000         2.369474836705337E-112
   101.851875000000        -6.350760403449807E-113
   102.065625000000        -5.774907028055196E-112
   102.279375000000        -1.323261989321073E-111
   102.493125000000        -2.267537953725131E-111
   102.706875000000        -3.295775481965963E-111
   102.920625000000        -4.182911202128317E-111
   103.134375000000        -4.573132306106422E-111
   103.348125000000        -3.981132399571201E-111
   103.561875000000        -1.830572663157474E-111
   103.775625000000         2.453246018912448E-111
   103.989375000000         9.282017872009107E-111
   104.203125000000         1.866833192364848E-110
   104.416875000000         2.992515305058896E-110
   104.630625000000         4.133673636066230E-110
   104.844375000000         4.987115819241978E-110
   105.058125000000         5.104466281784285E-110
   105.271875000000         3.908676197881500E-110
   105.485625000000         7.580811801434726E-111
   105.699375000000        -4.924892464426789E-110
   105.913125000000        -1.344863084794215E-109
   106.126875000000        -2.457157775887428E-109
   106.340625000000        -3.716784418435023E-109
   106.554375000000        -4.889179785277553E-109
   106.768125000000        -5.593242733015691E-109
   106.981875000000        -5.298900720859912E-109
   107.195625000000        -3.363355538415609E-109
   107.409375000000         8.761327968643795E-110
   107.623125000000         7.937681568832407E-109
   107.836875000000         1.795181143019709E-108
   108.050625000000         3.034994322832509E-108
   108.264375000000         4.351973914210201E-108
   108.478125000000         5.449655422805326E-108
   108.691875000000         5.879928690900888E-108
   108.905625000000         5.055613103939274E-108
   109.119375000000         2.308985794805764E-108
   109.333125000000        -2.987229089536078E-108
   109.546875000000        -1.122509070173702E-107
   109.760625000000        -2.229337958947627E-107
   109.974375000000        -3.525656810138225E-107
   110.188125000000        -4.802924448402046E-107
   110.401875000000        -5.712895612810618E-107
   110.615625000000        -5.762666102191861E-107
   110.829375000000        -4.344342020947246E-107
   111.043125000000        -8.152224579098360E-108
   111.256875000000         5.358079457241574E-107
   111.470625000000         1.438581818857273E-106
   111.684375000000         2.588020037166384E-106
   111.898125000000         3.854975645825972E-106
   112.111875000000         4.992186350837912E-106
   112.325625000000         5.618448945657193E-106
   112.539375000000         5.226824066084933E-106
   112.753125000000         3.230833316341244E-106
   112.966875000000        -9.379256441636128E-107
   113.180625000000        -7.671689262793137E-106
   113.394375000000        -1.696850468602467E-105
   113.608125000000        -2.817060071648000E-105
   113.821875000000        -3.969744494986122E-105
   114.035625000000        -4.883830738379158E-105
   114.249375000000        -5.169640641713408E-105
   114.463125000000        -4.339817991589674E-105
   114.676875000000        -1.868765052385623E-105
   114.890625000000         2.699413693730234E-105
   115.104375000000         9.590299640239457E-105
   115.318125000000         1.859237949620669E-104
   115.531875000000         2.882647019327034E-104
   115.745625000000         3.853412817386986E-104
   115.959375000000         4.495048891374033E-104
   116.173125000000         4.434762938102029E-104
   116.386875000000         3.234668511224147E-104
   116.600625000000         4.592137169680655E-105
   116.814375000000        -4.214960010672826E-104
   117.028125000000        -1.084717660258130E-103
   117.241875000000        -1.905009798155411E-103
   117.455625000000        -2.780222594600024E-103
   117.669375000000        -3.529895391804518E-103
   117.883125000000        -3.890326540729474E-103
   118.096875000000        -3.527073940461498E-103
   118.310625000000        -2.072705449931129E-103
   118.524375000000         8.037410222310094E-104
   118.738125000000         5.292923169087722E-103
   118.951875000000         1.131111906237639E-102
   119.165625000000         1.835001969038937E-102
   119.379375000000         2.533714967982341E-102
   119.593125000000         3.054754019983030E-102
   119.806875000000         3.161969788917147E-102
   120.020625000000         2.573597189476354E-102
   120.234375000000         1.002413241081189E-102
   120.448125000000        -1.778214049598564E-102
   120.661875000000        -5.842603202141630E-102
   120.875625000000        -1.100192922171444E-101
   121.089375000000        -1.668944545691150E-101
   121.303125000000        -2.186702386152412E-101
   121.516875000000        -2.498836512158593E-101
   121.730625000000        -2.406184465957299E-101
   121.944375000000        -1.685779282619783E-101
   122.158125000000        -1.297169244032939E-102
   122.371875000000         2.396278662691290E-101
   122.585625000000         5.876817030922475E-101
   122.799375000000         1.006104802520585E-100
   123.013125000000         1.438173669531086E-100
   123.226875000000         1.790132416025591E-100
   123.440625000000         1.931373788537212E-100
   123.654375000000         1.703442909987693E-100
   123.868125000000         9.409296913402231E-101