  -1.60312500000000         0.000000000000000E+000
  -1.38937500000000         0.000000000000000E+000
  -1.17562500000000         0.000000000000000E+000
 -0.961875000000000         0.000000000000000E+000
 -0.748125000000000         0.000000000000000E+000
 -0.534375000000000         0.000000000000000E+000
 -0.320625000000000         0.000000000000000E+000
 -0.106875000000000         0.000000000000000E+000
  0.106875000000000         0.000000000000000E+000
  0.320625000000000         0.000000000000000E+000
  0.534375000000000         0.000000000000000E+000
  0.748125000000000         0.000000000000000E+000
  0.961875000000000         0.000000000000000E+000
   1.17562500000000         0.000000000000000E+000
   1.38937500000000         0.000000000000000E+000
   1.60312500000000         0.000000000000000E+000
   1.81687500000000         0.000000000000000E+000
   2.03062500000000         0.000000000000000E+000
   2.24437500000000         0.000000000000000E+000
   2.45812500000000         0.000000000000000E+000
   2.67187500000000         0.000000000000000E+000
   2.88562500000000         0.000000000000000E+000
   3.09937500000000         0.000000000000000E+000
   3.31312500000000         0.000000000000000E+000
   3.52687500000000         0.000000000000000E+000
   3.74062500000000         0.000000000000000E+000
   3.95437500000000         0.000000000000000E+000
   4.16812500000000         0.000000000000000E+000
   4.38187500000000         0.000000000000000E+000
   4.59562500000000         0.000000000000000E+000
   4.80937500000000         0.000000000000000E+000
   5.02312500000000         0.000000000000000E+000
   5.23687500000000         0.000000000000000E+000
   5.45062500000000         0.000000000000000E+000
   5.66437500000000         0.000000000000000E+000
   5.87812500000000         0.000000000000000E+000
   6.09187500000000         0.000000000000000E+000
   6.30562500000000         0.000000000000000E+000
   6.51937500000000         0.000000000000000E+000
   6.73312500000000         0.000000000000000E+000
   6.94687500000000         0.000000000000000E+000
   7.16062500000000         0.000000000000000E+000
   7.37437500000000         0.000000000000000E+000
   7.58812500000000         0.000000000000000E+000
   7.80187500000000         0.000000000000000E+000
   8.01562500000000         0.000000000000000E+000
   8.22937500000000         0.000000000000000E+000
   8.44312500000000         0.000000000000000E+000
   8.65687500000000         0.000000000000000E+000
   8.87062500000000         0.000000000000000E+000
   9.08437500000000         0.000000000000000E+000
   9.29812500000000         0.000000000000000E+000
   9.51187500000000         0.000000000000000E+000
   9.72562500000000         0.000000000000000E+000
   9.93937500000000         0.000000000000000E+000
   10.1531250000000         0.000000000000000E+000
   10.3668750000000         0.000000000000000E+000
   10.5806250000000         0.000000000000000E+000
   10.7943750000000         0.000000000000000E+000
   11.0081250000000         0.000000000000000E+000
   11.2218750000000         0.000000000000000E+000
   11.4356250000000         0.000000000000000E+000
   11.6493750000000         0.000000000000000E+000
   11.8631250000000         0.000000000000000E+000
   12.0768750000000         0.000000000000000E+000
   12.2906250000000         0.000000000000000E+000
   12.5043750000000         0.000000000000000E+000
   12.7181250000000         0.000000000000000E+000
   12.9318750000000         0.000000000000000E+000
   13.1456250000000         0.000000000000000E+000
   13.3593750000000         1.029126226647944E-251
   13.5731250000000        -2.919389091318549E-240
   13.7868750000000        -7.414167280655201E-238
   14.0006250000000         1.336905584053666E-235
   14.2143750000000        -2.494952466038111E-233
   14.4281250000000        -9.914294900353235E-232
   14.6418750000000         7.615431714051384E-230
   14.8556250000000         7.912705698820913E-228
   15.0693750000000         3.614318972374360E-226
   15.2831250000000         1.112349624871368E-224
   15.4968750000000         2.615340737363841E-223
   15.7106250000000         4.998163306406555E-222
   15.9243750000000         8.062424261745680E-221
   16.1381250000000         1.126453922685880E-219
   16.3518750000000         1.389647434976431E-218
   16.5656250000000         1.537092460731523E-217
   16.7793750000000         1.544441522013536E-216
   16.9931250000000         1.426482154406483E-215
   17.2068750000000         1.224963005749623E-214
   17.4206250000000         9.891175957792704E-214
   17.6343750000000         7.594792510144405E-213
   17.8481250000000         5.604601040466863E-212
   18.0618750000000         4.011045823643263E-211
   18.2756250000000         2.801406822233085E-210
   18.4893750000000         1.914671464943577E-209
   18.7031250000000         1.279779278606579E-208
   18.9168750000000         8.340161062192460E-208
   19.1306250000000         5.277318373169173E-207
   19.3443750000000         3.228954995097096E-206
   19.5581250000000         1.903803982623680E-205
   19.7718750000000         1.078895504569591E-204
   19.9856250000000         5.866425626876383E-204
   20.1993750000000         3.057136960790517E-203
   20.4131250000000         1.525751347756406E-202
   20.6268750000000         7.288434773617055E-202
   20.8406250000000         3.330456667520744E-201
   21.0543750000000         1.454530036512927E-200
   21.2681250000000         6.063334314075368E-200
   21.4818750000000         2.407371583507106E-199
   21.6956250000000         9.072535438831019E-199
   21.9093750000000         3.227305182254460E-198
   22.1231250000000         1.073395946526846E-197
   22.3368750000000         3.280749852816796E-197
   22.5506250000000         8.889152823774633E-197
   22.7643750000000         1.940860688174327E-196
   22.9781250000000         2.126897115326648E-196
   23.1918750000000        -9.354665614354521E-196
   23.4056250000000        -8.753936817069856E-195
   23.6193750000000        -4.664340429313985E-194
   23.8331250000000        -2.035517426673114E-193
   24.0468750000000        -7.901709300266646E-193
   24.2606250000000        -2.816989020862279E-192
   24.4743750000000        -9.365225296410969E-192
   24.6881250000000        -2.927877241689862E-191
   24.9018750000000        -8.653396292930704E-191
   25.1156250000000        -2.428707211338386E-190
   25.3293750000000        -6.511627079932237E-190
   25.5431250000000        -1.685050313366913E-189
   25.7568750000000        -4.288343211564601E-189
   25.9706250000000        -1.106283560379721E-188
   26.1843750000000        -3.002673958947196E-188
   26.3981250000000        -8.797121459839802E-188
   26.6118750000000        -2.766361794964789E-187
   26.8256250000000        -9.036950828163715E-187
   27.0393750000000        -2.953633402349528E-186
   27.2531250000000        -9.390387649356718E-186
   27.4668750000000        -2.853322017054624E-185
   27.6806250000000        -8.193684651111124E-185
   27.8943750000000        -2.203225445793958E-184
   28.1081250000000        -5.485462291676155E-184
   28.3218750000000        -1.241298995588249E-183
   28.5356250000000        -2.457523550153720E-183
   28.7493750000000        -3.842015800761315E-183
   28.9631250000000        -2.754254089070582E-183
   29.1768750000000         1.078133362767240E-182
   29.3906250000000         6.624548318456610E-182
   29.6043750000000         2.370600395925996E-181
   29.8181250000000         6.771000190450003E-181
   30.0318750000000         1.636829246313783E-180
   30.2456250000000         3.312006161371086E-180
   30.4593750000000         5.049753501471786E-180
   30.6731250000000         2.622644151796800E-180
   30.8868750000000        -1.950665467832536E-179
   31.1006250000000        -1.074779493267439E-178
   31.3143750000000        -3.812300929587303E-178
   31.5281250000000        -1.121640288518981E-177
   31.7418750000000        -2.927234451673027E-177
   31.9556250000000        -6.957370715388740E-177
   32.1693750000000        -1.522866725711616E-176
   32.3831250000000        -3.079212743387837E-176
   32.5968750000000        -5.732315894769499E-176
   32.8106250000000        -9.713404170835083E-176
   33.0243750000000        -1.457925245653614E-175
   33.2381250000000        -1.801593724205161E-175
   33.4518750000000        -1.335421832272194E-175
   33.6656250000000         1.578879054517210E-175
   33.8793750000000         1.083697697793649E-174
   34.0931250000000         3.596710529180667E-174
   34.3068750000000         1.011249235501797E-173
   34.5206250000000         2.678875329690328E-173
   34.7343750000000         6.879051091311309E-173
   34.9481250000000         1.709774981865873E-172
   35.1618750000000         4.057815670705406E-172
   35.3756250000000         9.030312739678326E-172
   35.5893750000000         1.841245560052637E-171
   35.8031250000000         3.312378125982148E-171
   36.0168750000000         4.812802647384145E-171
   36.2306250000000         3.838618483493490E-171
   36.4443750000000        -7.332472300755424E-171
   36.6581250000000        -4.790574275118111E-170
   36.8718750000000        -1.586237875479892E-169
   37.0856250000000        -4.132405851501998E-169
   37.2993750000000        -9.196506751688969E-169
   37.5131250000000        -1.777352058509885E-168
   37.7268750000000        -2.917671531990913E-168
   37.9406250000000        -3.694142940098724E-168
   38.1543750000000        -2.037837232572346E-168
   38.3681250000000         6.964007995871874E-168
   38.5818750000000         3.284901593538634E-167
   38.7956250000000         9.060307066909577E-167
   39.0093750000000         1.967053205710980E-166
   39.2231250000000         3.519641567870541E-166
   39.4368750000000         4.960245942297097E-166
   39.6506250000000         4.123623534849066E-166
   39.8643750000000        -4.336128928615956E-166
   40.0781250000000        -3.105010603454603E-165
   40.2918750000000        -9.324207362503929E-165
   40.5056250000000        -2.114537624657053E-164
   40.7193750000000        -3.932379146472781E-164
   40.9331250000000        -5.882718572308391E-164
   41.1468750000000        -5.915156404653091E-164
   41.3606250000000         1.309040530906341E-164
   41.5743750000000         2.698091071989472E-163
   41.7881250000000         9.083091375505541E-163
   42.0018750000000         2.214083745655567E-162
   42.2156250000000         4.477989476175103E-162
   42.4293750000000         7.705896330968618E-162
   42.6431250000000         1.091658308085394E-161
   42.8568750000000         1.074555771658715E-161
   43.0706250000000        -9.237102195184106E-163
   43.2843750000000        -4.032432379982449E-161
   43.4981250000000        -1.353729118940995E-160
   43.7118750000000        -3.267828767581103E-160
   43.9256250000000        -6.605219387814144E-160
   44.1393750000000        -1.159563811389494E-159
   44.3531250000000        -1.754590993883323E-159
   44.5668750000000        -2.143869667873856E-159
   44.7806250000000        -1.546466433732369E-159
   44.9943750000000         1.678936068522951E-159
   45.2081250000000         1.053349002162013E-158
   45.4218750000000         2.986088826235557E-158
   45.6356250000000         6.641948302488561E-158
   45.8493750000000         1.276536872411819E-157
   46.0631250000000         2.174144847855046E-157
   46.2768750000000         3.255371989234433E-157
   46.4906250000000         4.063715028939789E-157
   46.7043750000000         3.395051797058875E-157
   46.9181250000000        -1.345076181889841E-157
   47.1318750000000        -1.506006732747272E-156
   47.3456250000000        -4.601171896947322E-156
   47.5593750000000        -1.064247064780133E-155
   47.7731250000000        -2.111699325771388E-155
   47.9868750000000        -3.714174716116044E-155
   48.2006250000000        -5.775850762977486E-155
   48.4143750000000        -7.625984120338653E-155
   48.6281250000000        -7.336713066458492E-155
   48.8418750000000        -6.200249373984330E-156
   49.0556250000000         2.067549794659976E-154
   49.2693750000000         7.007201939302936E-154
   49.4831250000000         1.667506828369751E-153
   49.6968750000000         3.318766282346189E-153
   49.9106250000000         5.758386503594881E-153
   50.1243750000000         8.682494093238968E-153
   50.3381250000000         1.079987467663889E-152
   50.5518750000000         8.873881809727122E-153
   50.7656250000000        -3.612142185684764E-153
   50.9793750000000        -3.787148120179786E-152
   51.1931250000000        -1.103961805877250E-151
   51.4068750000000        -2.406901576267199E-151
   51.6206250000000        -4.425039229276021E-151
   51.8343750000000        -7.029734353947524E-151
   52.0481250000000        -9.426574839694297E-151
   52.2618750000000        -9.505839406087942E-151
   52.4756250000000        -2.957411496440830E-151
   52.6893750000000         1.764265784737357E-150
   52.9031250000000         6.318086170638956E-150
   53.1168750000000         1.465523779647306E-149
   53.3306250000000         2.772633522611280E-149
   53.5443750000000         4.489641238131537E-149
   53.7581250000000         6.162589441013356E-149
   53.9718750000000         6.581922884807406E-149
   54.1856250000000         3.304062074448751E-149
   54.3993750000000        -7.810531756334771E-149
   54.6131250000000        -3.270603127997978E-148
   54.8268750000000        -7.822192925116056E-148
   55.0406250000000        -1.490690124171018E-147
   55.2543750000000        -2.411714348739514E-147
   55.4681250000000        -3.297369462705009E-147
   55.6818750000000        -3.511800965474333E-147
   55.8956250000000        -1.806148288814197E-147
   56.1093750000000         3.876453954536614E-147
   56.3231250000000         1.638906744368764E-146
   56.5368750000000         3.883117221381102E-146
   56.7506250000000         7.293898029975321E-146
   56.9643750000000         1.157319739108355E-145
   57.1781250000000         1.537516009226921E-145
   57.3918750000000         1.547134966661554E-145
   57.6056250000000         5.778907557382830E-146
   57.8193750000000        -2.333906597187320E-145
   58.0331250000000        -8.460157210762598E-145
   58.2468750000000        -1.905643001641333E-144
   58.4606250000000        -3.451957530072540E-144
   58.6743750000000        -5.273264762898502E-144
   58.8881250000000        -6.635159058156108E-144
   59.1018750000000        -5.907744259129389E-144
   59.3156250000000        -1.688580459544763E-145
   59.5293750000000         1.499794694241325E-143
   59.7431250000000         4.506364131089299E-143
   59.9568750000000         9.471724305680614E-143
   60.1706250000000         1.635607032138946E-142
   60.3843750000000         2.381267387382262E-142
   60.5981250000000         2.794320514699273E-142
   60.8118750000000         2.068773228607552E-142
   61.0256250000000        -1.170622346357265E-142
   61.2393750000000        -8.903291970820559E-142
   61.4531250000000        -2.341903740868573E-141
   61.6668750000000        -4.635917569194722E-141
   61.8806250000000        -7.664397080973408E-141
   62.0943750000000        -1.068299963318933E-140
   62.3081250000000        -1.177052257359956E-140
   62.5218750000000        -7.172271335804173E-141
   62.7356250000000         9.247814440178550E-141
   62.9493750000000         4.594093171629579E-140
   63.1631250000000         1.120860422412745E-139
   63.3768750000000         2.131104628789634E-139
   63.5906250000000         3.416064993021559E-139
   63.8043750000000         4.621016721721787E-139
   64.0181250000000         4.894801078445013E-139
   64.2318750000000         2.643073092120465E-139
   64.4456250000000        -4.650294329937655E-139
   64.6593750000000        -2.032770206933447E-138
   64.8731250000000        -4.783843748204955E-138
   65.0868750000000        -8.889389722627909E-138
   65.3006250000000        -1.399115032817738E-137
   65.5143750000000        -1.862884731449405E-137
   65.7281250000000        -1.946142080356647E-137
   65.9418750000000        -1.042430088973250E-137
   66.1556250000000         1.779759132224941E-137
   66.3693750000000         7.724051535214203E-137
   66.5831250000000         1.798781264884082E-136
   66.7968750000000         3.309468996429635E-136
   67.0106250000000         5.165890551012451E-136
   67.2243750000000         6.846173343246691E-136
   67.4381250000000         7.192522568577573E-136
   67.6518750000000         4.150448616121847E-136
   67.8656250000000        -5.373243694932086E-136
   68.0793750000000        -2.529858220801975E-135
   68.2931250000000        -5.944195036996007E-135
   68.5068750000000        -1.093900916522844E-134
   68.7206250000000        -1.706870540365861E-134
   68.9343750000000        -2.270593228061949E-134
   69.1481250000000        -2.430410080915251E-134
   69.3618750000000        -1.566350720101524E-134
   69.5756250000000         1.242663133600490E-134
   69.7893750000000         7.150851298072392E-134
   70.0031250000000         1.727476348004366E-133
   70.2168750000000         3.209478028888396E-133
   70.4306250000000         5.040684781262002E-133
   70.6443750000000         6.776748418600455E-133
   70.8581250000000         7.454779376136066E-133
   71.0718750000000         5.404137848155982E-133
   71.2856250000000        -1.840947962048175E-133
   71.4993750000000        -1.736099774334758E-132
   71.7131250000000        -4.416154232936042E-132
   71.9268750000000        -8.367836582306750E-132
   72.1406250000000        -1.331998704246192E-131
   72.3543750000000        -1.820946422104758E-131
   72.5681250000000        -2.071438291526028E-131
   72.7818750000000        -1.680343277384536E-131
   72.9956250000000        -5.228783338378467E-133
   73.2093750000000         3.560614515081669E-131
   73.4231250000000         9.904822690404802E-131
   73.6368750000000         1.939335199921544E-130
   73.8506250000000         3.153690949983750E-130
   74.0643750000000         4.411569496471375E-130
   74.2781250000000         5.215591174758482E-130
   74.4918750000000         4.693033048581704E-130
   74.7056250000000         1.543593542231531E-130
   74.9193750000000        -5.889912888955216E-130
   75.1331250000000        -1.932164669861806E-129
   75.3468750000000        -3.986678830121931E-129
   75.5606250000000        -6.691239613484898E-129
   75.7743750000000        -9.646606537593152E-129
   75.9881250000000        -1.190940473641605E-128
   76.2018750000000        -1.178461366677948E-128
   76.4156250000000        -6.699136934183257E-129
   76.6293750000000         6.706683682110266E-129
   76.8431250000000         3.207584537342425E-128
   77.0568750000000         7.218644516964768E-128
   77.2706250000000         1.269360250194872E-127
   77.4843750000000         1.903443902528048E-127
   77.6981250000000         2.467230679237484E-127
   77.9118750000000         2.666302719414379E-127
   78.1256250000000         2.039391121639411E-127
   78.3393750000000        -3.736159933460588E-129
   78.5531250000000        -4.280221952688008E-127
   78.7668750000000        -1.132177519065975E-126
   78.9806250000000        -2.138848722216816E-126
   79.1943750000000        -3.380540069691969E-126
   79.4081250000000        -4.633854147579252E-126
   79.6218750000000        -5.445480173822159E-126
   79.8356250000000        -5.068635241561023E-126
   80.0493750000000        -2.443030193105231E-126
   80.2631250000000         3.732161905646709E-126
   80.4768750000000         1.476819999969991E-125
   80.6906250000000         3.152919266863983E-125
   80.9043750000000         5.368896491681874E-125
   81.1181250000000         7.868803571776505E-125
   81.3318750000000         1.004659530574944E-124
   81.5456250000000         1.081919368581608E-124
   81.7593750000000         8.542684705464191E-125
   81.9731250000000         1.040953446122068E-125
   82.1868750000000        -1.415693548697974E-124
   82.4006250000000        -3.925426812179130E-124
   82.6143750000000        -7.518264949366769E-124
   82.8281250000000        -1.200780126400126E-123
   83.0418750000000        -1.672572109534540E-123
   83.2556250000000        -2.028993376885108E-123
   83.4693750000000        -2.039225895444121E-123
   83.6831250000000        -1.369395132412378E-123
   83.8968750000000         4.035851501290401E-124
   84.1106250000000         3.735734915201359E-123
   84.3243750000000         8.996110402122413E-123
   84.5381250000000         1.626309972753275E-122
   84.7518750000000         2.502520906240393E-122
   84.9656250000000         3.379484564915041E-122
   85.1793750000000         3.967994194702358E-122
   85.3931250000000         3.801402564143516E-122
   85.6068750000000         2.222056578426874E-122
   85.8206250000000        -1.582420184201338E-122
   86.0343750000000        -8.458090098939344E-122
   86.2481250000000        -1.903899872895337E-121
   86.4618750000000        -3.334033009307613E-121
   86.6756250000000        -5.017267176786673E-121
   86.8893750000000        -6.640193138044182E-121
   87.1031250000000        -7.615352551179390E-121
   87.3168750000000        -7.017068996124123E-121
   87.5306250000000        -3.568306068544105E-121
   87.7443750000000         4.269284572472927E-121
   87.9581250000000         1.803523976631668E-120
   88.1718750000000         3.876696651336012E-120
   88.3856250000000         6.619243326530441E-120
   88.5993750000000         9.760220837589191E-120
   88.8131250000000         1.264750268921604E-119
   89.0268750000000         1.410816440708091E-119
   89.2406250000000         1.235070140696533E-119
   89.4543750000000         4.979858271196297E-120
   89.6681250000000        -1.077724546105462E-119
   89.8818750000000        -3.751424423432266E-119
   90.0956250000000        -7.663828323511914E-119
   90.3093750000000        -1.268319789052190E-118
   90.5231250000000        -1.820054378590742E-118
   90.7368750000000        -2.289450699500299E-118
   90.9506250000000        -2.451511256248055E-118
   91.1643750000000        -1.977354476444142E-118
   91.3781250000000        -4.468445264089555E-119
   91.5918750000000         2.598139736065544E-118
   91.8056250000000         7.540905264267730E-118
   92.0193750000000         1.450125318589390E-117
   92.2331250000000         2.306455465059864E-117
   92.4468750000000         3.194305327132983E-117
   92.6606250000000         3.861808435168666E-117
   92.8743750000000         3.906018834011481E-117
   93.0881250000000         2.768310742528752E-117
   93.3018750000000        -2.252189518096331E-118
   93.5156250000000        -5.752406246099722E-117
   93.7293750000000        -1.428695477138085E-116
   93.9431250000000        -2.577624449093982E-116
   94.1568750000000        -3.920846787180978E-116
   94.3706250000000        -5.210982283295546E-116
   94.5843750000000        -6.006827442272070E-116
   94.7981250000000        -5.645277662654753E-116
   95.0118750000000        -3.257723279454678E-116
   95.2256250000000         2.137119834299942E-116
   95.4393750000000         1.142892753257495E-115
   95.6531250000000         2.507010271263868E-115
   95.8668750000000         4.257709864517354E-115
   96.0806250000000         6.190376862861112E-115
   96.2943750000000         7.877058457760401E-115
   96.5081250000000         8.611465458003849E-115
   96.7218750000000         7.392245753071007E-115
   96.9356250000000         2.980393416338230E-115
   97.1493750000000        -5.926583444547649E-115
   97.3631250000000        -2.036156673149954E-114
   97.5768750000000        -4.056685707298764E-114
   97.7906250000000        -6.528853391459321E-114
   98.0043750000000        -9.094588597406196E-114
   98.2181250000000        -1.108191541150348E-113
   98.4318750000000        -1.145060862031570E-113
   98.6456250000000        -8.801624514329921E-114
   98.8593750000000        -1.497614366878348E-114
   99.0731250000000         1.205329045646694E-113
   99.2868750000000         3.290454813557251E-113
   99.5006250000000         6.084757683547984E-113
   99.7143750000000         9.348507813126652E-113
   99.9281250000000         1.252081181188933E-112
   100.141875000000         1.462932921453545E-112
   100.355625000000         1.424683421077218E-112
   100.569375000000         9.542900435629817E-113
   100.783125000000        -1.510944224800443E-113
   100.996875000000        -2.072293650076976E-112
   101.210625000000        -4.900446055202170E-112
   101.424375000000        -8.542794154928677E-112
   101.638125000000        -1.260809234012857E-111
   101.851875000000        -1.628815475061409E-111
   102.065625000000        -1.826561380409994E-111
   102.279375000000        -1.669332915727779E-111
   102.493125000000        -9.305168582723034E-112
   102.706875000000         6.273700772866257E-112
   102.920625000000         3.195303237404404E-111
   103.134375000000         6.830121522064273E-111
   103.348125000000         1.133818129510536E-110
   103.561875000000         1.614088116640211E-110
   103.775625000000         2.014551082643947E-110
   103.989375000000         2.166082714576628E-110
   104.203125000000         1.841368649135592E-110
   104.416875000000         7.737029031473565E-111
   104.630625000000        -1.299549896485095E-110
   104.844375000000        -4.562495777292751E-110
   105.058125000000        -9.012730828835985E-110
   105.271875000000        -1.432460308805674E-109
   105.485625000000        -1.969980551513733E-109
   105.699375000000        -2.373659694976410E-109
   105.913125000000        -2.436671636352494E-109
   106.126875000000        -1.892639794166340E-109
   106.340625000000        -4.439774952664922E-110
   106.554375000000         2.180780916450501E-109
   106.768125000000         6.135141123912988E-109
   106.981875000000         1.132812535161022E-108
   107.195625000000         1.727211780454514E-108
   107.409375000000         2.292754091874264E-108
   107.623125000000         2.658377153996592E-108
   107.836875000000         2.583413675597522E-108
   108.050625000000         1.771882332262614E-108
   108.264375000000        -8.829502940735833E-110
   108.478125000000        -3.253914402276070E-108
   108.691875000000        -7.819188106310804E-108
   108.905625000000        -1.357569192138489E-107
   109.119375000000        -1.985369198012564E-107
   109.333125000000        -2.537385939765544E-107
   109.546875000000        -2.815593534196586E-107
   109.760625000000        -2.554832315877735E-107
   109.974375000000        -1.445511931444387E-107
   110.188125000000         8.161964605062118E-108
   110.401875000000         4.444825348857623E-107
   110.615625000000         9.447624104846185E-107
   110.829375000000         1.547931214729052E-106
   111.043125000000         2.168886547093643E-106
   111.256875000000         2.659293624396136E-106
   111.470625000000         2.802716887285789E-106
   111.684375000000         2.324123915002743E-106
   111.898125000000         9.210662462489272E-107
   112.111875000000        -1.676855709717686E-106
   112.325625000000        -5.616526575687463E-106
   112.539375000000        -1.079993230156395E-105
   112.753125000000        -1.674409125317909E-105
   112.966875000000        -2.244588589296626E-105
   113.180625000000        -2.628986625611707E-105
   113.394375000000        -2.605137735997560E-105
   113.608125000000        -1.905761269193576E-105
   113.821875000000        -2.570111500878604E-106
   114.035625000000         2.556257730232714E-105
   114.249375000000         6.597035011685690E-105
   114.463125000000         1.165976660240941E-104
   114.676875000000         1.714556999566081E-104
   114.890625000000         2.195521695428622E-104
   115.104375000000         2.443857206992242E-104
   115.318125000000         2.244999167408803E-104
   115.531875000000         1.356444506263269E-104
   115.745625000000        -4.496088911590711E-105
   115.959375000000        -3.319746658386983E-104
   116.173125000000        -7.230273543568442E-104
   116.386875000000        -1.188343742633014E-103
   116.600625000000        -1.660547148265749E-103
   116.814375000000        -2.027305989003776E-103
   117.028125000000        -2.130464058857899E-103
   117.241875000000        -1.775987593110525E-103
   117.455625000000        -7.591101129239747E-104
   117.669375000000         1.091956022179238E-103
   117.883125000000         3.852856330256052E-103
   118.096875000000         7.423852155576504E-103
   118.310625000000         1.144395426322698E-102
   118.524375000000         1.521541918455698E-102
   118.738125000000         1.766361762203556E-102
   118.951875000000         1.736411980200464E-102
   119.165625000000         1.267207648190812E-102
   119.379375000000         1.985595208018389E-103
   119.593125000000        -1.583841060845964E-102
   119.806875000000        -4.092327535297117E-102
   120.020625000000        -7.171379065257726E-102
   120.234375000000        -1.043195358128398E-101
   120.448125000000        -1.320207954862718E-101
   120.661875000000        -1.451558212692897E-101
   120.875625000000        -1.316487727291148E-101
   121.089375000000        -7.844000233734999E-102
   121.303125000000         2.597917831830825E-102
   121.516875000000         1.878692797444488E-101
   121.730625000000         4.035697444248153E-101
   121.944375000000         6.543836851111674E-101
   122.158125000000         9.019791780570195E-101
   122.371875000000         1.085715595481237E-100
   122.585625000000         1.123683282912435E-100
   122.799375000000         9.194225946655863E-101
   123.013125000000         3.761017691326766E-101
   123.226875000000        -5.807881466837377E-101
   123.440625000000        -1.972562095941597E-100
   123.654375000000        -3.730776116896269E-100
   123.868125000000        -5.660262176336029E-100