  -1.60312500000000         0.000000000000000E+000
  -1.38937500000000         0.000000000000000E+000
  -1.17562500000000         0.000000000000000E+000
 -0.961875000000000         0.000000000000000E+000
 -0.748125000000000         0.000000000000000E+000
 -0.534375000000000         0.000000000000000E+000
 -0.320625000000000         0.000000000000000E+000
 -0.106875000000000         0.000000000000000E+000
  0.106875000000000         0.000000000000000E+000
  0.320625000000000         0.000000000000000E+000
  0.534375000000000         0.000000000000000E+000
  0.748125000000000         0.000000000000000E+000
  0.961875000000000         0.000000000000000E+000
   1.17562500000000         0.000000000000000E+000
   1.38937500000000         0.000000000000000E+000
   1.60312500000000         0.000000000000000E+000
   1.81687500000000         0.000000000000000E+000
   2.03062500000000         0.000000000000000E+000
   2.24437500000000         0.000000000000000E+000
   2.45812500000000         0.000000000000000E+000
   2.67187500000000         0.000000000000000E+000
   2.88562500000000         0.000000000000000E+000
   3.09937500000000         0.000000000000000E+000
   3.31312500000000         0.000000000000000E+000
   3.52687500000000         0.000000000000000E+000
   3.74062500000000         0.000000000000000E+000
   3.95437500000000         0.000000000000000E+000
   4.16812500000000         0.000000000000000E+000
   4.38187500000000         0.000000000000000E+000
   4.59562500000000         0.000000000000000E+000
   4.80937500000000         0.000000000000000E+000
   5.02312500000000         0.000000000000000E+000
   5.23687500000000         0.000000000000000E+000
   5.45062500000000         0.000000000000000E+000
   5.66437500000000         0.000000000000000E+000
   5.87812500000000         0.000000000000000E+000
   6.09187500000000         0.000000000000000E+000
   6.30562500000000         0.000000000000000E+000
   6.51937500000000         0.000000000000000E+000
   6.73312500000000         0.000000000000000E+000
   6.94687500000000         0.000000000000000E+000
   7.16062500000000         0.000000000000000E+000
   7.37437500000000         0.000000000000000E+000
   7.58812500000000         0.000000000000000E+000
   7.80187500000000         0.000000000000000E+000
   8.01562500000000         0.000000000000000E+000
   8.22937500000000         0.000000000000000E+000
   8.44312500000000         0.000000000000000E+000
   8.65687500000000         0.000000000000000E+000
   8.87062500000000         0.000000000000000E+000
   9.08437500000000         0.000000000000000E+000
   9.29812500000000         0.000000000000000E+000
   9.51187500000000         0.000000000000000E+000
   9.72562500000000         0.000000000000000E+000
   9.93937500000000         0.000000000000000E+000
   10.1531250000000         0.000000000000000E+000
   10.3668750000000         0.000000000000000E+000
   10.5806250000000         0.000000000000000E+000
   10.7943750000000         0.000000000000000E+000
   11.0081250000000         0.000000000000000E+000
   11.2218750000000         0.000000000000000E+000
   11.4356250000000         0.000000000000000E+000
   11.6493750000000         0.000000000000000E+000
   11.8631250000000         0.000000000000000E+000
   12.0768750000000         0.000000000000000E+000
   12.2906250000000         0.000000000000000E+000
   12.5043750000000         0.000000000000000E+000
   12.7181250000000         0.000000000000000E+000
   12.9318750000000         0.000000000000000E+000
   13.1456250000000         0.000000000000000E+000
   13.3593750000000         0.000000000000000E+000
   13.5731250000000         5.449953554475594E-254
   13.7868750000000         2.605878397653105E-241
   14.0006250000000         8.964310770286554E-240
   14.2143750000000        -1.548219680011506E-236
   14.4281250000000         1.343893632893342E-234
   14.6418750000000         5.463341928960114E-233
   14.8556250000000        -5.802682954962137E-231
   15.0693750000000        -5.728921523430314E-229
   15.2831250000000        -2.605106298933273E-227
   15.4968750000000        -8.013903446001933E-226
   15.7106250000000        -1.880804285258410E-224
   15.9243750000000        -3.575563426906850E-223
   16.1381250000000        -5.708305586544210E-222
   16.3518750000000        -7.838578783795795E-221
   16.5656250000000        -9.415510855924268E-220
   16.7793750000000        -1.001401118252582E-218
   16.9931250000000        -9.514123487711435E-218
   17.2068750000000        -8.125894938618526E-217
   17.4206250000000        -6.266217217845764E-216
   17.6343750000000        -4.375636575045627E-215
   17.8481250000000        -2.773493217211028E-214
   18.0618750000000        -1.602277048823563E-213
   18.2756250000000        -8.532492237235630E-213
   18.4893750000000        -4.320863743380406E-212
   18.7031250000000        -2.231531088495626E-211
   18.9168750000000        -1.299205493357715E-210
   19.1306250000000        -8.910879034460700E-210
   19.3443750000000        -6.737426359774262E-209
   19.5581250000000        -5.117220333685509E-208
   19.7718750000000        -3.700907355175113E-207
   19.9856250000000        -2.499489095610703E-206
   20.1993750000000        -1.570292718383740E-205
   20.4131250000000        -9.190662095484475E-205
   20.6268750000000        -5.024457587250858E-204
   20.8406250000000        -2.571081664745695E-203
   21.0543750000000        -1.232467528477520E-202
   21.2681250000000        -5.528356636776966E-202
   21.4818750000000        -2.311471080895931E-201
   21.6956250000000        -8.931722533810773E-201
   21.9093750000000        -3.133675852986374E-200
   22.1231250000000        -9.594185273112143E-200
   22.3368750000000        -2.287770871439628E-199
   22.5506250000000        -2.092896473457420E-199
   22.7643750000000         2.021432413839160E-198
   22.9781250000000         1.841823056905916E-197
   23.1918750000000         1.063844848596208E-196
   23.4056250000000         5.106248349794359E-196
   23.6193750000000         2.182285260004397E-195
   23.8331250000000         8.526592077443070E-195
   24.0468750000000         3.077813529180616E-194
   24.2606250000000         1.027925352851198E-193
   24.4743750000000         3.155209995261338E-193
   24.6881250000000         8.732923654561254E-193
   24.9018750000000         2.077910440580048E-192
   25.1156250000000         3.647385566205216E-192
   25.3293750000000         7.386850473821524E-193
   25.5431250000000        -3.319844620909536E-191
   25.7568750000000        -2.098242611095672E-190
   25.9706250000000        -9.366027311500330E-190
   26.1843750000000        -3.557509915833911E-189
   26.3981250000000        -1.214562658078916E-188
   26.6118750000000        -3.810112514454750E-188
   26.8256250000000        -1.108095172099025E-187
   27.0393750000000        -2.991930503656516E-187
   27.2531250000000        -7.461502615755037E-187
   27.4668750000000        -1.694648605162267E-186
   27.6806250000000        -3.394871334891601E-186
   27.8943750000000        -5.517918724954621E-186
   28.1081250000000        -5.058308059232704E-186
   28.3218750000000         9.557381497952814E-186
   28.5356250000000         7.210696463378985E-185
   28.7493750000000         2.633520428385202E-184
   28.9631250000000         7.366400560682961E-184
   29.1768750000000         1.672611341260624E-183
   29.3906250000000         2.889794775245828E-183
   29.6043750000000         2.278957310689011E-183
   29.8181250000000        -9.138207426643636E-183
   30.0318750000000        -6.071308566423267E-182
   30.2456250000000        -2.352340805129276E-181
   30.4593750000000        -7.424002649800270E-181
   30.6731250000000        -2.067381483416109E-180
   30.8868750000000        -5.242919335233875E-180
   31.1006250000000        -1.229628000236056E-179
   31.3143750000000        -2.690016230485127E-179
   31.5281250000000        -5.522214611993227E-179
   31.7418750000000        -1.070603680110799E-178
   31.9556250000000        -1.980766633342302E-178
   32.1693750000000        -3.565598333303240E-178
   32.3831250000000        -6.450574439789853E-178
   32.5968750000000        -1.221245680630007E-177
   32.8106250000000        -2.482524890924778E-177
   33.0243750000000        -5.346843297926347E-177
   33.2381250000000        -1.165373274181420E-176
   33.4518750000000        -2.436896617044472E-176
   33.6656250000000        -4.647090836899318E-176
   33.8793750000000        -7.582088543006753E-176
   34.0931250000000        -9.132029801536618E-176
   34.3068750000000        -2.588491976915743E-176
   34.5206250000000         2.673782182332313E-175
   34.7343750000000         1.009096664283421E-174
   34.9481250000000         2.301487883568428E-174
   35.1618750000000         3.427358238475901E-174
   35.3756250000000         1.150213758331633E-174
   35.5893750000000        -1.318779689417633E-173
   35.8031250000000        -5.588960902861488E-173
   36.0168750000000        -1.435685338042912E-172
   36.2306250000000        -2.497553033703201E-172
   36.4443750000000        -1.634857614202593E-172
   36.6581250000000         8.660732312230418E-172
   36.8718750000000         4.855108621017830E-171
   37.0856250000000         1.623278595464652E-170
   37.2993750000000         4.285412976425804E-170
   37.5131250000000         9.440408875466794E-170
   37.7268750000000         1.710124313201078E-169
   37.9406250000000         2.252741899394239E-169
   38.1543750000000         6.463345717576776E-170
   38.3681250000000        -8.591391391611226E-169
   38.5818750000000        -3.834133632990601E-168
   38.7956250000000        -1.145072205597620E-167
   39.0093750000000        -2.810773605576609E-167
   39.2231250000000        -5.957448043753898E-167
   39.4368750000000        -1.092817466966995E-166
   39.6506250000000        -1.663495553769485E-166
   39.8643750000000        -1.763006531717275E-166
   40.0781250000000         1.899142845742700E-167
   40.2918750000000         7.860172943009177E-166
   40.5056250000000         2.848258091618850E-165
   40.7193750000000         7.425043951422630E-165
   40.9331250000000         1.617537861378663E-164
   41.1468750000000         3.049403365048019E-164
   41.3606250000000         4.924867489022860E-164
   41.5743750000000         6.340494443012743E-164
   41.7881250000000         4.537323840375495E-164
   42.0018750000000        -6.899152249597018E-164
   42.2156250000000        -4.054269090098021E-163
   42.4293750000000        -1.175387771909110E-162
   42.6431250000000        -2.673653452808808E-162
   42.8568750000000        -5.190013185444598E-162
   43.0706250000000        -8.720649862962830E-162
   43.2843750000000        -1.229134981022251E-161
   43.4981250000000        -1.263664938207402E-161
   43.7118750000000        -1.985471597048961E-162
   43.9256250000000         3.506655822807068E-161
   44.1393750000000         1.248956819022876E-160
   44.3531250000000         3.060629745557157E-160
   44.5668750000000         6.229747572010392E-160
   44.7806250000000         1.101503167800991E-159
   44.9943750000000         1.688985880182074E-159
   45.2081250000000         2.133155698760791E-159
   45.4218750000000         1.770063074288230E-159
   45.6356250000000        -8.004601693288397E-160
   45.8493750000000        -8.133083178489938E-159
   46.0631250000000        -2.432602021646796E-158
   46.2768750000000        -5.503897581979855E-158
   46.4906250000000        -1.063954364763240E-157
   46.7043750000000        -1.813614926411337E-157
   46.9181250000000        -2.712251817817699E-157
   47.1318750000000        -3.386157117743826E-157
   47.3456250000000        -2.875363830687361E-157
   47.5593750000000         8.367506324384590E-158
   47.7731250000000         1.146088131422911E-156
   47.9868750000000         3.506776867719656E-156
   48.2006250000000         8.033478954006728E-156
   48.4143750000000         1.573177606102903E-155
   48.6281250000000         2.726449208110668E-155
   48.8418750000000         4.174604051416062E-155
   49.0556250000000         5.425287697115475E-155
   49.2693750000000         5.134812887488011E-155
   49.4831250000000         4.040320167051280E-156
   49.6968750000000        -1.415702172208830E-154
   49.9106250000000        -4.733749141568313E-154
   50.1243750000000        -1.114498535304726E-153
   50.3381250000000        -2.200095229265910E-153
   50.5518750000000        -3.799089442698114E-153
   50.7656250000000        -5.732378509940204E-153
   50.9793750000000        -7.223467753367750E-153
   51.1931250000000        -6.320481022705987E-153
   51.4068750000000         9.173239956016850E-154
   51.6206250000000         2.131460061875842E-152
   51.8343750000000         6.505626101135045E-152
   52.0481250000000         1.446255405947917E-151
   52.2618750000000         2.701434069957931E-151
   52.4756250000000         4.378811962491057E-151
   52.6893750000000         6.077458778830628E-151
   52.9031250000000         6.657861691085930E-151
   53.1168750000000         3.712001496281757E-151
   53.3306250000000        -7.029040688873599E-151
   53.5443750000000        -3.205409641636097E-150
   53.7581250000000        -7.955036888279121E-150
   53.9718750000000        -1.568407430553516E-149
   54.1856250000000        -2.640148043425465E-149
   54.3993750000000        -3.815433391077578E-149
   54.6131250000000        -4.499425786663219E-149
   54.8268750000000        -3.415699088467759E-149
   55.0406250000000         1.700593121401071E-149
   55.2543750000000         1.427492148769898E-148
   55.4681250000000         3.859631603428244E-148
   55.6818750000000         7.847140311417085E-148
   55.8956250000000         1.339804384487806E-147
   56.1093750000000         1.953274038885788E-147
   56.3231250000000         2.330117614404496E-147
   56.5368750000000         1.846695020702495E-147
   56.7506250000000        -5.834945665697819E-148
   56.9643750000000        -6.564400265078400E-147
   57.1781250000000        -1.802779139035286E-146
   57.3918750000000        -3.652522960686969E-146
   57.6056250000000        -6.161719378756347E-146
   57.8193750000000        -8.793448823620516E-146
   58.0331250000000        -1.006564982843510E-145
   58.2468750000000        -6.976196425155235E-146
   58.4606250000000         5.521678199098449E-146
   58.6743750000000         3.457146037263561E-145
   58.8881250000000         8.819040394990766E-145
   59.1018750000000         1.714906551901997E-144
   59.3156250000000         2.786384982000604E-144
   59.5293750000000         3.788365850325952E-144
   59.7431250000000         3.957023070691740E-144
   59.9568750000000         1.826770919613530E-144
   60.1706250000000        -4.960515749891995E-144
   60.3843750000000        -1.957821317511237E-143
   60.5981250000000        -4.528478608826594E-143
   60.8118750000000        -8.345413496874837E-143
   61.0256250000000        -1.296291031512175E-142
   61.2393750000000        -1.669388695539458E-142
   61.4531250000000        -1.568429273516247E-142
   61.6668750000000        -2.880062406442919E-143
   61.8806250000000         3.263098958681226E-142
   62.0943750000000         1.048904385892199E-141
   62.3081250000000         2.272107284676016E-141
   62.5218750000000         4.026501432307207E-141
   62.7356250000000         6.058204125847087E-141
   62.9493750000000         7.536859357205337E-141
   63.1631250000000         6.661236497254580E-141
   63.3768750000000         2.443533475322220E-142
   63.5906250000000        -1.650172430733821E-140
   63.8043750000000        -4.954497533854799E-140
   64.0181250000000        -1.042569882296887E-139
   64.2318750000000        -1.812795056201110E-139
   64.4456250000000        -2.689184946672208E-139
   64.6593750000000        -3.313196355095655E-139
   64.8731250000000        -2.930280043665837E-139
   65.0868750000000        -2.351708107761553E-140
   65.3006250000000         6.694469639449049E-139
   65.5143750000000         2.020845657661977E-138
   65.7281250000000         4.237295782860940E-138
   65.9418750000000         7.338308802687030E-138
   66.1556250000000         1.087262473483309E-137
   66.3693750000000         1.348859744339724E-137
   66.5831250000000         1.238835814451135E-137
   66.7968750000000         2.800947060572082E-138
   67.0106250000000        -2.221179176044211E-137
   67.2243750000000        -7.104674400710869E-137
   67.4381250000000        -1.510765383106495E-136
   67.6518750000000        -2.632697458084799E-136
   67.8656250000000        -3.927952563686272E-136
   68.0793750000000        -4.950865744003816E-136
   68.2931250000000        -4.785054325353416E-136
   68.5068750000000        -1.880300864609792E-136
   68.7206250000000         6.002533022709442E-136
   68.9343750000000         2.156687826325650E-135
   69.1481250000000         4.722115052542776E-135
   69.3618750000000         8.346691241434806E-135
   69.5756250000000         1.261316831118298E-134
   69.7893750000000         1.623282126034528E-134
   70.0031250000000         1.654998268133862E-134
   70.2168750000000         9.081701814473112E-135
   70.4306250000000        -1.263820432332262E-134
   70.6443750000000        -5.645062390626701E-134
   70.8581250000000        -1.295313744114736E-133
   71.0718750000000        -2.341097867506722E-133
   71.2856250000000        -3.601993982181827E-133
   71.4993750000000        -4.750876196188583E-133
   71.7131250000000        -5.105390374830196E-133
   71.9268750000000        -3.508837378927341E-133
   72.1406250000000         1.714345165815329E-133
   72.3543750000000         1.261840606431476E-132
   72.5681250000000         3.115468712221690E-132
   72.7818750000000         5.816135178255443E-132
   72.9956250000000         9.165500682540272E-132
   73.2093750000000         1.243686956155064E-131
   73.4231250000000         1.407502297697326E-131
   73.6368750000000         1.141184162131659E-131
   73.8506250000000         5.403468360419849E-133
   74.0643750000000        -2.341684422443916E-131
   74.2781250000000        -6.531204498704628E-131
   74.4918750000000        -1.278551456888352E-130
   74.7056250000000        -2.080157460184405E-130
   74.9193750000000        -2.918132624390580E-130
   75.1331250000000        -3.478940386778917E-130
   75.3468750000000        -3.212360500198951E-130
   75.5606250000000        -1.297278081090480E-130
   75.7743750000000         3.318407024263594E-130
   75.9881250000000         1.173978924611695E-129
   76.2018750000000         2.473243777231770E-129
   76.4156250000000         4.204386619285853E-129
   76.6293750000000         6.140606750133369E-129
   76.8431250000000         7.727782554809020E-129
   77.0568750000000         7.954885767569824E-129
   77.2706250000000         5.267266984141779E-129
   77.4843750000000        -2.399028070380526E-129
   77.6981250000000        -1.735025579044596E-128
   77.9118750000000        -4.149873987616088E-128
   78.1256250000000        -7.522243401665408E-128
   78.3393750000000        -1.156388420091618E-127
   78.5531250000000        -1.543484854644513E-127
   78.7668750000000        -1.749537763693868E-127
   78.9806250000000        -1.510433327584759E-127
   79.1943750000000        -4.583984837250857E-128
   79.4081250000000         1.847208579322760E-127
   79.6218750000000         5.832235130246282E-127
   79.8356250000000         1.173903400104641E-126
   80.0493750000000         1.935787686564901E-126
   80.2631250000000         2.765649170987281E-126
   80.4768750000000         3.433913220008732E-126
   80.6906250000000         3.542054282071164E-126
   80.9043750000000         2.497559065823107E-126
   81.1181250000000        -4.683118508634065E-127
   81.3318750000000        -6.205494685889340E-126
   81.5456250000000        -1.543196655254165E-125
   81.7593750000000        -2.836271061607465E-125
   81.9731250000000        -4.415609005807266E-125
   82.1868750000000        -6.018971875562759E-125
   82.4006250000000        -7.124453097481770E-125
   82.6143750000000        -6.877822517653057E-125
   82.8281250000000        -4.060801714119433E-125
   83.0418750000000         2.851263810039834E-125
   83.2556250000000         1.547756344848420E-124
   83.4693750000000         3.509012703175514E-124
   83.6831250000000         6.186943916830582E-124
   83.8968750000000         9.381298182655406E-124
   84.1106250000000         1.253213512572675E-123
   84.3243750000000         1.456125489709142E-123
   84.5381250000000         1.373118866747675E-123
   84.7518750000000         7.583748016146503E-124
   84.9656250000000        -6.946528303800772E-124
   85.1793750000000        -3.311415729759488E-123
   85.3931250000000        -7.348419871864267E-123
   85.6068750000000        -1.284382130554498E-122
   85.8206250000000        -1.939609969481053E-122
   86.0343750000000        -2.587403965695358E-122
   86.2481250000000        -3.008706211309061E-122
   86.4618750000000        -2.848633268193851E-122
   86.6756250000000        -1.602540159758408E-122
   86.8893750000000         1.361870802703266E-122
   87.1031250000000         6.718805194364727E-122
   87.3168750000000         1.500191647308169E-121
   87.5306250000000         2.629244936169765E-121
   87.7443750000000         3.975724752595953E-121
   87.9581250000000         5.304658672028403E-121
   88.1718750000000         6.161900565177296E-121
   88.3856250000000         5.815011232851185E-121
   88.5993750000000         3.230537852296696E-121
   88.8131250000000        -2.869713923897018E-121
   89.0268750000000        -1.381676926538690E-120
   89.2406250000000        -3.060213836014912E-120
   89.4543750000000        -5.322643059281371E-120
   89.6681250000000        -7.976236573213188E-120
   89.8818750000000        -1.051769923863878E-119
   90.0956250000000        -1.200812731633360E-119
   90.3093750000000        -1.097571909896124E-119
   90.5231250000000        -5.404602810418716E-120
   90.7368750000000         7.106480301641624E-120
   90.9506250000000         2.891119433173702E-119
   91.1643750000000         6.149908540133347E-119
   91.3781250000000         1.042134998262372E-118
   91.5918750000000         1.525011705035373E-118
   91.8056250000000         1.958426058913475E-118
   92.0193750000000         2.157519975147052E-118
   92.2331250000000         1.845620087940982E-118
   92.4468750000000         6.609270377009816E-119
   92.6606250000000        -1.803298585981509E-118
   92.8743750000000        -5.908260123453253E-118
   93.0881250000000        -1.181348053610267E-117
   93.3018750000000        -1.924722306214487E-117
   93.5156250000000        -2.721244565969437E-117
   93.7293750000000        -3.366563892791515E-117
   93.9431250000000        -3.524688191792849E-117
   94.1568750000000        -2.719080561120944E-117
   94.3706250000000        -3.602468408700635E-118
   94.5843750000000         4.167518027769784E-117
   94.7981250000000         1.133677634846693E-116
   95.0118750000000         2.120741896972847E-116
   95.2256250000000         3.305568349698972E-116
   95.4393750000000         4.493076994002587E-116
   95.6531250000000         5.321476686013973E-116
   95.8668750000000         5.232375921888203E-116
   96.0806250000000         3.475937147925240E-116
   96.2943750000000        -8.213601164683956E-117
   96.5081250000000        -8.495065774424374E-116
   96.7218750000000        -2.005864781367071E-115
   96.9356250000000        -3.528190097175288E-115
   97.1493750000000        -5.264591972675677E-115
   97.3631250000000        -6.873707527255605E-115
   97.5768750000000        -7.771124880900229E-115
   97.7906250000000        -7.104469223225576E-115
   98.0043750000000        -3.787710453761260E-115
   98.2181250000000         3.367726192973832E-115
   98.4318750000000         1.538591613573249E-114
   98.6456250000000         3.269303750512626E-114
   98.8593750000000         5.451171302258394E-114
   99.0731250000000         7.812278844914929E-114
   99.2868750000000         9.810422112161400E-114
   99.5006250000000         1.057498845191399E-113
   99.7143750000000         8.897852397339648E-114
   99.9281250000000         3.314496907996875E-114
   100.141875000000        -7.677161049686139E-114
   100.355625000000        -2.521524976504305E-113
   100.569375000000        -4.946203988795991E-113
   100.783125000000        -7.879258324391979E-113
   100.996875000000        -1.088601381315368E-112
   101.210625000000        -1.317086038615274E-112
   101.424375000000        -1.352201244428137E-112
   101.638125000000        -1.033128452888799E-112
   101.851875000000        -1.741044690012532E-113
   102.065625000000         1.402539481464001E-112
   102.279375000000         3.810231018831778E-112
   102.493125000000         7.016995423219824E-112
   102.706875000000         1.074293544991468E-111
   102.920625000000         1.434876216152829E-111
   103.134375000000         1.673969377709167E-111
   103.348125000000         1.632314707254746E-111
   103.561875000000         1.107267230428506E-111
   103.775625000000        -1.239441620673440E-112
   103.989375000000        -2.257835121673800E-111
   104.203125000000        -5.390624636720720E-111
   104.416875000000        -9.416250921154396E-111
   104.630625000000        -1.390366856665927E-110
   104.844375000000        -1.797175053230872E-110
   105.058125000000        -2.019440652589017E-110
   105.271875000000        -1.858442212850201E-110
   105.485625000000        -1.071882457204937E-110
   105.699375000000         5.923819392854472E-111
   105.913125000000         3.334989008567782E-110
   106.126875000000         7.212493551469303E-110
   106.340625000000         1.201583683489657E-109
   106.554375000000         1.713169590677236E-109
   106.768125000000         2.141184789583814E-109
   106.981875000000         2.309182389816315E-109
   107.195625000000         1.981675740859843E-109
   107.409375000000         8.845279607872393E-110
   107.623125000000        -1.249460199530013E-109
   107.836875000000        -4.603842420257588E-109
   108.050625000000        -9.168908959551760E-109
   108.264375000000        -1.460494786661524E-108
   108.478125000000        -2.009561420165965E-108
   108.691875000000        -2.422360116000387E-108
   108.905625000000        -2.491776942853814E-108
   109.119375000000        -1.953670278952073E-108
   109.333125000000        -5.163257455965775E-109
   109.546875000000         2.081889532885001E-108
   109.760625000000         5.982077353973829E-108
   109.974375000000         1.108245514173435E-107
   110.188125000000         1.689408393358449E-107
   110.401875000000         2.239745415957510E-107
   110.615625000000         2.593836553741410E-107
   110.829375000000         2.521789757978742E-107
   111.043125000000         1.744447670248276E-107
   111.256875000000        -2.795622663198270E-109
   111.470625000000        -3.027617161549407E-107
   111.684375000000        -7.328941462954579E-107
   111.898125000000        -1.272043996428280E-106
   112.111875000000        -1.856300467168694E-106
   112.325625000000        -2.366212898339156E-106
   112.539375000000        -2.619675253122234E-106
   112.753125000000        -2.376165583985475E-106
   112.966875000000        -1.358939395859760E-106
   113.180625000000         6.984198207847672E-107
   113.394375000000         3.976675235489608E-106
   113.608125000000         8.466876369477897E-106
   113.821875000000         1.384502780504346E-105
   114.035625000000         1.934339676581635E-105
   114.249375000000         2.364914834726339E-105
   114.463125000000         2.487436469060669E-105
   114.676875000000         2.065241706927100E-105
   114.890625000000         8.419708152990410E-106
   115.104375000000        -1.406654931265561E-105
   115.318125000000        -4.795057571890356E-105
   115.531875000000        -9.226661629046267E-105
   115.745625000000        -1.427965454823663E-104
   115.959375000000        -1.909990850904393E-104
   116.173125000000        -2.233267185615842E-104
   116.386875000000        -2.213534532204002E-104
   116.600625000000        -1.632060941845076E-104
   116.814375000000        -2.678204548907122E-105
   117.028125000000         2.049003773987265E-104
   117.241875000000         5.361844531730544E-104
   117.455625000000         9.495742467934467E-104
   117.669375000000         1.396062015678887E-103
   117.883125000000         1.787082932743953E-103
   118.096875000000         1.991123584093097E-103
   118.310625000000         1.838772257678457E-103
   118.524375000000         1.140301544652989E-103
   118.738125000000        -2.806454956788751E-104
   118.951875000000        -2.535420784544159E-103
   119.165625000000        -5.602203639311280E-103
   119.379375000000        -9.247659994971828E-103
   119.593125000000        -1.295124559647719E-102
   119.806875000000        -1.585229068854024E-102
   120.020625000000        -1.674692467341834E-102
   120.234375000000        -1.416647987065039E-102
   120.448125000000        -6.568695405356866E-103
   120.661875000000         7.335101370105514E-103
   120.875625000000         2.811243139182704E-102
   121.089375000000         5.502863737827148E-102
   121.303125000000         8.542322315581529E-102
   121.516875000000         1.141678832473993E-101
   121.730625000000         1.333864875819030E-101
   121.944375000000         1.326636276710665E-101
   122.158125000000         9.998809619781268E-102
   122.371875000000         2.365009823898587E-102
   122.585625000000        -1.047857228838370E-101
   122.799375000000        -2.864934232956263E-101
   123.013125000000        -5.107265250724521E-101
   123.226875000000        -7.501927833326662E-101
   123.440625000000        -9.575832303165971E-101
   123.654375000000        -1.064768932652473E-100
   123.868125000000        -9.864452583415490E-101