  -1.60312500000000         0.000000000000000E+000
  -1.38937500000000         0.000000000000000E+000
  -1.17562500000000         0.000000000000000E+000
 -0.961875000000000         0.000000000000000E+000
 -0.748125000000000         0.000000000000000E+000
 -0.534375000000000         0.000000000000000E+000
 -0.320625000000000         0.000000000000000E+000
 -0.106875000000000         0.000000000000000E+000
  0.106875000000000         0.000000000000000E+000
  0.320625000000000         0.000000000000000E+000
  0.534375000000000         0.000000000000000E+000
  0.748125000000000         0.000000000000000E+000
  0.961875000000000         0.000000000000000E+000
   1.17562500000000         0.000000000000000E+000
   1.38937500000000         0.000000000000000E+000
   1.60312500000000         0.000000000000000E+000
   1.81687500000000         0.000000000000000E+000
   2.03062500000000         0.000000000000000E+000
   2.24437500000000         0.000000000000000E+000
   2.45812500000000         0.000000000000000E+000
   2.67187500000000         0.000000000000000E+000
   2.88562500000000         0.000000000000000E+000
   3.09937500000000         0.000000000000000E+000
   3.31312500000000         0.000000000000000E+000
   3.52687500000000         0.000000000000000E+000
   3.74062500000000         0.000000000000000E+000
   3.95437500000000         0.000000000000000E+000
   4.16812500000000         0.000000000000000E+000
   4.38187500000000         0.000000000000000E+000
   4.59562500000000         0.000000000000000E+000
   4.80937500000000         0.000000000000000E+000
   5.02312500000000         0.000000000000000E+000
   5.23687500000000         0.000000000000000E+000
   5.45062500000000         0.000000000000000E+000
   5.66437500000000         0.000000000000000E+000
   5.87812500000000         0.000000000000000E+000
   6.09187500000000         0.000000000000000E+000
   6.30562500000000         0.000000000000000E+000
   6.51937500000000         0.000000000000000E+000
   6.73312500000000         0.000000000000000E+000
   6.94687500000000         0.000000000000000E+000
   7.16062500000000         0.000000000000000E+000
   7.37437500000000         0.000000000000000E+000
   7.58812500000000         0.000000000000000E+000
   7.80187500000000         0.000000000000000E+000
   8.01562500000000         0.000000000000000E+000
   8.22937500000000         0.000000000000000E+000
   8.44312500000000         0.000000000000000E+000
   8.65687500000000         0.000000000000000E+000
   8.87062500000000         0.000000000000000E+000
   9.08437500000000         0.000000000000000E+000
   9.29812500000000         0.000000000000000E+000
   9.51187500000000         0.000000000000000E+000
   9.72562500000000         0.000000000000000E+000
   9.93937500000000         0.000000000000000E+000
   10.1531250000000         0.000000000000000E+000
   10.3668750000000         0.000000000000000E+000
   10.5806250000000         0.000000000000000E+000
   10.7943750000000         0.000000000000000E+000
   11.0081250000000         0.000000000000000E+000
   11.2218750000000         0.000000000000000E+000
   11.4356250000000         0.000000000000000E+000
   11.6493750000000         0.000000000000000E+000
   11.8631250000000         0.000000000000000E+000
   12.0768750000000         0.000000000000000E+000
   12.2906250000000         0.000000000000000E+000
   12.5043750000000         0.000000000000000E+000
   12.7181250000000         0.000000000000000E+000
   12.9318750000000         0.000000000000000E+000
   13.1456250000000         0.000000000000000E+000
   13.3593750000000         1.274842936719437E-253
   13.5731250000000         6.095621982814284E-241
   13.7868750000000         2.096914800067018E-239
   14.0006250000000        -3.621627459170720E-236
   14.2143750000000         3.143589868029408E-234
   14.4281250000000         1.278336876874883E-232
   14.6418750000000        -1.357667099086557E-230
   14.8556250000000        -1.340226399444026E-228
   15.0693750000000        -6.092458551199480E-227
   15.2831250000000        -1.873257198708422E-225
   15.4968750000000        -4.393448371835031E-224
   15.7106250000000        -8.345145084118945E-223
   15.9243750000000        -1.330876618407398E-221
   16.1381250000000        -1.825221789362977E-220
   16.3518750000000        -2.189105918142415E-219
   16.5656250000000        -2.324122899342191E-218
   16.7793750000000        -2.203501375240279E-217
   16.9931250000000        -1.877369550127080E-216
   17.2068750000000        -1.443526545723661E-215
   17.4206250000000        -1.004532777932033E-214
   17.6343750000000        -6.341125251538177E-214
   17.8481250000000        -3.645662416545279E-213
   18.0618750000000        -1.931027582576498E-212
   18.2756250000000        -9.732481961398951E-212
   18.4893750000000        -5.020365300873147E-211
   18.7031250000000        -2.938004341342482E-210
   18.9168750000000        -2.032216590786232E-209
   19.1306250000000        -1.545615394254618E-208
   19.3443750000000        -1.176166442886761E-207
   19.5581250000000        -8.499492611876891E-207
   19.7718750000000        -5.727057057950523E-206
   19.9856250000000        -3.586628408963719E-205
   20.1993750000000        -2.091394897292026E-204
   20.4131250000000        -1.138579722903505E-203
   20.6268750000000        -5.799239868516609E-203
   20.8406250000000        -2.765433807263184E-202
   21.0543750000000        -1.233040577848514E-201
   21.2681250000000        -5.118653398943109E-201
   21.4818750000000        -1.959973536873235E-200
   21.6956250000000        -6.789540923735161E-200
   21.9093750000000        -2.035324682978027E-199
   22.1231250000000        -4.618487219043252E-199
   22.3368750000000        -2.651410400342000E-199
   22.5506250000000         5.263647955516077E-198
   22.7643750000000         4.357314670504072E-197
   22.9781250000000         2.441240992883780E-196
   23.1918750000000         1.151360478152928E-195
   23.4056250000000         4.855908245952694E-195
   23.6193750000000         1.875080056716640E-194
   23.8331250000000         6.689087726737257E-194
   24.0468750000000         2.205051303103550E-193
   24.2606250000000         6.660651794955034E-193
   24.4743750000000         1.802338784025745E-192
   24.6881250000000         4.122548400126116E-192
   24.9018750000000         6.489106902337054E-192
   25.1156250000000        -3.132690978240690E-192
   25.3293750000000        -8.618908017614169E-191
   25.5431250000000        -4.925449032911096E-190
   25.7568750000000        -2.113226397522662E-189
   25.9706250000000        -7.830843636782095E-189
   26.1843750000000        -2.621993882956520E-188
   26.3981250000000        -8.080377831278034E-188
   26.6118750000000        -2.307927266178091E-187
   26.8256250000000        -6.107413455464425E-187
   27.0393750000000        -1.486177179802576E-186
   27.2531250000000        -3.264223519992083E-186
   27.4668750000000        -6.195838767990872E-186
   27.6806250000000        -8.943321917642935E-186
   27.8943750000000        -3.891080056938249E-186
   28.1081250000000         3.526386017054371E-185
   28.3218750000000         1.805035618550236E-184
   28.5356250000000         5.936717224340760E-184
   28.7493750000000         1.554463371776623E-183
   28.9631250000000         3.296512978765154E-183
   29.1768750000000         5.036619226146272E-183
   29.3906250000000         1.418353144861725E-183
   29.6043750000000        -2.813567766523851E-182
   29.8181250000000        -1.473498081284718E-181
   30.0318750000000        -5.288792352895533E-181
   30.2456250000000        -1.594589893136361E-180
   30.4593750000000        -4.285724919071770E-180
   30.6731250000000        -1.052752998889789E-179
   30.8868750000000        -2.392724799753090E-179
   31.1006250000000        -5.066021747278923E-179
   31.3143750000000        -1.004113827311619E-178
   31.5281250000000        -1.875092531139851E-178
   31.7418750000000        -3.341626133667788E-178
   31.9556250000000        -5.836244802789336E-178
   32.1693750000000        -1.045569077531591E-177
   32.3831250000000        -2.022656952747797E-177
   32.5968750000000        -4.298169466539865E-177
   32.8106250000000        -9.650520742213665E-177
   33.0243750000000        -2.145311777985830E-176
   33.2381250000000        -4.449619385384416E-176
   33.4518750000000        -8.144368567761166E-176
   33.6656250000000        -1.203553666891762E-175
   33.8793750000000        -1.049108529739720E-175
   34.0931250000000         1.168092763997897E-175
   34.3068750000000         8.390608567218657E-175
   34.5206250000000         2.421009553339364E-174
   34.7343750000000         4.758151263941981E-174
   34.9481250000000         5.656752220333288E-174
   35.1618750000000        -2.693038889442798E-174
   35.3756250000000        -3.886585995942044E-173
   35.5893750000000        -1.334264860513369E-172
   35.8031250000000        -3.049841799067015E-172
   36.0168750000000        -4.534870043080825E-172
   36.2306250000000        -4.659000611922350E-173
   36.4443750000000         2.610125227118976E-171
   36.6581250000000         1.173940206418267E-170
   36.8718750000000         3.594552683841750E-170
   37.0856250000000         8.888659916547422E-170
   37.2993750000000         1.828568486550209E-169
   37.5131250000000         2.997855007154380E-169
   37.7268750000000         3.061288916602479E-169
   37.9406250000000        -2.488397056007955E-169
   38.1543750000000        -2.536639366317068E-168
   38.3681250000000        -9.119923017933027E-168
   38.5818750000000        -2.477563255395339E-167
   38.7956250000000        -5.678035654450409E-167
   39.0093750000000        -1.125701950445913E-166
   39.2231250000000        -1.898807266454583E-166
   39.4368750000000        -2.497662571682095E-166
   39.6506250000000        -1.567693718714106E-166
   39.8643750000000         4.335461610160832E-166
   40.0781250000000         2.251036134438937E-165
   40.2918750000000         6.618167633126136E-165
   40.5056250000000         1.552988691724377E-164
   40.7193750000000         3.117455092904744E-164
   40.9331250000000         5.396254900364343E-164
   41.1468750000000         7.736443573436717E-164
   41.3606250000000         7.698458661905787E-164
   41.5743750000000        -9.065348506371091E-165
   41.7881250000000        -3.096993378388248E-163
   42.0018750000000        -1.054503268803643E-162
   42.2156250000000        -2.588061402136001E-162
   42.4293750000000        -5.305793084909956E-162
   42.6431250000000        -9.390936639849096E-162
   42.8568750000000        -1.414502084246555E-161
   43.0706250000000        -1.661131374217055E-161
   43.2843750000000        -9.160232793242547E-162
   43.4981250000000         2.410731745771590E-161
   43.7118750000000         1.115864505500461E-160
   43.9256250000000         2.967980198814890E-160
   44.1393750000000         6.339097457956610E-160
   44.3531250000000         1.165097252160823E-159
   44.5668750000000         1.860678814608831E-159
   44.7806250000000         2.493593270131076E-159
   44.9943750000000         2.413222294642808E-159
   45.2081250000000         1.896542552190787E-160
   45.4218750000000        -6.862259340560540E-159
   45.6356250000000        -2.316525439246356E-158
   45.8493750000000        -5.503054981786929E-158
   46.0631250000000        -1.097213862954588E-157
   46.2768750000000        -1.919752427131137E-157
   46.4906250000000        -2.954912674183278E-157
   46.7043750000000        -3.855666556852535E-157
   46.9181250000000        -3.678461266274828E-157
   47.1318750000000        -3.815485681161689E-158
   47.3456250000000         9.878146784052127E-157
   47.5593750000000         3.353507636237771E-156
   47.7731250000000         8.007255682984353E-156
   47.9868750000000         1.611085572534226E-155
   48.2006250000000         2.859648934107455E-155
   48.4143750000000         4.498482602830398E-155
   48.6281250000000         6.085208059212069E-155
   48.8418750000000         6.313072488900132E-155
   49.0556250000000         2.246102540519182E-155
   49.2693750000000        -1.174562732259730E-154
   49.4831250000000        -4.512709850193291E-154
   49.6968750000000        -1.116760782044170E-153
   49.9106250000000        -2.275855714816007E-153
   50.1243750000000        -4.039111848208372E-153
   50.3381250000000        -6.279744812616115E-153
   50.5518750000000        -8.262650948945719E-153
   50.7656250000000        -8.010241662385113E-153
   50.9793750000000        -1.375678392434580E-153
   51.1931250000000         1.904278771688757E-152
   51.4068750000000         6.464346582798693E-152
   51.6206250000000         1.500326012064299E-151
   51.8343750000000         2.884466432187913E-151
   52.0481250000000         4.797360139986964E-151
   52.2618750000000         6.859781418814364E-151
   52.4756250000000         7.897133821924437E-151
   52.6893750000000         5.331110476245319E-151
   52.9031250000000        -5.533233409471043E-151
   53.1168750000000        -3.201614591803399E-150
   53.3306250000000        -8.366338693015843E-150
   53.5443750000000        -1.696405337869418E-149
   53.7581250000000        -2.918985886292179E-149
   53.9718750000000        -4.314957554614159E-149
   54.1856250000000        -5.256201077249268E-149
   54.3993750000000        -4.349187703480129E-149
   54.6131250000000         9.350510002568874E-150
   54.8268750000000         1.450296820599834E-148
   55.0406250000000         4.138156859922044E-148
   55.2543750000000         8.630578459153540E-148
   55.4681250000000         1.501672084829752E-147
   55.6818750000000         2.231207541859608E-147
   55.8956250000000         2.733473702325332E-147
   56.1093750000000         2.316522175243717E-147
   56.3231250000000        -2.493076448732007E-148
   56.5368750000000        -6.815467089998310E-147
   56.7506250000000        -1.967507669188513E-146
   56.9643750000000        -4.080537268721188E-146
   57.1781250000000        -7.008381132582756E-146
   57.3918750000000        -1.019635143794400E-145
   57.6056250000000        -1.202555757411357E-145
   57.8193750000000        -9.132001051880135E-146
   58.0331250000000         4.250882803427561E-146
   58.2468750000000         3.646158602931826E-145
   58.4606250000000         9.718750128138210E-145
   58.6743750000000         1.933771362592028E-144
   58.8881250000000         3.202788182866996E-144
   59.1018750000000         4.454926181290123E-144
   59.3156250000000         4.850197189295802E-144
   59.5293750000000         2.738334710388621E-144
   59.7431250000000        -4.588526153713271E-144
   59.9568750000000        -2.085973993119003E-143
   60.1706250000000        -5.007013823327695E-143
   60.3843750000000        -9.432577856929579E-143
   60.5981250000000        -1.494173609207860E-142
   60.8118750000000        -1.972966481004715E-142
   61.0256250000000        -1.952859288542631E-142
   61.2393750000000        -6.365806830504606E-143
   61.4531250000000         3.231303988058869E-142
   61.6668750000000         1.130182042619292E-141
   61.8806250000000         2.520947391711410E-141
   62.0943750000000         4.551572839316713E-141
   62.3081250000000         6.965139289859670E-141
   62.5218750000000         8.856366879932329E-141
   62.7356250000000         8.211363567013168E-141
   62.9493750000000         1.410602038380098E-141
   63.1631250000000        -1.705849358987863E-140
   63.3768750000000        -5.418236445518783E-140
   63.5906250000000        -1.164662659323514E-139
   63.8043750000000        -2.052754711633929E-139
   64.0181250000000        -3.081509480270481E-139
   64.2318750000000        -3.851731144737593E-139
   64.4456250000000        -3.509710640688993E-139
   64.6593750000000        -5.639651391663848E-140
   64.8731250000000         7.200059752794153E-139
   65.0868750000000         2.251403434646757E-138
   65.3006250000000         4.782135061379164E-138
   65.5143750000000         8.345845190446869E-138
   65.7281250000000         1.243851028076036E-137
   65.9418750000000         1.552123731455472E-137
   66.1556250000000         1.438664009522856E-137
   66.3693750000000         3.545575227317583E-138
   66.5831250000000        -2.500035177269043E-137
   66.7968750000000        -8.093602316948179E-137
   67.0106250000000        -1.727431370004229E-136
   67.2243750000000        -3.014380036262161E-136
   67.4381250000000        -4.496444486581784E-136
   67.6518750000000        -5.654239018900065E-136
   67.8656250000000        -5.422615873494775E-136
   68.0793750000000        -2.004916401560569E-136
   68.2931250000000         7.182607905015261E-136
   68.5068750000000         2.523412245160903E-135
   68.7206250000000         5.484720263828373E-135
   68.9343750000000         9.641781871980892E-135
   69.1481250000000         1.447954015230212E-134
   69.3618750000000         1.845860411377826E-134
   69.5756250000000         1.844708776353327E-134
   69.7893750000000         9.208922503288046E-135
   70.0031250000000        -1.672776478566589E-134
   70.2168750000000        -6.827646082961693E-134
   70.4306250000000        -1.532919899900354E-133
   70.6443750000000        -2.734343159956749E-133
   70.8581250000000        -4.155769891097199E-133
   71.0718750000000        -5.395743246940565E-133
   71.2856250000000        -5.636908371185638E-133
   71.4993750000000        -3.516716707949399E-133
   71.7131250000000         2.905353958505828E-133
   71.9268750000000         1.595259775589597E-132
   72.1406250000000         3.772454606606340E-132
   72.3543750000000         6.886629697403876E-132
   72.5681250000000         1.065332063584554E-131
   72.7818750000000         1.415212156799669E-131
   72.9956250000000         1.548709797262035E-131
   73.2093750000000         1.148426267703623E-131
   73.4231250000000        -2.397726175986084E-132
   73.6368750000000        -3.166006114837726E-131
   73.8506250000000        -8.147061016551053E-131
   74.0643750000000        -1.540406826271071E-130
   74.2781250000000        -2.443001203845520E-130
   74.4918750000000        -3.338098269740216E-130
   74.7056250000000        -3.835277584800533E-130
   74.9193750000000        -3.272006845835117E-130
   75.1331250000000        -6.882523410722142E-131
   75.3468750000000         5.103303639037281E-130
   75.5606250000000         1.527664918002935E-129
   75.7743750000000         3.049606392329225E-129
   75.9881250000000         5.009129999544823E-129
   76.2018750000000         7.088672969998031E-129
   76.4156250000000         8.578626837196722E-129
   76.6293750000000         8.241861837481092E-129
   76.8431250000000         4.243927526167149E-129
   77.0568750000000        -5.755591978168982E-129
   77.2706250000000        -2.421968149228153E-128
   77.4843750000000        -5.290648602242746E-128
   77.6981250000000        -9.146131416556811E-128
   77.9118750000000        -1.353735163186155E-127
   78.1256250000000        -1.734271394923998E-127
   78.3393750000000        -1.850901788252568E-127
   78.5531250000000        -1.387483844683626E-127
   78.7668750000000         7.731351359006945E-129
   78.9806250000000         3.020208842032239E-127
   79.1943750000000         7.854133115573143E-127
   79.4081250000000         1.471493243034238E-126
   79.6218750000000         2.313877291631264E-126
   79.8356250000000         3.163892803602978E-126
   80.0493750000000         3.723381920193311E-126
   80.2631250000000         3.504387212734109E-126
   80.4768750000000         1.816152306628965E-126
   80.6906250000000        -2.190302115054096E-126
   80.9043750000000        -9.380973410373265E-126
   81.1181250000000        -2.035802047184198E-125
   81.3318750000000        -3.500270105655730E-125
   81.5456250000000        -5.182974486593056E-125
   81.7593750000000        -6.719093217668073E-125
   81.9731250000000        -7.444914184690749E-125
   82.1868750000000        -6.336477407425743E-125
   82.4006250000000        -2.009007349918826E-125
   82.6143750000000         7.166435984473304E-125
   82.8281250000000         2.275809667296583E-124
   83.0418750000000         4.570377815813718E-124
   83.2556250000000         7.541254554787208E-124
   83.4693750000000         1.085190075317465E-123
   83.6831250000000         1.373634030287694E-123
   83.8968750000000         1.484255253542964E-123
   84.1106250000000         1.211685781154623E-123
   84.3243750000000         2.804803606432742E-124
   84.5381250000000        -1.632165352267817E-123
   84.7518750000000        -4.836892858778369E-123
   84.9656250000000        -9.519977851167575E-123
   85.1793750000000        -1.556436734850103E-122
   85.3931250000000        -2.229802473867951E-122
   85.6068750000000        -2.818170718817839E-122
   85.8206250000000        -3.048004292727159E-122
   86.0343750000000        -2.500809922404697E-122
   86.2481250000000        -6.110626959029076E-123
   86.4618750000000         3.289277313568779E-122
   86.6756250000000         9.849132329583903E-122
   86.8893750000000         1.946513533128219E-121
   87.1031250000000         3.190653957983257E-121
   87.3168750000000         4.578630214580803E-121
   87.5306250000000         5.790720714123473E-121
   87.7443750000000         6.258277744698566E-121
   87.9581250000000         5.113861549897880E-121
   88.1718750000000         1.193807159819373E-121
   88.3856250000000        -6.856988802059887E-121
   88.5993750000000        -2.031514656549288E-120
   88.8131250000000        -3.987674179575112E-120
   89.0268750000000        -6.487116827193476E-120
   89.2406250000000        -9.218634228637849E-120
   89.4543750000000        -1.149946839110708E-119
   89.6681250000000        -1.215217819732727E-119
   89.8818750000000        -9.431323375720257E-120
   90.0956250000000        -1.071391486134417E-120
   90.3093750000000         1.544684094950849E-119
   90.5231250000000         4.229754245755057E-119
   90.7368750000000         8.027087050796665E-119
   90.9506250000000         1.272341639758874E-118
   91.1643750000000         1.761457438467840E-118
   91.3781250000000         2.128703745080792E-118
   91.5918750000000         2.143370902107844E-118
   91.8056250000000         1.479551509033168E-118
   92.0193750000000        -2.638736163099251E-119
   92.2331250000000        -3.500802192856307E-118
   92.4468750000000        -8.535482278181268E-118
   92.6606250000000        -1.536651967521459E-117
   92.8743750000000        -2.341563029268108E-117
   93.0881250000000        -3.120225248816754E-117
   93.3018750000000        -3.602097104933731E-117
   93.5156250000000        -3.372728857490123E-117
   93.7293750000000        -1.879400294323771E-117
   93.9431250000000         1.514580892796658E-117
   94.1568750000000         7.402201990462658E-117
   94.3706250000000         1.610900254711282E-116
   94.5843750000000         2.736145775283508E-116
   94.7981250000000         3.985941740809050E-116
   95.0118750000000         5.080446116613518E-116
   95.2256250000000         5.549321864397050E-116
   95.4393750000000         4.715575055707603E-116
   95.6531250000000         1.729354217276297E-116
   95.8668750000000        -4.317051551084754E-116
   96.0806250000000        -1.416078605463532E-115
   96.2943750000000        -2.800234601719208E-115
   96.5081250000000        -4.499950338526857E-115
   96.7218750000000        -6.265926361948191E-115
   96.9356250000000        -7.622753663879783E-115
   97.1493750000000        -7.825771766269750E-115
   97.3631250000000        -5.863234873039891E-115
   97.5768750000000        -5.397934408654286E-116
   97.7906250000000         9.317928484535602E-115
   98.0043750000000         2.449636354666528E-114
   98.2181250000000         4.485058851343567E-114
   98.4318750000000         6.859721944363144E-114
   98.6456250000000         9.152233189906774E-114
   98.8593750000000         1.062684232608726E-113
   99.0731250000000         1.019707791790177E-113
   99.2868750000000         6.462478612863303E-114
   99.5006250000000        -2.134665999583051E-114
   99.7143750000000        -1.698360595068332E-113
   99.9281250000000        -3.877196127959249E-113
   100.141875000000        -6.673624952757878E-113
   100.355625000000        -9.774240663923690E-113
   100.569375000000        -1.253270958570216E-112
   100.783125000000        -1.389429198680161E-112
   100.996875000000        -1.237801651873864E-112
   101.210625000000        -6.166078669304550E-113
   101.424375000000         6.642282707052071E-113
   101.638125000000         2.755781930823122E-112
   101.851875000000         5.697468852287252E-112
   102.065625000000         9.320083012474926E-112
   102.279375000000         1.313323027311304E-111
   102.493125000000         1.621685247036937E-111
   102.706875000000         1.715033155159874E-111
   102.920625000000         1.402750485889356E-111
   103.134375000000         4.618444236302170E-112
   103.348125000000        -1.325619057966459E-111
   103.561875000000        -4.108207881455182E-111
   103.775625000000        -7.871584449362120E-111
   103.989375000000        -1.231972040854591E-110
   104.203125000000        -1.674483227948677E-110
   104.416875000000        -1.991355305248784E-110
   104.630625000000        -2.001286458749550E-110
   104.844375000000        -1.471517651282082E-110
   105.058125000000        -1.433149932615887E-111
   105.271875000000         2.216510398559253E-110
   105.485625000000         5.732921993299764E-110
   105.699375000000         1.030847126496543E-109
   105.913125000000         1.548564119809089E-109
   106.126875000000         2.030607678673402E-109
   106.340625000000         2.320281252702471E-109
   106.554375000000         2.197897324196858E-109
   106.768125000000         1.394181986290241E-109
   106.981875000000        -3.731205818104573E-110
   107.195625000000        -3.332524980184971E-109
   107.409375000000        -7.558212726058144E-109
   107.623125000000        -1.283829328899375E-108
   107.836875000000        -1.852502633923216E-108
   108.050625000000        -2.339439870493018E-108
   108.264375000000        -2.555954442598336E-108
   108.478125000000        -2.249977378570441E-108
   108.691875000000        -1.127989526755206E-108
   108.905625000000         1.096350496019448E-108
   109.119375000000         4.620938473116345E-108
   109.333125000000         9.439905992601344E-108
   109.546875000000         1.520094292297171E-107
   109.760625000000         2.105395464058328E-107
   109.974375000000         2.552516158973255E-107
   110.188125000000         2.646783395986139E-107
   110.401875000000         2.115621427796398E-107
   110.615625000000         6.597528468332900E-108
   110.829375000000        -1.986874581270491E-107
   111.043125000000        -5.964318092656667E-107
   111.256875000000        -1.116272475274312E-106
   111.470625000000        -1.707832803818152E-106
   111.684375000000        -2.267326971399625E-106
   111.898125000000        -2.627851042978330E-106
   112.111875000000        -2.559459419674563E-106
   112.325625000000        -1.785672013926411E-106
   112.539375000000        -2.328113601478163E-108
   112.753125000000         2.949089724590584E-106
   112.966875000000         7.192012642737410E-106
   113.180625000000         1.248096989789326E-105
   113.394375000000         1.817182818407750E-105
   113.608125000000         2.308386565977510E-105
   113.821875000000         2.544215297389113E-105
   114.035625000000         2.293361530343842E-105
   114.249375000000         1.293793666617623E-105
   114.463125000000        -7.009897726297998E-106
   114.676875000000        -3.849042464939482E-105
   114.890625000000        -8.121395644895113E-105
   115.104375000000        -1.318603131506292E-104
   115.318125000000        -1.829241332814201E-104
   115.531875000000        -2.218619175753514E-104
   115.745625000000        -2.309531433917583E-104
   115.959375000000        -1.883746738695158E-104
   116.173125000000        -7.100436989464552E-105
   116.386875000000         1.406330394785417E-104
   116.600625000000         4.551377958627580E-104
   116.814375000000         8.610677697853430E-104
   117.028125000000         1.316880698624856E-103
   117.241875000000         1.741927179870691E-103
   117.455625000000         2.011409502937622E-103
   117.669375000000         1.959084645498261E-103
   117.883125000000         1.391956885179436E-103
   118.096875000000         1.209107016011785E-104
   118.310625000000        -1.990226992842359E-103
   118.524375000000        -4.957702347034697E-103
   118.738125000000        -8.598180887010874E-103
   118.951875000000        -1.244808922487112E-102
   119.165625000000        -1.570114435187759E-102
   119.379375000000        -1.719074142027114E-102
   119.593125000000        -1.544942852296706E-102
   119.806875000000        -8.878781466529003E-103
   120.020625000000         3.943417117870994E-103
   120.234375000000         2.380872343406192E-102
   120.448125000000         5.029609646960447E-102
   120.661875000000         8.112544280043019E-102
   120.875625000000         1.115638269196865E-101
   121.089375000000         1.340603316116685E-101
   121.303125000000         1.383374172377260E-101
   121.516875000000         1.121947705873395E-101
   121.730625000000         4.326489923664829E-102
   121.944375000000        -7.812489212652699E-102
   122.158125000000        -2.550024080282588E-101
   122.371875000000        -4.790030855711104E-101
   122.585625000000        -7.254819217183911E-101
   122.799375000000        -9.495691279265850E-101
   123.013125000000        -1.084676865583719E-100
   123.226875000000        -1.045278842676363E-100
   123.440625000000        -7.358506416837573E-101
   123.654375000000        -6.751351584784108E-102
   123.868125000000         1.016992615270338E-100