  -1.60312500000000         0.000000000000000E+000
  -1.38937500000000         0.000000000000000E+000
  -1.17562500000000         0.000000000000000E+000
 -0.961875000000000         0.000000000000000E+000
 -0.748125000000000         0.000000000000000E+000
 -0.534375000000000         0.000000000000000E+000
 -0.320625000000000         0.000000000000000E+000
 -0.106875000000000         0.000000000000000E+000
  0.106875000000000         0.000000000000000E+000
  0.320625000000000         0.000000000000000E+000
  0.534375000000000         0.000000000000000E+000
  0.748125000000000         0.000000000000000E+000
  0.961875000000000         0.000000000000000E+000
   1.17562500000000         0.000000000000000E+000
   1.38937500000000         0.000000000000000E+000
   1.60312500000000         0.000000000000000E+000
   1.81687500000000         0.000000000000000E+000
   2.03062500000000         0.000000000000000E+000
   2.24437500000000         0.000000000000000E+000
   2.45812500000000         0.000000000000000E+000
   2.67187500000000         0.000000000000000E+000
   2.88562500000000         0.000000000000000E+000
   3.09937500000000         0.000000000000000E+000
   3.31312500000000         0.000000000000000E+000
   3.52687500000000         0.000000000000000E+000
   3.74062500000000         0.000000000000000E+000
   3.95437500000000         0.000000000000000E+000
   4.16812500000000         0.000000000000000E+000
   4.38187500000000         0.000000000000000E+000
   4.59562500000000         0.000000000000000E+000
   4.80937500000000         0.000000000000000E+000
   5.02312500000000         0.000000000000000E+000
   5.23687500000000         0.000000000000000E+000
   5.45062500000000         0.000000000000000E+000
   5.66437500000000         0.000000000000000E+000
   5.87812500000000         0.000000000000000E+000
   6.09187500000000         0.000000000000000E+000
   6.30562500000000         0.000000000000000E+000
   6.51937500000000         0.000000000000000E+000
   6.73312500000000         0.000000000000000E+000
   6.94687500000000         0.000000000000000E+000
   7.16062500000000         0.000000000000000E+000
   7.37437500000000         0.000000000000000E+000
   7.58812500000000         0.000000000000000E+000
   7.80187500000000         0.000000000000000E+000
   8.01562500000000         0.000000000000000E+000
   8.22937500000000         0.000000000000000E+000
   8.44312500000000         0.000000000000000E+000
   8.65687500000000         0.000000000000000E+000
   8.87062500000000         0.000000000000000E+000
   9.08437500000000         0.000000000000000E+000
   9.29812500000000         0.000000000000000E+000
   9.51187500000000         0.000000000000000E+000
   9.72562500000000         0.000000000000000E+000
   9.93937500000000         0.000000000000000E+000
   10.1531250000000         0.000000000000000E+000
   10.3668750000000         0.000000000000000E+000
   10.5806250000000         0.000000000000000E+000
   10.7943750000000         0.000000000000000E+000
   11.0081250000000         0.000000000000000E+000
   11.2218750000000         0.000000000000000E+000
   11.4356250000000         0.000000000000000E+000
   11.6493750000000         0.000000000000000E+000
   11.8631250000000         0.000000000000000E+000
   12.0768750000000         0.000000000000000E+000
   12.2906250000000         0.000000000000000E+000
   12.5043750000000         0.000000000000000E+000
   12.7181250000000         0.000000000000000E+000
   12.9318750000000         0.000000000000000E+000
   13.1456250000000         0.000000000000000E+000
   13.3593750000000         0.000000000000000E+000
   13.5731250000000         1.182837762726042E-265
   13.7868750000000         1.520607484969385E-255
   14.0006250000000        -7.673548031486417E-244
   14.2143750000000         2.254256454328842E-239
   14.4281250000000        -1.909527656125080E-237
   14.6418750000000        -1.243090445579530E-235
   14.8556250000000         8.086638277536353E-234
   15.0693750000000         1.062468944333211E-231
   15.2831250000000         5.452987146502579E-230
   15.4968750000000         1.809125196367710E-228
   15.7106250000000         4.433687949501870E-227
   15.9243750000000         8.521451777007824E-226
   16.1381250000000         1.321760966465215E-224
   16.3518750000000         1.663758013731958E-223
   16.5656250000000         1.651947467178326E-222
   16.7793750000000         1.132888324001834E-221
   16.9931250000000         1.148271340308559E-221
   17.2068750000000        -1.220294443079864E-219
   17.4206250000000        -2.586320904449702E-218
   17.6343750000000        -3.700659550792988E-217
   17.8481250000000        -4.374523730156835E-216
   18.0618750000000        -4.551470025402985E-215
   18.2756250000000        -4.292969991062543E-214
   18.4893750000000        -3.732179106778092E-213
   18.7031250000000        -3.021805280008111E-212
   18.9168750000000        -2.294271709160619E-211
   19.1306250000000        -1.641081494692191E-210
   19.3443750000000        -1.109539032862941E-209
   19.5581250000000        -7.107192455836035E-209
   19.7718750000000        -4.320667544854599E-208
   19.9856250000000        -2.496316223057715E-207
   20.1993750000000        -1.372384782606052E-206
   20.4131250000000        -7.188375141056252E-206
   20.6268750000000        -3.592821440719242E-205
   20.8406250000000        -1.717183657989099E-204
   21.0543750000000        -7.873013884086578E-204
   21.2681250000000        -3.479082942460481E-203
   21.4818750000000        -1.492178287966388E-202
   21.6956250000000        -6.272389744170313E-202
   21.9093750000000        -2.615827580751535E-201
   22.1231250000000        -1.096394079232559E-200
   22.3368750000000        -4.665584581094828E-200
   22.5506250000000        -2.022855364388812E-199
   22.7643750000000        -8.896466110317158E-199
   22.9781250000000        -3.928494836707097E-198
   23.1918750000000        -1.720938434466080E-197
   23.4056250000000        -7.399504786089193E-197
   23.6193750000000        -3.098124973635947E-196
   23.8331250000000        -1.256689988902091E-195
   24.0468750000000        -4.924459691573649E-195
   24.2606250000000        -1.862149845563371E-194
   24.4743750000000        -6.796859350502100E-194
   24.6881250000000        -2.398045899505846E-193
   24.9018750000000        -8.199341905223735E-193
   25.1156250000000        -2.727271977315135E-192
   25.3293750000000        -8.870358604446860E-192
   25.5431250000000        -2.839214959694799E-191
   25.7568750000000        -9.007792682431262E-191
   25.9706250000000        -2.852324504241103E-190
   26.1843750000000        -9.060496676216860E-190
   26.3981250000000        -2.892485218303019E-189
   26.6118750000000        -9.260988883260925E-189
   26.8256250000000        -2.957764837676016E-188
   27.0393750000000        -9.353995102798641E-188
   27.2531250000000        -2.906339318806980E-187
   27.4668750000000        -8.806199910039621E-187
   27.6806250000000        -2.584762952914343E-186
   27.8943750000000        -7.304155113693828E-186
   28.1081250000000        -1.974920540589885E-185
   28.3218750000000        -5.073033973276561E-185
   28.5356250000000        -1.226274155423969E-184
   28.7493750000000        -2.748524003789402E-184
   28.9631250000000        -5.561833171791442E-184
   29.1768750000000        -9.576121813385708E-184
   29.3906250000000        -1.155582500668726E-183
   29.6043750000000         2.395637064335733E-184
   29.8181250000000         7.509773027572774E-183
   30.0318750000000         3.146203544363014E-182
   30.2456250000000         9.454017584427317E-182
   30.4593750000000         2.311410019468260E-181
   30.6731250000000         4.556864974565136E-181
   30.8868750000000         6.090831317744653E-181
   31.1006250000000        -1.646047883013029E-181
   31.3143750000000        -4.924624064146150E-180
   31.5281250000000        -2.279199742966312E-179
   31.7418750000000        -7.791770702146242E-179
   31.9556250000000        -2.285010944911236E-178
   32.1693750000000        -6.034010032110927E-178
   32.3831250000000        -1.464924512947915E-177
   32.5968750000000        -3.300215606003270E-177
   32.8106250000000        -6.917708053909470E-177
   33.0243750000000        -1.345566530376492E-176
   33.2381250000000        -2.405818550439096E-176
   33.4518750000000        -3.868264497765183E-176
   33.6656250000000        -5.298110309477171E-176
   33.8793750000000        -5.125372934498890E-176
   34.0931250000000         8.453306273913558E-177
   34.3068750000000         2.256283016125330E-175
   34.5206250000000         8.253565875540541E-175
   34.7343750000000         2.313609172124596E-174
   34.9481250000000         5.839646972870430E-174
   35.1618750000000         1.402517899074379E-173
   35.3756250000000         3.274609815874905E-173
   35.5893750000000         7.457071526547022E-173
   35.8031250000000         1.642967406333143E-172
   36.0168750000000         3.448347443190468E-172
   36.2306250000000         6.739781297887300E-172
   36.4443750000000         1.181922048291732E-171
   36.6581250000000         1.712649247731399E-171
   36.8718750000000         1.481297270321908E-171
   37.0856250000000        -1.970205275657627E-171
   37.2993750000000        -1.492807044349973E-170
   37.5131250000000        -5.139779481110974E-170
   37.7268750000000        -1.390642313666305E-169
   37.9406250000000        -3.262208523557335E-169
   38.1543750000000        -6.847175643818358E-169
   38.3681250000000        -1.295968411837794E-168
   38.5818750000000        -2.193495128739294E-168
   38.7956250000000        -3.217496158509105E-168
   39.0093750000000        -3.722329172905526E-168
   39.2231250000000        -2.086266815883981E-168
   39.4368750000000         4.962622419134189E-168
   39.6506250000000         2.303963643827484E-167
   39.8643750000000         6.044405167764853E-167
   40.0781250000000         1.277425949606632E-166
   40.2918750000000         2.369985330619316E-166
   40.5056250000000         4.040704482748146E-166
   40.7193750000000         6.646969442337339E-166
   40.9331250000000         1.128202148017885E-165
   41.1468750000000         2.108551755187623E-165
   41.3606250000000         4.373688857060533E-165
   41.5743750000000         9.490141894912468E-165
   41.7881250000000         2.000009980787583E-164
   42.0018750000000         3.855630105118273E-164
   42.2156250000000         6.388850538120925E-164
   42.4293750000000         7.938407540133842E-164
   42.6431250000000         2.742520869115481E-164
   42.8568750000000        -2.388441175589731E-163
   43.0706250000000        -1.030126837030655E-162
   43.2843750000000        -2.904969856347461E-162
   43.4981250000000        -6.691220143758820E-162
   43.7118750000000        -1.325930185566114E-161
   43.9256250000000        -2.266776114629213E-161
   44.1393750000000        -3.203864878132568E-161
   44.3531250000000        -3.129590990495151E-161
   44.5668750000000         3.972310786491136E-162
   44.7806250000000         1.221157291319685E-160
   44.9943750000000         4.037392027109011E-160
   45.2081250000000         9.578481609074839E-160
   45.4218750000000         1.882486915231969E-159
   45.6356250000000         3.148990897506041E-159
   45.8493750000000         4.351674120191051E-159
   46.0631250000000         4.263913554399921E-159
   46.2768750000000         1.918670461420358E-160
   46.4906250000000        -1.272173664079253E-158
   46.7043750000000        -4.173656524644761E-158
   46.9181250000000        -9.516219420358838E-158
   47.1318750000000        -1.773810835079437E-157
   47.3456250000000        -2.772772684768983E-157
   47.5593750000000        -3.468479092513296E-157
   47.7731250000000        -2.687447254748618E-157
   47.9868750000000         1.816784493111808E-157
   48.2006250000000         1.358911974362925E-156
   48.4143750000000         3.706173301022735E-156
   48.6281250000000         7.562587953066931E-156
   48.8418750000000         1.268734927775122E-155
   49.0556250000000         1.735109390533062E-155
   49.2693750000000         1.691214796784115E-155
   49.4831250000000         2.054246614963532E-156
   49.6968750000000        -4.253767268718293E-155
   49.9106250000000        -1.371880208988575E-154
   50.1243750000000        -3.003921541811138E-154
   50.3381250000000        -5.306253333178292E-154
   50.5518750000000        -7.699530938065510E-154
   50.7656250000000        -8.440152635560515E-154
   50.9793750000000        -3.810213926775550E-154
   51.1931250000000         1.266987227784023E-153
   51.4068750000000         5.036954583822639E-153
   51.6206250000000         1.197210579901496E-152
   51.8343750000000         2.262485680349563E-152
   52.0481250000000         3.573626583392943E-152
   52.2618750000000         4.585346589927363E-152
   52.4756250000000         3.970385156003760E-152
   52.6893750000000        -8.295727246259884E-153
   52.9031250000000        -1.397428019250280E-151
   53.1168750000000        -4.111609282834451E-151
   53.3306250000000        -8.804148030960303E-151
   53.5443750000000        -1.568057798083957E-150
   53.7581250000000        -2.376270011814551E-150
   53.9718750000000        -2.946737099356371E-150
   54.1856250000000        -2.447815924494021E-150
   54.3993750000000         6.876386449147306E-151
   54.6131250000000         8.982145275077890E-150
   54.8268750000000         2.586941102606667E-149
   55.0406250000000         5.495831625815645E-149
   55.2543750000000         9.790256331984961E-149
   55.4681250000000         1.498958066180479E-148
   55.6818750000000         1.917125373226830E-148
   55.8956250000000         1.776661899533978E-148
   56.1093750000000         2.049897539413741E-149
   56.3231250000000        -4.220118086942874E-148
   56.5368750000000        -1.346950764048013E-147
   56.7506250000000        -2.969871427747972E-147
   56.9643750000000        -5.414860424094359E-147
   57.1781250000000        -8.479753419696360E-147
   57.3918750000000        -1.122161062789548E-146
   57.6056250000000        -1.133430363942634E-146
   57.8193750000000        -4.379776740349294E-147
   58.0331250000000         1.686812543347698E-146
   58.2468750000000         6.235686973368553E-146
   58.4606250000000         1.428289205985134E-145
   58.6743750000000         2.642601877877339E-145
   58.8881250000000         4.163715730109494E-145
   59.1018750000000         5.530649559324319E-145
   59.3156250000000         5.643995097537978E-145
   59.5293750000000         2.445482958876170E-145
   59.7431250000000        -7.302149502583694E-145
   59.9568750000000        -2.783708921346650E-144
   60.1706250000000        -6.331069853911800E-144
   60.3843750000000        -1.150582325983535E-143
   60.5981250000000        -1.763996456396075E-143
   60.8118750000000        -2.244232161014290E-143
   61.0256250000000        -2.092676703330873E-143
   61.2393750000000        -4.379096390764917E-144
   61.4531250000000         3.992995812115103E-143
   61.6668750000000         1.269653684604131E-142
   61.8806250000000         2.680454076869764E-142
   62.0943750000000         4.582914300682662E-142
   62.3081250000000         6.551202501088307E-142
   62.5218750000000         7.476062805418153E-142
   62.7356250000000         5.219494443385627E-142
   62.9493750000000        -3.614322651789119E-142
   63.1631250000000        -2.347571056817155E-141
   63.3768750000000        -5.871077954693567E-141
   63.5906250000000        -1.107296537944138E-140
   63.8043750000000        -1.727374568750139E-140
   64.0181250000000        -2.216110001333400E-140
   64.2318750000000        -2.076123835943184E-140
   64.4456250000000        -4.494817986722049E-141
   64.6593750000000         3.899092509071878E-140
   64.8731250000000         1.239726151903801E-139
   65.0868750000000         2.609270812124132E-139
   65.3006250000000         4.446583422330699E-139
   65.5143750000000         6.342993142835449E-139
   65.7281250000000         7.250748441878536E-139
   65.9418750000000         5.162834470330277E-139
   66.1556250000000        -3.115442460729283E-139
   66.3693750000000        -2.184192340672955E-138
   66.5831250000000        -5.542906684921958E-138
   66.7968750000000        -1.061528085445904E-137
   67.0106250000000        -1.698094238467200E-137
   67.2243750000000        -2.288471653754168E-137
   67.4381250000000        -2.432191654172508E-137
   67.6518750000000        -1.407703991313417E-137
   67.8656250000000         1.883065867142921E-137
   68.0793750000000         8.844173921993667E-137
   68.2931250000000         2.085497531145849E-136
   68.5068750000000         3.850074233757810E-136
   68.7206250000000         6.017449288206030E-136
   68.9343750000000         7.992990094451446E-136
   69.1481250000000         8.468710377794175E-136
   69.3618750000000         5.135270587187116E-136
   69.5756250000000        -5.480954699252921E-136
   69.7893750000000        -2.781061280017618E-135
   70.0031250000000        -6.628422969341182E-135
   70.2168750000000        -1.231233555812380E-134
   70.4306250000000        -1.943421210115138E-134
   70.6443750000000        -2.635959122562355E-134
   70.8581250000000        -2.940790952109319E-134
   71.0718750000000        -2.198501481241968E-134
   71.2856250000000         6.003961810307540E-135
   71.4993750000000         6.783258292589921E-134
   71.7131250000000         1.777313678511210E-133
   71.9268750000000         3.454210438553036E-133
   72.1406250000000         5.658759210893069E-133
   72.3543750000000         8.030808732366797E-133
   72.5681250000000         9.677394325262918E-133
   72.7818750000000         8.915548807029977E-133
   72.9956250000000         3.054382640672752E-133
   73.2093750000000        -1.163792804822993E-132
   73.4231250000000        -3.954149475216447E-132
   73.6368750000000        -8.452138883719642E-132
   73.8506250000000        -1.475695432854701E-131
   74.0643750000000        -2.228384516106767E-131
   74.2781250000000        -2.918564936749765E-131
   74.4918750000000        -3.162533553802583E-131
   74.7056250000000        -2.303669048689026E-131
   74.9193750000000         6.319644002330032E-132
   75.1331250000000         6.895637154237169E-131
   75.3468750000000         1.780740935981281E-130
   75.5606250000000         3.426665956107028E-130
   75.7743750000000         5.585587130004966E-130
   75.9881250000000         7.943651236432777E-130
   76.2018750000000         9.723345740530658E-130
   76.4156250000000         9.461993663144099E-130
   76.6293750000000         4.819602491119843E-130
   76.8431250000000        -7.466707618404815E-130
   77.0568750000000        -3.128813431331891E-129
   77.2706250000000        -7.025220324265109E-129
   77.4843750000000        -1.258122597359259E-128
   77.6981250000000        -1.941043179297998E-128
   77.9118750000000        -2.613152095760334E-128
   78.1256250000000        -2.978246299591880E-128
   78.3393750000000        -2.521684919927132E-128
   78.5531250000000        -4.716820662482568E-129
   78.7668750000000         4.176211731896741E-128
   78.9806250000000         1.250849662757096E-127
   79.1943750000000         2.533454588487888E-127
   79.4081250000000         4.252932738240723E-127
   79.6218750000000         6.201093984011385E-127
   79.8356250000000         7.836208469258402E-127
   80.0493750000000         8.126349200504070E-127
   80.2631250000000         5.417571570767701E-127
   80.4768750000000        -2.590537041669391E-127
   80.6906250000000        -1.863115851204426E-126
   80.9043750000000        -4.523960121612790E-126
   81.1181250000000        -8.349921801876570E-126
   81.3318750000000        -1.309837997186549E-125
   81.5456250000000        -1.788454194581680E-125
   81.7593750000000        -2.082877864257683E-125
   81.9731250000000        -1.871759023540593E-125
   82.1868750000000        -6.829375855025367E-126
   82.4006250000000         2.082648852448483E-125
   82.6143750000000         7.050656730967208E-125
   82.8281250000000         1.465442287828627E-124
   83.0418750000000         2.475729879933846E-124
   83.2556250000000         3.609621183984136E-124
   83.4693750000000         4.557562552255062E-124
   83.6831250000000         4.753032125799314E-124
   83.8968750000000         3.321137910430127E-124
   84.1106250000000        -9.072343848300520E-125
   84.3243750000000        -9.253095399048105E-124
   84.5381250000000        -2.284106499084789E-123
   84.7518750000000        -4.196657530339964E-123
   84.9656250000000        -6.512849955647861E-123
   85.1793750000000        -8.775348595045772E-123
   85.3931250000000        -1.007814899222015E-122
   85.6068750000000        -8.950469337084954E-123
   85.8206250000000        -3.334934083004965E-123
   86.0343750000000         9.237554360974290E-123
   86.2481250000000         3.114552017529707E-122
   86.4618750000000         6.370872487485610E-122
   86.6756250000000         1.056513931908833E-121
   86.8893750000000         1.510024510041067E-121
   87.1031250000000         1.866494455195098E-121
   87.3168750000000         1.900984115928304E-121
   87.5306250000000         1.284492882321045E-121
   87.7443750000000        -3.987377949623264E-122
   87.9581250000000        -3.586176298114587E-121
   88.1718750000000        -8.601885904224167E-121
   88.3856250000000        -1.543283821670038E-120
   88.5993750000000        -2.341209855104294E-120
   88.8131250000000        -3.083289035043956E-120
   89.0268750000000        -3.456419687975776E-120
   89.2406250000000        -2.980362309610418E-120
   89.4543750000000        -1.018093074768685E-120
   89.6681250000000         3.149943914963435E-120
   89.8818750000000         1.015448038006581E-119
   90.0956250000000         2.023881879734995E-119
   90.3093750000000         3.281896954925559E-119
   90.5231250000000         4.592394964980604E-119
   90.7368750000000         5.559757805917093E-119
   90.9506250000000         5.542902678483435E-119
   91.1643750000000         3.648544061770506E-119
   91.3781250000000        -1.197164235288909E-119
   91.5918750000000        -1.005276024922738E-118
   91.8056250000000        -2.359633921971055E-118
   92.0193750000000        -4.156251193000689E-118
   92.2331250000000        -6.199291211212412E-118
   92.4468750000000        -8.038281554319229E-118
   92.6606250000000        -8.891199778828889E-118
   92.8743750000000        -7.608317644978975E-118
   93.0881250000000        -2.723779017448395E-118
   93.3018750000000         7.346121595243737E-118
   93.5156250000000         2.389574023704119E-117
   93.7293750000000         4.726563833129790E-117
   93.9431250000000         7.591358282101120E-117
   94.1568750000000         1.052915168125625E-116
   94.3706250000000         1.267197870445422E-116
   94.5843750000000         1.266112707934057E-116
   94.7981250000000         8.658302583394096E-117
   95.0118750000000        -1.483658679743899E-117
   95.2256250000000        -1.981067422090835E-116
   95.4393750000000        -4.754629246768850E-116
   95.6531250000000        -8.402512835928292E-116
   95.8668750000000        -1.253246139619702E-115
   96.0806250000000        -1.627673613537726E-115
   96.2943750000000        -1.816467857372397E-115
   96.5081250000000        -1.607476640692633E-115
   96.7218750000000        -7.345562247638924E-116
   96.9356250000000         1.085894895163857E-115
   97.1493750000000         4.083394078931140E-115
   97.3631250000000         8.320099615289422E-115
   97.5768750000000         1.353621232011121E-114
   97.7906250000000         1.896715864151490E-114
   98.0043750000000         2.316453375819694E-114
   98.2181250000000         2.387710245172337E-114
   98.4318750000000         1.807500181502644E-114
   98.6456250000000         2.223715057987916E-115
   98.8593750000000        -2.707519244167708E-114
   99.0731250000000        -7.197538809267668E-114
   99.2868750000000        -1.317657920890392E-113
   99.5006250000000        -2.008116109293853E-113
   99.7143750000000        -2.663132821209522E-113
   99.9281250000000        -3.063934016252044E-113
   100.141875000000        -2.893229397832273E-113
   100.355625000000        -1.749971360817165E-113
   100.569375000000         8.001968286246053E-114
   100.783125000000         5.125719406282757E-113
   100.996875000000         1.137200435164105E-112
   101.210625000000         1.924687470025594E-112
   101.424375000000         2.776588264104143E-112
   101.638125000000         3.499946156045001E-112
   101.851875000000         3.789538756795676E-112
   102.065625000000         3.228451148797522E-112
   102.279375000000         1.320766002302079E-112
   102.493125000000        -2.428493855550065E-112
   102.706875000000        -8.372958749872854E-112
   102.920625000000        -1.651793404095455E-111
   103.134375000000        -2.625490413897141E-111
   103.348125000000        -3.606807464955950E-111
   103.561875000000        -4.327424514713828E-111
   103.775625000000        -4.389377278455772E-111
   103.989375000000        -3.278661841628757E-111
   104.203125000000        -4.213146381718775E-112
   104.416875000000         4.702050055730967E-111
   104.630625000000         1.237168829095490E-110
   104.844375000000         2.237350484991411E-110
   105.058125000000         3.369160841821436E-110
   105.271875000000         4.419509820454192E-110
   105.485625000000         5.040119916415776E-110
   105.699375000000         4.743589524965526E-110
   105.913125000000         2.934728387873324E-110
   106.126875000000        -1.005700162529743E-110
   106.340625000000        -7.569621104045428E-110
   106.554375000000        -1.689495355133947E-109
   106.768125000000        -2.847086468610697E-109
   106.981875000000        -4.080606623498155E-109
   107.195625000000        -5.112366526778309E-109
   107.409375000000        -5.518441116170828E-109
   107.623125000000        -4.737819756118786E-109
   107.836875000000        -2.125082245494975E-109
   108.050625000000         2.936579630290467E-109
   108.264375000000         1.084951848461400E-108
   108.478125000000         2.154126811353908E-108
   108.691875000000         3.414679541710677E-108
   108.905625000000         4.667796326714037E-108
   109.119375000000         5.575954143644717E-108
   109.333125000000         5.654887753993501E-108
   109.546875000000         4.298913707868043E-108
   109.760625000000         8.561614790009285E-109
   109.974375000000        -5.231506066633060E-108
   110.188125000000        -1.421602138433998E-107
   110.401875000000        -2.576400808355181E-107
   110.615625000000        -3.863865012910537E-107
   110.829375000000        -5.039940567042201E-107
   111.043125000000        -5.721071226865485E-107
   111.256875000000        -5.388448167798654E-107
   111.470625000000        -3.430492258894712E-107
   111.684375000000         7.614891078161892E-108
   111.898125000000         7.633293399991577E-107
   112.111875000000         1.724150999372222E-106
   112.325625000000         2.897489004982364E-106
   112.539375000000         4.126037923640671E-106
   112.753125000000         5.131956293233674E-106
   112.966875000000         5.507219166376553E-106
   113.180625000000         4.730993080353729E-106
   113.394375000000         2.227572006532488E-106
   113.608125000000        -2.523042672921815E-106
   113.821875000000        -9.815359799762706E-106
   114.035625000000        -1.949370038898748E-105
   114.249375000000        -3.069373620633361E-105
   114.463125000000        -4.159391413231230E-105
   114.676875000000        -4.924645812037946E-105
   114.890625000000        -4.958288473126084E-105
   115.104375000000        -3.770646457968271E-105
   115.318125000000        -8.584353769237170E-106
   115.531875000000         4.177595776660088E-105
   115.745625000000         1.146488063069935E-104
   115.959375000000         2.065093557098945E-104
   116.173125000000         3.068121464132334E-104
   116.386875000000         3.960954713137562E-104
   116.600625000000         4.450942252680657E-104
   116.814375000000         4.157268577141410E-104
   117.028125000000         2.649046848118025E-104
   117.241875000000        -4.798994204620937E-105
   117.455625000000        -5.494870038996356E-104
   117.669375000000        -1.236535101237719E-103
   117.883125000000        -2.058517283896067E-103
   118.096875000000        -2.899649697399569E-103
   118.310625000000        -3.566341393443357E-103
   118.524375000000        -3.785731277245127E-103
   118.738125000000        -3.222742106439601E-103
   118.951875000000        -1.523006622460126E-103
   119.165625000000         1.612761292726304E-103
   119.379375000000         6.321626795181330E-103
   119.593125000000         1.244439278085081E-102
   119.806875000000         1.938070023060878E-102
   120.020625000000         2.596181362847161E-102
   120.234375000000         3.038282821562019E-102
   120.448125000000         3.024713023409370E-102
   120.661875000000         2.278096315358634E-102
   120.875625000000         5.270001544938233E-103
   121.089375000000        -2.425228426924288E-102
   121.303125000000        -6.607737778335841E-102
   121.516875000000        -1.177338112772584E-101
   121.730625000000        -1.729026386781383E-101
   121.944375000000        -2.205981971969330E-101
   122.158125000000        -2.449697030101339E-101
   122.371875000000        -2.261435957151737E-101
   122.585625000000        -1.425287901800812E-101
   122.799375000000         2.509033235676207E-102
   123.013125000000         2.875810128974687E-101
   123.226875000000         6.399095760813013E-101
   123.440625000000         1.052862620748409E-100
   123.654375000000         1.465571870680959E-100
   123.868125000000         1.781084464768148E-100