  -1.60312500000000         0.000000000000000E+000
  -1.38937500000000         0.000000000000000E+000
  -1.17562500000000         0.000000000000000E+000
 -0.961875000000000         0.000000000000000E+000
 -0.748125000000000         0.000000000000000E+000
 -0.534375000000000         0.000000000000000E+000
 -0.320625000000000         0.000000000000000E+000
 -0.106875000000000         0.000000000000000E+000
  0.106875000000000         0.000000000000000E+000
  0.320625000000000         0.000000000000000E+000
  0.534375000000000         0.000000000000000E+000
  0.748125000000000         0.000000000000000E+000
  0.961875000000000         0.000000000000000E+000
   1.17562500000000         0.000000000000000E+000
   1.38937500000000         0.000000000000000E+000
   1.60312500000000         0.000000000000000E+000
   1.81687500000000         0.000000000000000E+000
   2.03062500000000         0.000000000000000E+000
   2.24437500000000         0.000000000000000E+000
   2.45812500000000         0.000000000000000E+000
   2.67187500000000         0.000000000000000E+000
   2.88562500000000         0.000000000000000E+000
   3.09937500000000         0.000000000000000E+000
   3.31312500000000         0.000000000000000E+000
   3.52687500000000         0.000000000000000E+000
   3.74062500000000         0.000000000000000E+000
   3.95437500000000         0.000000000000000E+000
   4.16812500000000         0.000000000000000E+000
   4.38187500000000         0.000000000000000E+000
   4.59562500000000         0.000000000000000E+000
   4.80937500000000         0.000000000000000E+000
   5.02312500000000         0.000000000000000E+000
   5.23687500000000         0.000000000000000E+000
   5.45062500000000         0.000000000000000E+000
   5.66437500000000         0.000000000000000E+000
   5.87812500000000         0.000000000000000E+000
   6.09187500000000         0.000000000000000E+000
   6.30562500000000         0.000000000000000E+000
   6.51937500000000         0.000000000000000E+000
   6.73312500000000         0.000000000000000E+000
   6.94687500000000         0.000000000000000E+000
   7.16062500000000         0.000000000000000E+000
   7.37437500000000         0.000000000000000E+000
   7.58812500000000         0.000000000000000E+000
   7.80187500000000         0.000000000000000E+000
   8.01562500000000         0.000000000000000E+000
   8.22937500000000         0.000000000000000E+000
   8.44312500000000         0.000000000000000E+000
   8.65687500000000         0.000000000000000E+000
   8.87062500000000         0.000000000000000E+000
   9.08437500000000         0.000000000000000E+000
   9.29812500000000         0.000000000000000E+000
   9.51187500000000         0.000000000000000E+000
   9.72562500000000         0.000000000000000E+000
   9.93937500000000         0.000000000000000E+000
   10.1531250000000         6.523533118073894E-198
   10.3668750000000        -8.194699213333590E-191
   10.5806250000000        -1.760126691993511E-187
   10.7943750000000        -1.104038324738650E-185
   11.0081250000000        -1.579644134814738E-183
   11.2218750000000        -1.890995391508318E-181
   11.4356250000000        -1.137341083994472E-179
   11.6493750000000        -4.265157423963744E-178
   11.8631250000000        -1.141110590066952E-176
   12.0768750000000        -2.358599063876379E-175
   12.2906250000000        -3.967738714521631E-174
   12.5043750000000        -5.640676139160844E-173
   12.7181250000000        -6.980665234151401E-172
   12.9318750000000        -7.711495954012161E-171
   13.1456250000000        -7.773739510377993E-170
   13.3593750000000        -7.288519836731118E-169
   13.5731250000000        -6.452065724710675E-168
   13.7868750000000        -5.446046049493531E-167
   14.0006250000000        -4.401948592685260E-166
   14.2143750000000        -3.406199632779418E-165
   14.4281250000000        -2.515891332487532E-164
   14.6418750000000        -1.767337545071783E-163
   14.8556250000000        -1.176974060621024E-162
   15.0693750000000        -7.414180484638607E-162
   15.2831250000000        -4.412116285028059E-161
   15.4968750000000        -2.478902377604714E-160
   15.7106250000000        -1.314644514068087E-159
   15.9243750000000        -6.580119466184612E-159
   16.1381250000000        -3.107265249118848E-158
   16.3518750000000        -1.383079734220742E-157
   16.5656250000000        -5.791995804750175E-157
   16.7793750000000        -2.274116347861412E-156
   16.9931250000000        -8.319367282261994E-156
   17.2068750000000        -2.803480193023387E-155
   17.4206250000000        -8.508348018506733E-155
   17.6343750000000        -2.207991877158939E-154
   17.8481250000000        -4.147000076015933E-154
   18.0618750000000        -1.457514500173809E-155
   18.2756250000000         5.065446522145933E-153
   18.4893750000000         3.395025554581854E-152
   18.7031250000000         1.637664257799860E-151
   18.9168750000000         6.753003400480720E-151
   19.1306250000000         2.510359629151864E-150
   19.3443750000000         8.607844796539862E-150
   19.5581250000000         2.753469425388005E-149
   19.7718750000000         8.262459273963925E-149
   19.9856250000000         2.330580189745850E-148
   20.1993750000000         6.174808410464245E-148
   20.4131250000000         1.531190369136673E-147
   20.6268750000000         3.527548962621608E-147
   20.8406250000000         7.447314392608932E-147
   21.0543750000000         1.402881003878214E-146
   21.2681250000000         2.218419527934325E-146
   21.4818750000000         2.403423059327488E-146
   21.6956250000000        -6.272830959264740E-147
   21.9093750000000        -1.321998759546664E-145
   22.1231250000000        -4.774201162286310E-145
   22.3368750000000        -1.221726214329186E-144
   22.5506250000000        -2.494510755553085E-144
   22.7643750000000        -4.062044550372221E-144
   22.9781250000000        -4.913727474397970E-144
   23.1918750000000        -4.028773307920929E-144
   23.4056250000000        -7.648356062731332E-144
   23.6193750000000        -5.929034637711312E-143
   23.8331250000000        -3.329606201249993E-142
   24.0468750000000        -1.372904393967410E-141
   24.2606250000000        -4.613211402742686E-141
   24.4743750000000        -1.329286566279469E-140
   24.6881250000000        -3.355246605118588E-140
   24.9018750000000        -7.424810616339502E-140
   25.1156250000000        -1.405965100683754E-139
   25.3293750000000        -2.091141282098671E-139
   25.5431250000000        -1.570916841890718E-139
   25.7568750000000         4.009352959931940E-139
   25.9706250000000         2.434932655146136E-138
   26.1843750000000         8.024242940907251E-138
   26.3981250000000         2.098587770839439E-137
   26.6118750000000         4.706719057840661E-137
   26.8256250000000         9.216046801145370E-137
   27.0393750000000         1.551255054970213E-136
   27.2531250000000         2.089909404174254E-136
   27.4668750000000         1.613312148205457E-136
   27.6806250000000        -2.157093414085959E-136
   27.8943750000000        -1.386473027942199E-135
   28.1081250000000        -4.155000054331960E-135
   28.3218750000000        -9.673897774316594E-135
   28.5356250000000        -1.913816037450529E-134
   28.7493750000000        -3.275162156075959E-134
   28.9631250000000        -4.730717798513562E-134
   29.1768750000000        -5.147181762844514E-134
   29.3906250000000        -1.771357616251033E-134
   29.6043750000000         1.100832194801172E-133
   29.8181250000000         4.335294960364125E-133
   30.0318750000000         1.118891987321571E-132
   30.2456250000000         2.408449884569132E-132
   30.4593750000000         4.591352544911642E-132
   30.6731250000000         7.842117150736557E-132
   30.8868750000000         1.169996620686588E-131
   31.1006250000000         1.370144752402048E-131
   31.3143750000000         6.280599956844766E-132
   31.5281250000000        -2.930817582618194E-131
   31.7418750000000        -1.329122142964885E-130
   31.9556250000000        -3.772085499339439E-130
   32.1693750000000        -8.701632464512399E-130
   32.3831250000000        -1.716327929266112E-129
   32.5968750000000        -2.866570203004052E-129
   32.8106250000000        -3.730558680276739E-129
   33.0243750000000        -2.379373829136162E-129
   33.2381250000000         5.790902770490629E-129
   33.4518750000000         2.974251399756372E-128
   33.6656250000000         8.369726269040401E-128
   33.8793750000000         1.841026905928316E-127
   34.0931250000000         3.360046088636545E-127
   34.3068750000000         4.974927637436949E-127
   34.5206250000000         5.074118515469788E-127
   34.7343750000000        -3.403201545795226E-128
   34.9481250000000        -1.915772115311833E-126
   35.1618750000000        -6.409780583778310E-126
   35.3756250000000        -1.507362121734839E-125
   35.5893750000000        -2.878374770583926E-125
   35.8031250000000        -4.521192950511428E-125
   36.0168750000000        -5.374219795335010E-125
   36.2306250000000        -2.712718854043528E-125
   36.4443750000000         8.916262242454082E-125
   36.6581250000000         3.845947761969700E-124
   36.8718750000000         9.742402590379241E-124
   37.0856250000000         1.944334012495831E-123
   37.2993750000000         3.206735767170478E-123
   37.5131250000000         4.203203881133118E-123
   37.7268750000000         3.413918919153098E-123
   37.9406250000000        -2.292511372855303E-123
   38.1543750000000        -1.821036575245515E-122
   38.3681250000000        -5.155062149254122E-122
   38.5818750000000        -1.089741694682152E-121
   38.7956250000000        -1.895355990931962E-121
   39.0093750000000        -2.698731019106689E-121
   39.2231250000000        -2.788097591024898E-121
   39.4368750000000        -6.192210777717345E-122
   39.6506250000000         6.537733189264646E-121
   39.8643750000000         2.264988415134885E-120
   40.0781250000000         5.203549716250351E-120
   40.2918750000000         9.644203073390369E-120
   40.5056250000000         1.485396766575715E-119
   40.7193750000000         1.802281680229502E-119
   40.9331250000000         1.252937793021973E-119
   41.1468750000000        -1.403790982690561E-119
   41.3606250000000        -8.098199101934928E-119
   41.5743750000000        -2.121845722102294E-118
   41.7881250000000        -4.257928786808750E-118
   42.0018750000000        -7.090586413433004E-118
   42.2156250000000        -9.703814475869656E-118
   42.4293750000000        -9.636313856492714E-118
   42.6431250000000        -1.921339674518465E-118
   42.8568750000000         2.171336981323566E-117
   43.0706250000000         7.258657384179309E-117
   43.2843750000000         1.620293842251234E-116
   43.4981250000000         2.928733036922164E-116
   43.7118750000000         4.420352230851329E-116
   43.9256250000000         5.313108041122459E-116
   44.1393750000000         3.870801479831953E-116
   44.3531250000000        -3.010556280765305E-116
   44.5668750000000        -1.994558729718381E-115
   44.7806250000000        -5.236045037925326E-115
   44.9943750000000        -1.040054868373520E-114
   45.2081250000000        -1.713943636289767E-114
   45.4218750000000        -2.338808889274722E-114
   45.6356250000000        -2.389764975565236E-114
   45.8493750000000        -8.515876639574957E-115
   46.0631250000000         3.901193978548363E-114
   46.2768750000000         1.400391170838457E-113
   46.4906250000000         3.148770474807085E-113
   46.7043750000000         5.672932505404085E-113
   46.9181250000000         8.548930356048178E-113
   47.1318750000000         1.042420791648501E-112
   47.3456250000000         8.416062355997651E-113
   47.5593750000000        -2.442379292322076E-113
   47.7731250000000        -2.927150337128809E-112
   47.9868750000000        -8.012439267885523E-112
   48.2006250000000        -1.602515834442414E-111
   48.4143750000000        -2.643480207061416E-111
   48.6281250000000        -3.635279212190995E-111
   48.8418750000000        -3.871892037194292E-111
   49.0556250000000        -2.033730708697131E-111
   49.2693750000000         3.924260844701299E-111
   49.4831250000000         1.660411102785636E-110
   49.6968750000000         3.840160153367634E-110
   49.9106250000000         6.973323355459192E-110
   50.1243750000000         1.058415908405080E-109
   50.3381250000000         1.320224781118203E-109
   50.5518750000000         1.178325367021025E-109
   50.7656250000000         1.224250111325408E-110
   50.9793750000000        -2.560511002619276E-109
   51.1931250000000        -7.659847806457398E-109
   51.4068750000000        -1.569040602511613E-108
   51.6206250000000        -2.620374382324737E-108
   51.8343750000000        -3.668398530783072E-108
   52.0481250000000        -4.107969351559610E-108
   52.2618750000000        -2.829987743954382E-108
   52.4756250000000         1.852929907625426E-108
   52.6893750000000         1.205931113035614E-107
   52.9031250000000         2.975130056862729E-107
   53.1168750000000         5.543660861475750E-107
   53.3306250000000         8.591824524912620E-107
   53.5443750000000         1.110475315591528E-106
   53.7581250000000         1.099155433133111E-106
   53.9718750000000         4.778959662695728E-107
   54.1856250000000        -1.235941314217721E-106
   54.3993750000000        -4.581680670538694E-106
   54.6131250000000        -9.944480481981012E-106
   54.8268750000000        -1.715255539322247E-105
   55.0406250000000        -2.484657821813112E-105
   55.2543750000000        -2.965763165819027E-105
   55.4681250000000        -2.537407453510259E-105
   55.6818750000000        -2.508846611572622E-106
   55.8956250000000         5.101265543245537E-105
   56.1093750000000         1.469983375052934E-104
   56.3231250000000         2.907221967783507E-104
   56.5368750000000         4.701721077545795E-104
   56.7506250000000         6.406555084369698E-104
   56.9643750000000         7.066972771078348E-104
   57.1781250000000         5.068106947225672E-104
   57.3918750000000        -1.880043590050159E-104
   57.6056250000000        -1.644909178794325E-103
   57.8193750000000        -4.086454792956340E-103
   58.0331250000000        -7.530777898758589E-103
   58.2468750000000        -1.154006110636249E-102
   58.4606250000000        -1.488867972354206E-102
   58.6743750000000        -1.521326667407199E-102
   58.8881250000000        -8.786880003928039E-103
   59.1018750000000         9.335415095977038E-103
   59.3156250000000         4.444188497133768E-102
   59.5293750000000         1.001316588700747E-101
   59.7431250000000         1.747398950320255E-101
   59.9568750000000         2.561029934167638E-101
   60.1706250000000         3.151614898896784E-101
   60.3843750000000         2.999686101189166E-101
   60.5981250000000         1.332189044767215E-101
   60.8118750000000        -2.817322018715803E-101
   61.0256250000000        -1.039700623824969E-100
   61.2393750000000        -2.190101122746172E-100
   61.4531250000000        -3.665621051066243E-100
   61.6668750000000        -5.184042008059425E-100
   61.8806250000000        -6.136608925297149E-100
   62.0943750000000        -5.496321207803016E-100
   62.3081250000000        -1.806312641880405E-100
   62.5218750000000         6.662119923802154E-100
   62.7356250000000         2.146992630483509E-099
   62.9493750000000         4.317849803353308E-099
   63.1631250000000         7.006351974342880E-099
   63.3768750000000         9.643625030411516E-099
   63.5906250000000         1.108588077096165E-098
   63.8043750000000         9.487565594891121E-099
   64.0181250000000         2.330475945328611E-099
   64.2318750000000        -1.324460223222904E-098
   64.4456250000000        -3.963177597494879E-098
   64.6593750000000        -7.732570982587230E-098
   64.8731250000000        -1.228028349246508E-097
   65.0868750000000        -1.658776992802985E-097
   65.3006250000000        -1.870584997104174E-097
   65.5143750000000        -1.559401185886013E-097
   65.7281250000000        -3.228104896291109E-098
   65.9418750000000         2.280336542362880E-097
   66.1556250000000         6.597027140191270E-097
   66.3693750000000         1.265424082971130E-096
   66.5831250000000         1.983723882933744E-096
   66.7968750000000         2.650284776716670E-096
   67.0106250000000         2.961254453738802E-096
   67.2243750000000         2.454275542325353E-096
   67.4381250000000         5.311123480374526E-097
   67.6518750000000        -3.447476336215309E-096
   67.8656250000000        -9.962331754908771E-096
   68.0793750000000        -1.900849028706808E-095
   68.2931250000000        -2.964188787602321E-095
   68.5068750000000        -3.945045627410917E-095
   68.7206250000000        -4.407350557510454E-095
   68.9343750000000        -3.698846085514959E-095
   69.1481250000000        -9.885599058431091E-096
   69.3618750000000         4.597152449413663E-095
   69.5756250000000         1.369992592399505E-094
   69.7893750000000         2.628975689980039E-094
   70.0031250000000         4.106943035219605E-094
   70.2168750000000         5.479524326404176E-094
   70.4306250000000         6.167947006026206E-094
   70.6443750000000         5.315645536254314E-094
   70.8581250000000         1.841321181454264E-094
   71.0718750000000        -5.383235948733937E-094
   71.2856250000000        -1.718371020424869E-093
   71.4993750000000        -3.353426032941417E-093
   71.7131250000000        -5.282566650141978E-093
   71.9268750000000        -7.104421491330633E-093
   72.1406250000000        -8.106487555406695E-093
   72.3543750000000        -7.239569427539520E-093
   72.5681250000000        -3.184141570993980E-093
   72.7818750000000         5.436295148441998E-093
   72.9956250000000         1.964314330754661E-092
   73.2093750000000         3.946362020953012E-092
   73.4231250000000         6.308844992072829E-092
   73.6368750000000         8.593701823141542E-092
   73.8506250000000         9.986182214938964E-092
   74.0643750000000         9.286723154969142E-092
   74.2781250000000         4.985354124659530E-092
   74.4918750000000        -4.502418295285414E-092
   74.7056250000000        -2.038431675776504E-091
   74.9193750000000        -4.279713025807617E-091
   75.1331250000000        -6.989851304415708E-091
   75.3468750000000        -9.686499856684137E-091
   75.5606250000000        -1.150412006509736E-090
   75.7743750000000        -1.116292934244263E-090
   75.9881250000000        -7.044060540142138E-091
   76.2018750000000         2.569822594461122E-091
   76.4156250000000         1.903534610000421E-090
   76.6293750000000         4.264504327163619E-090
   76.8431250000000         7.171052215063566E-090
   77.0568750000000         1.015525245917683E-089
   77.2706250000000         1.236381513200250E-089
   77.4843750000000         1.252414420541871E-089
   77.6981250000000         9.012548234193380E-090
   77.9118750000000         8.046074185618207E-092
   78.1256250000000        -1.571196219397454E-089
   78.3393750000000        -3.883171455992945E-089
   78.5531250000000        -6.790749876821811E-089
   78.7668750000000        -9.877386920652399E-089
   78.9806250000000        -1.236434744137463E-088
   79.1943750000000        -1.307458928288264E-088
   79.4081250000000        -1.048770427759041E-088
   79.6218750000000        -2.935264169780586E-089
   79.8356250000000         1.102013377367483E-088
   80.0493750000000         3.200181217244700E-088
   80.2631250000000         5.905663701241307E-088
   80.4768750000000         8.880716796776466E-088
   80.6906250000000         1.147021212385703E-087
   80.9043750000000         1.266479342945536E-087
   81.1181250000000         1.113900460452633E-087
   81.3318750000000         5.405171053661955E-088
   81.5456250000000        -5.881175725922626E-088
   81.7593750000000        -2.344698931709359E-087
   81.9731250000000        -4.677682171819532E-087
   82.1868750000000        -7.340986906679055E-087
   82.4006250000000        -9.830126530427849E-087
   82.6143750000000        -1.134661263181788E-086
   82.8281250000000        -1.081904885674560E-086
   83.0418750000000        -7.012354022203676E-087
   83.2556250000000         1.247049041815259E-087
   83.4693750000000         1.471570162336756E-086
   83.6831250000000         3.325873974365142E-086
   83.8968750000000         5.530730188866487E-086
   84.1106250000000         7.734840133300578E-086
   84.3243750000000         9.360240167501799E-086
   84.5381250000000         9.609030667550201E-086
   84.7518750000000         7.531587200227633E-086
   84.9656250000000         2.176544918363186E-086
   85.1793750000000        -7.165961948273017E-086
   85.3931250000000        -2.063336596989731E-085
   85.6068750000000        -3.740332974168064E-085
   85.8206250000000        -5.531420322065976E-085
   86.0343750000000        -7.059333116314255E-085
   86.2481250000000        -7.782471613451185E-085
   86.4618750000000        -7.030419218700716E-085
   86.6756250000000        -4.091965420423711E-085
   86.8893750000000         1.635651347184302E-085
   87.1031250000000         1.043753770409621E-084
   87.3168750000000         2.202838983953566E-084
   87.5306250000000         3.529207336660509E-084
   87.7443750000000         4.807084014295971E-084
   87.9581250000000         5.708078830875063E-084
   88.1718750000000         5.804174130616619E-084
   88.3856250000000         4.610693123014421E-084
   88.5993750000000         1.665416943871373E-084
   88.8131250000000        -3.354934259897317E-084
   89.0268750000000        -1.048731476449230E-083
   89.2406250000000        -1.932050675109877E-083
   89.4543750000000        -2.884645638776275E-083
   89.6681250000000        -3.736299090322857E-083
   89.8818750000000        -4.247352732940568E-083
   90.0956250000000        -4.123078210831279E-083
   90.3093750000000        -3.046411087563975E-083
   90.5231250000000        -7.311909788378578E-084
   90.7368750000000         3.004915522365173E-083
   90.9506250000000         8.152615303549079E-083
   91.1643750000000         1.441776394947311E-082
   91.3781250000000         2.113691285193865E-082
   91.5918750000000         2.721996969160500E-082
   91.8056250000000         3.114112863555635E-082
   92.0193750000000         3.100009323095374E-082
   92.2331250000000         2.467413589671316E-082
   92.4468750000000         1.007756652179514E-082
   92.6606250000000        -1.446128732394020E-082
   92.8743750000000        -4.970460408103051E-082
   93.0881250000000        -9.490260240550641E-082
   93.3018750000000        -1.471132276861237E-081
   93.5156250000000        -2.004990176205572E-081
   93.7293750000000        -2.456945334394154E-081
   93.9431250000000        -2.693928248388599E-081
   94.1568750000000        -2.543731529193836E-081
   94.3706250000000        -1.802806206605645E-081
   94.5843750000000        -2.555674587494659E-082
   94.7981250000000         2.290219925570245E-081
   95.0118750000000         5.947624670944357E-081
   95.2256250000000         1.067164801037875E-080
   95.4393750000000         1.615856115109621E-080
   95.6531250000000         2.173179482606440E-080
   95.8668750000000         2.623309541736975E-080
   96.0806250000000         2.795111938441969E-080
   96.2943750000000         2.463457593843405E-080
   96.5081250000000         1.365019784341087E-080
   96.7218750000000        -7.647976632447792E-081
   96.9356250000000        -4.127932961098273E-080
   97.1493750000000        -8.769866902896410E-080
   97.3631250000000        -1.445905669017895E-079
   97.5768750000000        -2.055213673973937E-079
   97.7906250000000        -2.587012273727853E-079
   98.0043750000000        -2.862561846934303E-079
   98.2181250000000        -2.645522930291884E-079
   98.4318750000000        -1.662078292284029E-079
   98.6456250000000         3.558250229656921E-080
   98.8593750000000         3.599734437919549E-079
   99.0731250000000         8.086329596547087E-079
   99.2868750000000         1.353841915113706E-078
   99.5006250000000         1.926220154434395E-078
   99.7143750000000         2.404965913542771E-078
   99.9281250000000         2.614713523346036E-078
   100.141875000000         2.334050059607826E-078
   100.355625000000         1.320963139115833E-078
   100.569375000000        -6.404834166698172E-079
   100.783125000000        -3.670634822948794E-078
   100.996875000000        -7.705048286694094E-078
   101.210625000000        -1.239568676212641E-077
   101.424375000000        -1.702119605802543E-077
   101.638125000000        -2.043412949535998E-077
   101.851875000000        -2.108072036939758E-077
   102.065625000000        -1.713228399051142E-077
   102.279375000000        -6.763129395950779E-078
   102.493125000000         1.140555445427643E-077
   102.706875000000         3.770580097890504E-077
   102.920625000000         7.072129099068119E-077
   103.134375000000         1.065954843734333E-076
   103.348125000000         1.385238159497489E-076
   103.561875000000         1.566610530002377E-076
   103.775625000000         1.487077746365457E-076
   103.989375000000         1.014270324411458E-076
   104.203125000000         3.260472942321994E-078
   104.416875000000        -1.519567593913521E-076
   104.630625000000        -3.604497133976390E-076
   104.844375000000        -6.037463090269645E-076
   105.058125000000        -8.447312587175104E-076
   105.271875000000        -1.025913692697681E-075
   105.485625000000        -1.071564820644522E-075
   105.699375000000        -8.953773396737463E-076
   105.913125000000        -4.148926610875403E-076
   106.126875000000         4.269883537582137E-076
   106.340625000000         1.634614944251090E-075
   106.554375000000         3.129585383427882E-075
   106.768125000000         4.723816245146922E-075
   106.981875000000         6.103729642871122E-075
   107.195625000000         6.835334051695408E-075
   107.409375000000         6.400303041416433E-075
   107.623125000000         4.271252367930476E-075
   107.836875000000         2.953578671998915E-077
   108.050625000000        -6.479402463856741E-075
   108.264375000000        -1.496960169141355E-074
   108.478125000000        -2.454730073108195E-074
   108.691875000000        -3.359685261883783E-074
   108.905625000000        -3.977460634744319E-074
   109.119375000000        -4.016891042154699E-074
   109.333125000000        -3.167580596639999E-074
   109.546875000000        -1.161519451539014E-074
   109.760625000000         2.143127594454222E-074
   109.974375000000         6.664109127217877E-074
   110.188125000000         1.199857203658055E-073
   110.401875000000         1.735113726742021E-073
   110.615625000000         2.151592566473562E-073
   110.829375000000         2.294431938450476E-073
   111.043125000000         1.992644497871887E-073
   111.256875000000         1.090205839511864E-073
   111.470625000000        -5.105728354881393E-074
   111.684375000000        -2.797241671314065E-073
   111.898125000000        -5.594743981265805E-073
   112.111875000000        -8.524113384369963E-073
   112.325625000000        -1.098750719591019E-072
   112.539375000000        -1.219621404595787E-072
   112.753125000000        -1.125658451757155E-072
   112.966875000000        -7.322807965466283E-073
   113.180625000000         1.856509262315200E-074
   113.394375000000         1.132025867088033E-072
   113.608125000000         2.533139535163837E-072
   113.821875000000         4.044698248405285E-072
   114.035625000000         5.377786350082975E-072
   114.249375000000         6.143402516968502E-072
   114.463125000000         5.892805639570327E-072
   114.676875000000         4.191298500670645E-072
   114.890625000000         7.247090529879311E-073
   115.104375000000        -4.570115841704311E-072
   115.318125000000        -1.136928547569909E-071
   115.531875000000        -1.884905391285370E-071
   115.745625000000        -2.563353230696759E-071
   115.959375000000        -2.984428342013091E-071
   116.173125000000        -2.928955912716620E-071
   116.386875000000        -2.181684067171129E-071
   116.600625000000        -5.825950180987655E-072
   116.814375000000         1.909846408353346E-071
   117.028125000000         5.152367781033194E-071
   117.241875000000         8.761313155328081E-071
   117.455625000000         1.208578558148005E-070
   117.669375000000         1.422944725901558E-070
   117.883125000000         1.413921805632566E-070
   118.096875000000         1.077238973444374E-070
   118.310625000000         3.341086629578981E-071
   118.524375000000        -8.385326614843387E-071
   118.738125000000        -2.376186010315802E-070
   118.951875000000        -4.099912370056299E-070
   119.165625000000        -5.702947002219019E-070
   119.379375000000        -6.760281005224957E-070
   119.593125000000        -6.769901077240736E-070
   119.806875000000        -5.231230273143248E-070
   120.020625000000        -1.760410916316235E-070
   120.234375000000         3.766525918213535E-070
   120.448125000000         1.106214944279530E-069
   120.661875000000         1.929841854652303E-069
   120.875625000000         2.703972381574637E-069
   121.089375000000         3.228270529000826E-069
   121.303125000000         3.264395387747167E-069
   121.516875000000         2.572236618810911E-069
   121.730625000000         9.635842879526787E-070
   121.944375000000        -1.630757394065066E-069
   122.158125000000        -5.089297843909065E-069
   122.371875000000        -9.037672926312512E-069
   122.585625000000        -1.281436737572743E-068
   122.799375000000        -1.548503330509867E-068
   123.013125000000        -1.592475435968186E-068
   123.226875000000        -1.298132079286202E-068
   123.440625000000        -5.720493135199519E-069
   123.654375000000         6.263608286693081E-069
   123.868125000000         2.251208903336487E-068