  -1.60312500000000         0.000000000000000E+000
  -1.38937500000000         0.000000000000000E+000
  -1.17562500000000         0.000000000000000E+000
 -0.961875000000000         0.000000000000000E+000
 -0.748125000000000         0.000000000000000E+000
 -0.534375000000000         0.000000000000000E+000
 -0.320625000000000         0.000000000000000E+000
 -0.106875000000000         0.000000000000000E+000
  0.106875000000000         0.000000000000000E+000
  0.320625000000000         0.000000000000000E+000
  0.534375000000000         0.000000000000000E+000
  0.748125000000000         0.000000000000000E+000
  0.961875000000000         0.000000000000000E+000
   1.17562500000000         0.000000000000000E+000
   1.38937500000000         0.000000000000000E+000
   1.60312500000000         0.000000000000000E+000
   1.81687500000000         0.000000000000000E+000
   2.03062500000000         0.000000000000000E+000
   2.24437500000000         0.000000000000000E+000
   2.45812500000000         0.000000000000000E+000
   2.67187500000000         0.000000000000000E+000
   2.88562500000000         0.000000000000000E+000
   3.09937500000000         0.000000000000000E+000
   3.31312500000000         0.000000000000000E+000
   3.52687500000000         0.000000000000000E+000
   3.74062500000000         0.000000000000000E+000
   3.95437500000000         0.000000000000000E+000
   4.16812500000000         0.000000000000000E+000
   4.38187500000000         0.000000000000000E+000
   4.59562500000000         0.000000000000000E+000
   4.80937500000000         0.000000000000000E+000
   5.02312500000000         0.000000000000000E+000
   5.23687500000000         0.000000000000000E+000
   5.45062500000000         0.000000000000000E+000
   5.66437500000000         0.000000000000000E+000
   5.87812500000000         0.000000000000000E+000
   6.09187500000000         0.000000000000000E+000
   6.30562500000000         0.000000000000000E+000
   6.51937500000000         0.000000000000000E+000
   6.73312500000000         0.000000000000000E+000
   6.94687500000000         0.000000000000000E+000
   7.16062500000000         0.000000000000000E+000
   7.37437500000000         0.000000000000000E+000
   7.58812500000000         0.000000000000000E+000
   7.80187500000000         0.000000000000000E+000
   8.01562500000000         0.000000000000000E+000
   8.22937500000000         0.000000000000000E+000
   8.44312500000000         0.000000000000000E+000
   8.65687500000000         0.000000000000000E+000
   8.87062500000000         0.000000000000000E+000
   9.08437500000000         0.000000000000000E+000
   9.29812500000000         0.000000000000000E+000
   9.51187500000000         0.000000000000000E+000
   9.72562500000000         0.000000000000000E+000
   9.93937500000000         0.000000000000000E+000
   10.1531250000000         5.165662137251401E-198
   10.3668750000000        -7.469913552791984E-192
   10.5806250000000        -1.240602603639443E-188
   10.7943750000000         3.335167454913338E-186
   11.0081250000000        -3.818768575458964E-185
   11.2218750000000        -4.194455033144439E-182
   11.4356250000000        -3.077860401687012E-180
   11.6493750000000        -1.198266072772732E-178
   11.8631250000000        -3.135450245301328E-177
   12.0768750000000        -6.065113512191229E-176
   12.2906250000000        -9.078071205042198E-175
   12.5043750000000        -1.067296917012224E-173
   12.7181250000000        -9.638486248964272E-173
   12.9318750000000        -5.894162750276033E-172
   13.1456250000000        -6.131909308995873E-172
   13.3593750000000         4.439722279452115E-170
   13.5731250000000         7.825229675185222E-169
   13.7868750000000         8.995596060982514E-168
   14.0006250000000         8.281752426968960E-167
   14.2143750000000         6.487101709137052E-166
   14.4281250000000         4.427399770786023E-165
   14.6418750000000         2.650636211076389E-164
   14.8556250000000         1.381157100822236E-163
   15.0693750000000         6.065904218778064E-163
   15.2831250000000         2.024069646770853E-162
   15.4968750000000         2.738867850044011E-162
   15.7106250000000        -2.865820934928509E-161
   15.9243750000000        -3.433547688704388E-160
   16.1381250000000        -2.478813180279849E-159
   16.3518750000000        -1.442046846946706E-158
   16.5656250000000        -7.250195909948659E-158
   16.7793750000000        -3.222074302959433E-157
   16.9931250000000        -1.266429007572092E-156
   17.2068750000000        -4.306616131374560E-156
   17.4206250000000        -1.177827880141639E-155
   17.6343750000000        -1.868732667611085E-155
   17.8481250000000         4.825456816371548E-155
   18.0618750000000         6.480762710212536E-154
   18.2756250000000         4.011037834295503E-153
   18.4893750000000         1.946544296634082E-152
   18.7031250000000         8.177030561364114E-152
   18.9168750000000         3.074812249913232E-151
   19.1306250000000         1.046337202027372E-150
   19.3443750000000         3.212419572832013E-150
   19.5581250000000         8.722164307547186E-150
   19.7718750000000         1.975838184924755E-149
   19.9856250000000         3.002368183571494E-149
   20.1993750000000        -1.971302657682545E-149
   20.4131250000000        -4.183475216443697E-148
   20.6268750000000        -2.295639659415397E-147
   20.8406250000000        -9.531060827494752E-147
   21.0543750000000        -3.422335623153668E-146
   21.2681250000000        -1.111524199812727E-145
   21.4818750000000        -3.330229156271161E-145
   21.6956250000000        -9.289460225680942E-145
   21.9093750000000        -2.420802345853829E-144
   22.1231250000000        -5.888095989444564E-144
   22.3368750000000        -1.329153200226630E-143
   22.5506250000000        -2.748880132949896E-143
   22.7643750000000        -5.066312806157251E-143
   22.9781250000000        -7.768700621685240E-143
   23.1918750000000        -7.637911121877932E-143
   23.4056250000000         6.150743965035495E-143
   23.6193750000000         6.265081399740032E-142
   23.8331250000000         2.294491916213662E-141
   24.0468750000000         6.465821221778681E-141
   24.2606250000000         1.574628932773005E-140
   24.4743750000000         3.449498063466017E-140
   24.6881250000000         6.930650124192135E-140
   24.9018750000000         1.296233085448291E-139
   25.1156250000000         2.304912096894382E-139
   25.3293750000000         4.053261949789392E-139
   25.5431250000000         7.510140912288882E-139
   25.7568750000000         1.556064212582275E-138
   25.9706250000000         3.603500158379890E-138
   26.1843750000000         8.762008259006795E-138
   26.3981250000000         2.086283943312861E-137
   26.6118750000000         4.628778223895530E-137
   26.8256250000000         9.196598465538188E-137
   27.0393750000000         1.543050012740095E-136
   27.2531250000000         1.840392483395725E-136
   27.4668750000000        -2.860743959172604E-138
   27.6806250000000        -9.187709133912174E-136
   27.8943750000000        -3.770887572665044E-135
   28.1081250000000        -1.105527233874807E-134
   28.3218750000000        -2.731972099835943E-134
   28.5356250000000        -5.969034898628857E-134
   28.7493750000000        -1.169567647132033E-133
   28.9631250000000        -2.044537275659382E-133
   29.1768750000000        -3.093537526135325E-133
   29.3906250000000        -3.671900296091546E-133
   29.6043750000000        -1.959751364276895E-133
   29.8181250000000         6.190230982035801E-133
   30.0318750000000         2.904811982225270E-132
   30.2456250000000         8.144086023451825E-132
   30.4593750000000         1.873769916732718E-131
   30.6731250000000         3.813659903639528E-131
   30.8868750000000         7.046169858346437E-131
   31.1006250000000         1.187282304439730E-130
   31.3143750000000         1.797323103796851E-130
   31.5281250000000         2.315374971204351E-130
   31.7418750000000         2.056277244302736E-130
   31.9556250000000        -7.025892314737757E-131
   32.1693750000000        -9.794599514315292E-130
   32.3831250000000        -3.295403123427627E-129
   32.5968750000000        -8.428112056103401E-129
   32.8106250000000        -1.863621913639253E-128
   33.0243750000000        -3.684731523444661E-128
   33.2381250000000        -6.518820945662684E-128
   33.4518750000000        -1.003663107133109E-127
   33.6656250000000        -1.226729237547437E-127
   33.8793750000000        -7.410818350278167E-128
   34.0931250000000         1.783402631668355E-127
   34.3068750000000         8.919116641203016E-127
   34.5206250000000         2.487805237440725E-126
   34.7343750000000         5.515044243675025E-126
   34.9481250000000         1.039007105874573E-125
   35.1618750000000         1.664017691620147E-125
   35.3756250000000         2.124360250125111E-125
   35.5893750000000         1.562235436388186E-125
   35.8031250000000        -1.883130679563769E-125
   36.0168750000000        -1.156273340110300E-124
   36.2306250000000        -3.245589189496924E-124
   36.4443750000000        -7.003313577005134E-124
   36.6581250000000        -1.260782902055140E-123
   36.8718750000000        -1.886957035124422E-123
   37.0856250000000        -2.131289420398742E-123
   37.2993750000000        -9.125883452808456E-124
   37.5131250000000         3.864876570848337E-123
   37.7268750000000         1.558159789596722E-122
   37.9406250000000         3.858004629045281E-122
   38.1543750000000         7.628272806051297E-122
   38.3681250000000         1.261508467955384E-121
   38.5818750000000         1.693441889179883E-121
   38.7956250000000         1.531577487184992E-121
   39.0093750000000        -3.338092899245124E-122
   39.2231250000000        -5.837256289343687E-121
   39.4368750000000        -1.776776402905623E-120
   39.6506250000000        -3.913190837732156E-120
   39.8643750000000        -7.104830847680247E-120
   40.0781250000000        -1.079997748933588E-119
   40.2918750000000        -1.291312531327836E-119
   40.5056250000000        -8.493912148227078E-120
   40.7193750000000         1.188494809338044E-119
   40.9331250000000         6.326861913345063E-119
   41.1468750000000         1.651707240580031E-118
   41.3606250000000         3.346560500373822E-118
   41.5743750000000         5.681115285373062E-118
   41.7881250000000         8.045231604779718E-118
   42.0018750000000         8.639127876558458E-118
   42.2156250000000         3.618105200156682E-118
   42.4293750000000        -1.379549275601015E-117
   42.6431250000000        -5.362233010730057E-117
   42.8568750000000        -1.275675356678390E-116
   43.0706250000000        -2.433553832488945E-116
   43.2843750000000        -3.917227440618836E-116
   43.4981250000000        -5.224318957592323E-116
   43.7118750000000        -5.071814503382179E-116
   43.9256250000000        -9.300113735576976E-117
   44.1393750000000         1.137196683886048E-115
   44.3531250000000         3.756326975395313E-115
   44.5668750000000         8.360089696775332E-115
   44.7806250000000         1.518736145375820E-114
   44.9943750000000         2.333596932109493E-114
   45.2081250000000         2.942741440496798E-114
   45.4218750000000         2.570534597542453E-114
   45.6356250000000        -2.087754513307460E-115
   45.8493750000000        -7.599013359736880E-114
   46.0631250000000        -2.240010093867711E-113
   46.2768750000000        -4.712771882310008E-113
   46.4906250000000        -8.187617806048032E-113
   46.7043750000000        -1.202888332633673E-112
   46.9181250000000        -1.432133449941630E-112
   47.1318750000000        -1.104425363734161E-112
   47.3456250000000         4.719587081147723E-113
   47.5593750000000         4.298038977384011E-112
   47.7731250000000         1.153863644242235E-111
   47.9868750000000         2.304597345130644E-111
   48.2006250000000         3.833780636147499E-111
   48.4143750000000         5.382522224371039E-111
   48.6281250000000         6.023546680370894E-111
   48.8418750000000         3.958432029423479E-111
   49.0556250000000        -3.714284008313078E-111
   49.2693750000000        -2.091427507638783E-110
   49.4831250000000        -5.175771606192468E-110
   49.6968750000000        -9.839866280560085E-110
   49.9106250000000        -1.568459220300977E-109
   50.1243750000000        -2.102562905800734E-109
   50.3381250000000        -2.199539258866233E-109
   50.5518750000000        -1.160972258858442E-109
   50.7656250000000         2.071493350412249E-109
   50.9793750000000         8.827820516297099E-109
   51.1931250000000         2.034180683637577E-108
   51.4068750000000         3.691885491282388E-108
   51.6206250000000         5.645715628161404E-108
   51.8343750000000         7.224800529038288E-108
   52.0481250000000         7.027669329094881E-108
   52.2618750000000         2.682045839910612E-108
   52.4756250000000        -9.194418862023838E-108
   52.6893750000000        -3.253966175281884E-107
   52.9031250000000        -7.048010812358005E-107
   53.1168750000000        -1.225628729353077E-106
   53.3306250000000        -1.801976739633657E-106
   53.5443750000000        -2.203510430983651E-106
   53.7581250000000        -1.985060484257467E-106
   53.9718750000000        -4.359645399731881E-107
   54.1856250000000         3.399055189991998E-106
   54.3993750000000         1.054609112715287E-105
   54.6131250000000         2.166837050327688E-105
   54.8268750000000         3.626219742352963E-105
   55.0406250000000         5.141971780025832E-105
   55.2543750000000         6.023423691914767E-105
   55.4681250000000         5.019610082795471E-105
   55.6818750000000         2.362305100667030E-106
   55.8956250000000        -1.073345817362954E-104
   56.1093750000000        -3.026491516595162E-104
   56.3231250000000        -5.950573892269450E-104
   56.5368750000000        -9.631158610329506E-104
   56.7506250000000        -1.322586864704979E-103
   56.9643750000000        -1.490512949528214E-103
   57.1781250000000        -1.153082155956322E-103
   57.3918750000000         1.430287043215119E-104
   57.6056250000000         2.944016571386122E-103
   57.8193750000000         7.743802722141986E-103
   58.0331250000000         1.469259865342659E-102
   58.2468750000000         2.312364072521048E-102
   58.4606250000000         3.090505771285393E-102
   58.6743750000000         3.371155797851353E-102
   58.8881250000000         2.445474359910230E-102
   59.1018750000000        -6.690357032554405E-103
   59.3156250000000        -7.099962561595742E-102
   59.5293750000000        -1.778112430650525E-101
   59.7431250000000        -3.281829437906237E-101
   59.9568750000000        -5.051036936048285E-101
   60.1706250000000        -6.607381452002400E-101
   60.3843750000000        -7.030015900529701E-101
   60.5981250000000        -4.865607848098389E-101
   60.8118750000000         1.830233608008060E-101
   61.0256250000000         1.519525074420432E-100
   61.2393750000000         3.685698763312151E-100
   61.4531250000000         6.668637814392457E-100
   61.6668750000000         1.009551514189544E-099
   61.8806250000000         1.300379725139374E-099
   62.0943750000000         1.361390500701708E-099
   62.3081250000000         9.201539918298272E-100
   62.5218750000000        -3.773012686211472E-100
   62.7356250000000        -2.906395045970359E-099
   62.9493750000000        -6.932444617767975E-099
   63.1631250000000        -1.238754568740859E-098
   63.3768750000000        -1.855237172231425E-098
   63.5906250000000        -2.367419523227623E-098
   63.8043750000000        -2.460974997397477E-098
   64.0181250000000        -1.666090297985039E-098
   64.2318750000000         6.137198224521839E-099
   64.4456250000000         4.993589817402254E-098
   64.6593750000000         1.188360009162104E-097
   64.8731250000000         2.112224220647646E-097
   65.0868750000000         3.146894684191182E-097
   65.3006250000000         4.001417896831179E-097
   65.5143750000000         4.165449005155169E-097
   65.7281250000000         2.889786348385208E-097
   65.9418750000000        -7.605717444020326E-098
   66.1556250000000        -7.731066787303821E-097
   66.3693750000000        -1.862895685176326E-096
   66.5831250000000        -3.316743809679206E-096
   66.7968750000000        -4.941428045597264E-096
   67.0106250000000        -6.294105716540112E-096
   67.2243750000000        -6.609630381136679E-096
   67.4381250000000        -4.778862996462906E-096
   67.6518750000000         5.663597552372048E-097
   67.8656250000000         1.079364522719807E-095
   68.0793750000000         2.676923331203497E-095
   68.2931250000000         4.807620005343061E-095
   68.5068750000000         7.197765457706583E-095
   68.7206250000000         9.226671920800372E-095
   68.9343750000000         9.831412919720198E-095
   69.1481250000000         7.483340031003491E-095
   69.3618750000000         3.093531636579383E-096
   69.5756250000000        -1.355538303821710E-094
   69.7893750000000        -3.530148286916953E-094
   70.0031250000000        -6.442241116951402E-094
   70.2168750000000        -9.737762631384216E-094
   70.4306250000000        -1.261322500823975E-093
   70.6443750000000        -1.369727850265414E-093
   70.8581250000000        -1.102495701389157E-093
   71.0718750000000        -2.193914144276647E-094
   71.2856250000000         1.519374815856488E-093
   71.4993750000000         4.270948770161359E-093
   71.7131250000000         7.985055613470853E-093
   71.9268750000000         1.224266531218526E-092
   72.1406250000000         1.608155704787408E-092
   72.3543750000000         1.785636235449984E-092
   72.5681250000000         1.520891089106012E-092
   72.7818750000000         5.251016779808143E-093
   72.9956250000000        -1.492412893068820E-092
   73.2093750000000        -4.729875357860628E-092
   73.4231250000000        -9.150990017078363E-092
   73.6368750000000        -1.430253175175823E-091
   73.8506250000000        -1.911817460113523E-091
   74.0643750000000        -2.176115317157484E-091
   74.2781250000000        -1.958812874896935E-091
   74.4918750000000        -9.343542005795790E-092
   74.7056250000000         1.229317114953842E-091
   74.9193750000000         4.770092074309207E-091
   75.1331250000000         9.680653946320102E-091
   75.3468750000000         1.551513681148373E-090
   75.5606250000000         2.118126025488369E-090
   75.7743750000000         2.477192744550415E-090
   75.9881250000000         2.351975763781086E-090
   76.2018750000000         1.398404574217057E-090
   76.4156250000000        -7.408546628330310E-091
   76.6293750000000        -4.336508132619312E-090
   76.8431250000000        -9.422652658039756E-090
   77.0568750000000        -1.560457934133664E-089
   77.2706250000000        -2.185107155608302E-089
   77.4843750000000        -2.632263880388588E-089
   77.6981250000000        -2.631459702933931E-089
   77.9118750000000        -1.841780915460333E-089
   78.1256250000000         9.895690879130576E-091
   78.3393750000000         3.482171112536339E-089
   78.5531250000000         8.389473888129428E-089
   78.7668750000000         1.451342068936229E-088
   78.9806250000000         2.096161355262275E-088
   79.1943750000000         2.608959527372064E-088
   79.4081250000000         2.743211423898100E-088
   79.6218750000000         2.182331630304334E-088
   79.8356250000000         5.805912800047802E-089
   80.0493750000000        -2.358337533900353E-088
   80.2631250000000        -6.761155610259848E-088
   80.4768750000000        -1.242806009141793E-087
   80.6906250000000        -1.865818207909416E-087
   80.9043750000000        -2.409444231344254E-087
   81.1181250000000        -2.664500998951716E-087
   81.3318750000000        -2.355624095945623E-087
   81.5456250000000        -1.172071502899150E-087
   81.7593750000000         1.170463679866193E-087
   81.9731250000000         4.833050599474587E-087
   82.1868750000000         9.724710367791373E-087
   82.4006250000000         1.535534985835271E-086
   82.6143750000000         2.069832464056872E-086
   82.8281250000000         2.410637096366912E-086
   83.0418750000000         2.333905780551453E-086
   83.2556250000000         1.576807152974178E-086
   83.4693750000000        -1.177641919433814E-087
   83.6831250000000        -2.928841183734497E-086
   83.8968750000000        -6.858245382233755E-086
   84.1106250000000        -1.161342941630309E-085
   84.3243750000000        -1.649142572638942E-085
   84.5381250000000        -2.029494188434977E-085
   84.7518750000000        -2.132301236060622E-085
   84.9656250000000        -1.748617187321330E-085
   85.1793750000000        -6.595559680281370E-086
   85.3931250000000         1.313815845876162E-085
   85.6068750000000         4.239118015347231E-085
   85.8206250000000         7.984477357957695E-085
   86.0343750000000         1.212530455122242E-084
   86.2481250000000         1.586633795446505E-084
   86.4618750000000         1.800794941824025E-084
   86.6756250000000         1.699248362379720E-084
   86.8893750000000         1.106846388387071E-084
   87.1031250000000        -1.395478042178784E-085
   87.3168750000000        -2.143243893668972E-084
   87.5306250000000        -4.885162183264477E-084
   87.7443750000000        -8.152797544224243E-084
   87.9581250000000        -1.147280918882870E-083
   88.1718750000000        -1.406573434644274E-083
   88.3856250000000        -1.484711074550739E-083
   88.5993750000000        -1.250274097594942E-083
   88.8131250000000        -5.664756770403538E-084
   89.0268750000000         6.792857704658379E-084
   89.2406250000000         2.533773639794152E-083
   89.4543750000000         4.926762774331470E-083
   89.6681250000000         7.616772471850882E-083
   89.8818750000000         1.014458396525398E-082
   90.0956250000000         1.181009842321910E-082
   90.3093750000000         1.169188826563579E-082
   90.5231250000000         8.730357567226276E-083
   90.7368750000000         1.893086971056847E-083
   90.9506250000000        -9.567062608151156E-083
   91.1643750000000        -2.576567493912002E-082
   91.3781250000000        -4.577999454546277E-082
   91.5918750000000        -6.723968179918219E-082
   91.8056250000000        -8.600823095652322E-082
   92.0193750000000        -9.608270706545394E-082
   92.2331250000000        -8.986523476796614E-082
   92.4468750000000        -5.896560363597382E-082
   92.6606250000000         4.332721947595008E-083
   92.8743750000000         1.048844583683582E-081
   93.0881250000000         2.418444269585953E-081
   93.3018750000000         4.054443338592324E-081
   93.5156250000000         5.738961284978215E-081
   93.7293750000000         7.112107871433602E-081
   93.9431250000000         7.669830437488107E-081
   94.1568750000000         6.793692745231776E-081
   94.3706250000000         3.824856041131864E-081
   94.5843750000000        -1.808300009267774E-081
   94.7981250000000        -1.040619321616316E-080
   95.0118750000000        -2.176634779187080E-080
   95.2256250000000        -3.492887150501655E-080
   95.4393750000000        -4.794418953864447E-080
   95.6531250000000        -5.773004536561241E-080
   95.8668750000000        -6.010434373659265E-080
   96.0806250000000        -5.009164508715767E-080
   96.2943750000000        -2.259638536617361E-080
   96.5081250000000         2.649333222995492E-080
   96.7218750000000         9.876918845653231E-080
   96.9356250000000         1.914303947565130E-079
   97.1493750000000         2.953090415716997E-079
   97.3631250000000         3.931900383264652E-079
   97.5768750000000         4.589919373196183E-079
   97.7906250000000         4.585135603120930E-079
   98.0043750000000         3.525083317862944E-079
   98.2181250000000         1.027611001841177E-079
   98.4318750000000        -3.184551462941034E-079
   98.6456250000000        -9.157292738675664E-079
   98.8593750000000        -1.655713326166311E-078
   99.0731250000000        -2.452346148686517E-078
   99.2868750000000        -3.155560375263556E-078
   99.5006250000000        -3.548181358384326E-078
   99.7143750000000        -3.356611367752729E-078
   99.9281250000000        -2.280987881296898E-078
   100.141875000000        -4.931609474790196E-080
   100.355625000000         3.502883532249351E-078
   100.569375000000         8.330958128977501E-078
   100.783125000000         1.406835693092503E-077
   100.996875000000         1.992258147526443E-077
   101.210625000000         2.460942722997022E-077
   101.424375000000         2.636355875644335E-077
   101.638125000000         2.306792207630174E-077
   101.851875000000         1.254150957176157E-077
   102.065625000000        -6.989154980625675E-078
   102.279375000000        -3.623798593793298E-077
   102.493125000000        -7.407456638663866E-077
   102.706875000000        -1.167139938199638E-076
   102.920625000000        -1.570576929822354E-076
   103.134375000000        -1.844290170388434E-076
   103.348125000000        -1.849963009218897E-076
   103.561875000000        -1.431835667083218E-076
   103.775625000000        -4.430926630776574E-077
   103.989375000000         1.214587686907444E-076
   104.203125000000         3.540059860476182E-076
   104.416875000000         6.375778991286427E-076
   104.630625000000         9.354956085307016E-076
   104.844375000000         1.186767364000413E-075
   105.058125000000         1.306488706185823E-075
   105.271875000000         1.192109041867521E-075
   105.485625000000         7.374363958910880E-076
   105.699375000000        -1.445209445269990E-076
   105.913125000000        -1.490256075871102E-075
   106.126875000000        -3.248620858980480E-075
   106.340625000000        -5.243329092157621E-075
   106.554375000000        -7.143792407670161E-075
   106.768125000000        -8.455902950517181E-075
   106.981875000000        -8.546176473426876E-075
   107.195625000000        -6.712271535812879E-075
   107.409375000000        -2.309163555586590E-075
   107.623125000000         5.067798953160695E-075
   107.836875000000         1.535457362410061E-074
   108.050625000000         2.777368376882929E-074
   108.264375000000         4.062181345779581E-074
   108.478125000000         5.115779747541231E-074
   108.691875000000         5.567279838377595E-074
   108.905625000000         4.982626219568538E-074
   109.119375000000         2.931411953486525E-074
   109.333125000000        -9.106622135012092E-075
   109.546875000000        -6.628391599469635E-074
   109.760625000000        -1.391730890599381E-073
   109.974375000000        -2.194390699304029E-073
   110.188125000000        -2.925407473552785E-073
   110.401875000000        -3.377721781123997E-073
   110.615625000000        -3.297650830817067E-073
   110.829375000000        -2.418834562159214E-073
   111.043125000000        -5.172642359146312E-074
   111.256875000000         2.514245204163702E-073
   111.470625000000         6.579209189314354E-073
   111.684375000000         1.129196625406439E-072
   111.898125000000         1.591414473098472E-072
   112.111875000000         1.933945816740740E-072
   112.325625000000         2.015572269196898E-072
   112.539375000000         1.681008867364680E-072
   112.753125000000         7.892988106105655E-073
   112.966875000000        -7.463260507178735E-073
   113.180625000000        -2.910398720122689E-072
   113.394375000000        -5.535857463062623E-072
   113.608125000000        -8.264089114522237E-072
   113.821875000000        -1.052841629929007E-071
   114.035625000000        -1.157683788614204E-071
   114.249375000000        -1.054884014467595E-071
   114.463125000000        -6.616173795902977E-072
   114.676875000000         8.122077044982764E-073
   114.890625000000         1.183549491085851E-071
   115.104375000000         2.578978457896144E-071
   115.318125000000         4.101382974995994E-071
   115.531875000000         5.472372009003842E-071
   115.745625000000         6.307947745295490E-071
   115.959375000000         6.152409632124247E-071
   116.173125000000         4.545349209817393E-071
   116.386875000000         1.122952203552768E-071
   116.600625000000        -4.252361936418716E-071
   116.814375000000        -1.134928924435757E-070
   117.028125000000        -1.943776145550798E-070
   117.241875000000        -2.720733394473341E-070
   117.455625000000        -3.277574663196358E-070
   117.669375000000        -3.382961446795263E-070
   117.883125000000        -2.792982062285501E-070
   118.096875000000        -1.299294938677517E-070
   118.310625000000         1.207388762985687E-070
   118.524375000000         4.665265371535643E-070
   118.738125000000         8.772779069015174E-070
   118.951875000000         1.294021927502074E-069
   119.165625000000         1.628196826707702E-069
   119.379375000000         1.767042796773614E-069
   119.593125000000         1.586891290381970E-069
   119.806875000000         9.751456838679146E-070
   120.020625000000        -1.397997735204771E-070
   120.234375000000        -1.753560211252581E-069
   120.448125000000        -3.750990559144266E-069
   120.661875000000        -5.879378878586194E-069
   120.875625000000        -7.739176200544152E-069
   121.089375000000        -8.802423314838782E-069
   121.303125000000        -8.467663065228808E-069
   121.516875000000        -6.156200884082746E-069
   121.730625000000        -1.447791753649296E-069
   121.944375000000         5.755627448102042E-069
   122.158125000000         1.506082218337412E-068
   122.371875000000         2.544288984071824E-068
   122.585625000000         3.517700437316898E-068
   122.799375000000         4.188965294089920E-068
   123.013125000000         4.277230126311131E-068
   123.226875000000         3.498472462524696E-068
   123.440625000000         1.624666076306287E-068
   123.654375000000        -1.442457449346213E-068
   123.868125000000        -5.592299008000455E-068