  -1.60312500000000         0.000000000000000E+000
  -1.38937500000000         0.000000000000000E+000
  -1.17562500000000         0.000000000000000E+000
 -0.961875000000000         0.000000000000000E+000
 -0.748125000000000         0.000000000000000E+000
 -0.534375000000000         0.000000000000000E+000
 -0.320625000000000         0.000000000000000E+000
 -0.106875000000000         0.000000000000000E+000
  0.106875000000000         0.000000000000000E+000
  0.320625000000000         0.000000000000000E+000
  0.534375000000000         0.000000000000000E+000
  0.748125000000000         0.000000000000000E+000
  0.961875000000000         0.000000000000000E+000
   1.17562500000000         0.000000000000000E+000
   1.38937500000000         0.000000000000000E+000
   1.60312500000000         0.000000000000000E+000
   1.81687500000000         0.000000000000000E+000
   2.03062500000000         0.000000000000000E+000
   2.24437500000000         0.000000000000000E+000
   2.45812500000000         0.000000000000000E+000
   2.67187500000000         0.000000000000000E+000
   2.88562500000000         0.000000000000000E+000
   3.09937500000000         0.000000000000000E+000
   3.31312500000000         0.000000000000000E+000
   3.52687500000000         0.000000000000000E+000
   3.74062500000000         0.000000000000000E+000
   3.95437500000000         0.000000000000000E+000
   4.16812500000000         0.000000000000000E+000
   4.38187500000000         0.000000000000000E+000
   4.59562500000000         0.000000000000000E+000
   4.80937500000000         0.000000000000000E+000
   5.02312500000000         0.000000000000000E+000
   5.23687500000000         0.000000000000000E+000
   5.45062500000000         0.000000000000000E+000
   5.66437500000000         0.000000000000000E+000
   5.87812500000000         0.000000000000000E+000
   6.09187500000000         0.000000000000000E+000
   6.30562500000000         0.000000000000000E+000
   6.51937500000000         0.000000000000000E+000
   6.73312500000000         0.000000000000000E+000
   6.94687500000000         0.000000000000000E+000
   7.16062500000000         0.000000000000000E+000
   7.37437500000000         0.000000000000000E+000
   7.58812500000000         0.000000000000000E+000
   7.80187500000000         0.000000000000000E+000
   8.01562500000000         0.000000000000000E+000
   8.22937500000000         0.000000000000000E+000
   8.44312500000000         0.000000000000000E+000
   8.65687500000000         0.000000000000000E+000
   8.87062500000000         0.000000000000000E+000
   9.08437500000000         0.000000000000000E+000
   9.29812500000000         0.000000000000000E+000
   9.51187500000000         0.000000000000000E+000
   9.72562500000000         0.000000000000000E+000
   9.93937500000000         0.000000000000000E+000
   10.1531250000000         9.660037205767776E-200
   10.3668750000000         3.531318908033448E-192
   10.5806250000000         5.885465248502634E-189
   10.7943750000000        -1.589254952653655E-186
   11.0081250000000         2.127044706315199E-186
   11.2218750000000         1.756504196043992E-182
   11.4356250000000         1.307146426928488E-180
   11.6493750000000         5.055246118964195E-179
   11.8631250000000         1.300785897450619E-177
   12.0768750000000         2.447111989441153E-176
   12.2906250000000         3.500449783765754E-175
   12.5043750000000         3.796459076830903E-174
   12.7181250000000         2.866879677301943E-173
   12.9318750000000         7.964496355009950E-173
   13.1456250000000        -1.776614493926889E-171
   13.3593750000000        -4.010892931828866E-170
   13.5731250000000        -5.290697440031373E-169
   13.7868750000000        -5.456000038847449E-168
   14.0006250000000        -4.752334576932803E-167
   14.2143750000000        -3.612040479606122E-166
   14.4281250000000        -2.433951434822584E-165
   14.6418750000000        -1.464109919843739E-164
   14.8556250000000        -7.859572668342042E-164
   15.0693750000000        -3.730610206139831E-163
   15.2831250000000        -1.525982349835841E-162
   15.4968750000000        -5.014079598224084E-162
   15.7106250000000        -9.955102041609957E-162
   15.9243750000000         2.115670887479823E-161
   16.1381250000000         3.742032321870653E-160
   16.3518750000000         2.601427604460881E-159
   16.5656250000000         1.351367495611604E-158
   16.7793750000000         5.742356925451527E-158
   16.9931250000000         1.983779804442663E-157
   17.2068750000000         4.932484530683289E-157
   17.4206250000000         2.452561882329666E-157
   17.6343750000000        -6.877099436936357E-156
   17.8481250000000        -5.735321234088347E-155
   18.0618750000000        -3.230341757671349E-154
   18.2756250000000        -1.510902743403711E-153
   18.4893750000000        -6.219930648169184E-153
   18.7031250000000        -2.302109505432305E-152
   18.9168750000000        -7.694776346739004E-152
   19.1306250000000        -2.300225944819456E-151
   19.3443750000000        -5.948809697258973E-151
   19.5581250000000        -1.201359728023243E-150
   19.7718750000000        -1.047718850226972E-150
   19.9856250000000         6.245379998166373E-150
   20.1993750000000         4.891450742088880E-149
   20.4131250000000         2.322946950655331E-148
   20.6268750000000         9.066031545687140E-148
   20.8406250000000         3.132609915792792E-147
   21.0543750000000         9.860424198666898E-147
   21.2681250000000         2.861467982337015E-146
   21.4818750000000         7.680650057467476E-146
   21.6956250000000         1.899649900292547E-145
   21.9093750000000         4.273576417416119E-145
   22.1231250000000         8.478168230270681E-145
   22.3368750000000         1.364892528627875E-144
   22.5506250000000         1.229984097929603E-144
   22.7643750000000        -2.460113057499355E-144
   22.9781250000000        -1.849679808525869E-143
   23.1918750000000        -6.978645616054663E-143
   23.4056250000000        -2.091243076242351E-142
   23.6193750000000        -5.440864916885203E-142
   23.8331250000000        -1.262922171949609E-141
   24.0468750000000        -2.621841167222452E-141
   24.2606250000000        -4.774560729213894E-141
   24.4743750000000        -7.155700335329298E-141
   24.6881250000000        -6.822448685503164E-141
   24.9018750000000         5.300384989051016E-141
   25.1156250000000         5.181801154202942E-140
   25.3293750000000         1.815370408803104E-139
   25.5431250000000         4.877326499617015E-139
   25.7568750000000         1.128002739259566E-138
   25.9706250000000         2.332599979741052E-138
   26.1843750000000         4.374273764466500E-138
   26.3981250000000         7.459518778059990E-138
   26.6118750000000         1.150351887521906E-137
   26.8256250000000         1.578888873224067E-137
   27.0393750000000         1.857226418763364E-137
   27.2531250000000         1.664708965459488E-137
   27.4668750000000         4.172602413168686E-138
   27.6806250000000        -3.257303045266202E-137
   27.8943750000000        -1.350325736730931E-136
   28.1081250000000        -4.328563651183499E-136
   28.3218750000000        -1.298307743439138E-135
   28.5356250000000        -3.683390635610574E-135
   28.7493750000000        -9.747929533756467E-135
   28.9631250000000        -2.381851808009927E-134
   29.1768750000000        -5.340605248989545E-134
   29.3906250000000        -1.091770856693932E-133
   29.6043750000000        -2.010248968684033E-133
   29.8181250000000        -3.242992860298520E-133
   30.0318750000000        -4.256479346073923E-133
   30.2456250000000        -3.323155515105258E-133
   30.4593750000000         3.760627112268158E-133
   30.6731250000000         2.574577712408682E-132
   30.8868750000000         7.890753533333200E-132
   31.1006250000000         1.907474585019003E-131
   31.3143750000000         4.035119028813179E-131
   31.5281250000000         7.748046900489113E-131
   31.7418750000000         1.367831934778880E-130
   31.9556250000000         2.211635241012744E-130
   32.1693750000000         3.182678163671569E-130
   32.3831250000000         3.697697332224555E-130
   32.5968750000000         1.995994590586025E-130
   32.8106250000000        -6.371693679375213E-130
   33.0243750000000        -3.136270530037787E-129
   33.2381250000000        -9.290832588901716E-129
   33.4518750000000        -2.261841953244211E-128
   33.6656250000000        -4.832861247343120E-128
   33.8793750000000        -9.187815846406508E-128
   34.0931250000000        -1.531366760611980E-127
   34.3068750000000        -2.110740661388029E-127
   34.5206250000000        -1.914176986241505E-127
   34.7343750000000         9.048005657567068E-128
   34.9481250000000         1.011428791411235E-126
   35.1618750000000         3.219480236225215E-126
   35.3756250000000         7.618944411576457E-126
   35.5893750000000         1.504923477310073E-125
   35.8031250000000         2.525990095895510E-125
   36.0168750000000         3.457270669044883E-125
   36.2306250000000         3.153557896361266E-125
   36.4443750000000        -9.723171659600948E-126
   36.6581250000000        -1.371490244591883E-124
   36.8718750000000        -4.243071408810240E-124
   37.0856250000000        -9.573966270780610E-124
   37.2993750000000        -1.781876273289560E-123
   37.5131250000000        -2.771053830735082E-123
   37.7268750000000        -3.370420185184689E-123
   37.9406250000000        -2.186698333139930E-123
   38.1543750000000         3.535025899258200E-123
   38.3681250000000         1.831355655021344E-122
   38.5818750000000         4.810877679224380E-122
   38.7956250000000         9.806777508302089E-122
   39.0093750000000         1.663583461863894E-121
   39.2231250000000         2.314714667524157E-121
   39.4368750000000         2.306869291945273E-121
   39.6506250000000         3.026176427985270E-122
   39.8643750000000        -6.040736084033843E-121
   40.0781250000000        -2.011134964177450E-120
   40.2918750000000        -4.559519228360592E-120
   40.5056250000000        -8.401805075120568E-120
   40.7193750000000        -1.292645419135322E-119
   40.9331250000000        -1.576821869758399E-119
   41.1468750000000        -1.132604638866208E-119
   41.3606250000000         1.096745541685818E-119
   41.5743750000000         6.772450589779607E-119
   41.7881250000000         1.799518536650043E-118
   42.0018750000000         3.648518815284448E-118
   42.2156250000000         6.152490715422452E-118
   42.4293750000000         8.596042818886204E-118
   42.6431250000000         8.975293961193554E-118
   42.8568750000000         3.150592423859444E-118
   43.0706250000000        -1.593081608706641E-117
   43.2843750000000        -5.823212928501020E-117
   43.4981250000000        -1.344452750283270E-116
   43.7118750000000        -2.493562451761119E-116
   43.9256250000000        -3.877389792389512E-116
   44.1393750000000        -4.899140838751102E-116
   44.3531250000000        -4.166063520809998E-116
   44.5668750000000         9.019378377982007E-117
   44.7806250000000         1.429255958197370E-115
   44.9943750000000         4.099955988041844E-115
   45.2081250000000         8.522141744891052E-115
   45.4218750000000         1.460491993477139E-114
   45.6356250000000         2.094160153107925E-114
   45.8493750000000         2.356179821696639E-114
   46.0631250000000         1.436132536351344E-114
   46.2768750000000        -2.025145544275122E-114
   46.4906250000000        -9.922084696753855E-114
   46.7043750000000        -2.428849179086778E-113
   46.9181250000000        -4.616443866294936E-113
   47.1318750000000        -7.329164613418527E-113
   47.3456250000000        -9.628345016039591E-113
   47.5593750000000        -9.335337676417623E-113
   47.7731250000000        -2.475391750588761E-113
   47.9868750000000         1.699405705704219E-112
   48.2006250000000         5.655397817285482E-112
   48.4143750000000         1.226005605722606E-111
   48.6281250000000         2.147140920205605E-111
   48.8418750000000         3.154219405839459E-111
   49.0556250000000         3.750060618644217E-111
   49.2693750000000         2.932972686389465E-111
   49.4831250000000        -9.485752141403858E-112
   49.6968750000000        -1.016117092202834E-110
   49.9106250000000        -2.712657403963551E-110
   50.1243750000000        -5.318980768906318E-110
   50.3381250000000        -8.622648074766962E-110
   50.5518750000000        -1.168294892067652E-109
   50.7656250000000        -1.232811579521610E-109
   50.9793750000000        -6.652232372606963E-110
   51.1931250000000         1.119537519800196E-109
   51.4068750000000         4.839287356330286E-109
   51.6206250000000         1.111928135991038E-108
   51.8343750000000         2.000367611163380E-108
   52.0481250000000         3.011585780066583E-108
   52.2618750000000         3.745696143339244E-108
   52.4756250000000         3.401989370709121E-108
   52.6893750000000         6.739116921935515E-109
   52.9031250000000        -6.218819223020445E-108
   53.1168750000000        -1.919401497834921E-107
   53.3306250000000        -3.944345568618523E-107
   53.5443750000000        -6.580911345342141E-107
   53.7581250000000        -9.226947540193005E-107
   53.9718750000000        -1.047129398759523E-106
   54.1856250000000        -7.778433342912612E-107
   54.3993750000000         2.643251316861618E-107
   54.6131250000000         2.548329448126247E-106
   54.8268750000000         6.503921189177349E-106
   55.0406250000000         1.224751976379283E-105
   55.2543750000000         1.912018422352001E-105
   55.4681250000000         2.503747509341334E-105
   55.6818750000000         2.574643827302394E-105
   55.8956250000000         1.425001284778786E-105
   56.1093750000000        -1.910399179285934E-105
   56.3231250000000        -8.509457755188889E-105
   56.5368750000000        -1.916550410985189E-104
   56.7506250000000        -3.364391002880097E-104
   56.9643750000000        -4.953795849066623E-104
   57.1781250000000        -6.079919168868747E-104
   57.3918750000000        -5.626475658415728E-104
   57.6056250000000        -1.888789299214636E-104
   57.8193750000000         7.312663143931304E-104
   58.0331250000000         2.415780464830142E-103
   58.2468750000000         4.979323503508275E-103
   58.4606250000000         8.257379133192345E-103
   58.6743750000000         1.155618113387980E-102
   58.8881250000000         1.335910469449738E-102
   59.1018750000000         1.107529929025834E-102
   59.3156250000000         9.941934621093846E-104
   59.5293750000000        -2.129992697268691E-102
   59.7431250000000        -5.972266484515560E-102
   59.9568750000000        -1.153507474769649E-101
   60.1706250000000        -1.827347044709814E-101
   60.3843750000000        -2.450116558351040E-101
   60.5981250000000        -2.686616958396482E-101
   60.8118750000000        -1.998291533041802E-101
   61.0256250000000         3.446921727118479E-102
   61.2393750000000         5.154672732893536E-101
   61.4531250000000         1.306371385310802E-100
   61.6668750000000         2.405454304313510E-100
   61.8806250000000         3.676570210933977E-100
   62.0943750000000         4.762692178385816E-100
   62.3081250000000         5.001157999963281E-100
   62.5218750000000         3.378154391802159E-100
   62.7356250000000        -1.417374188466462E-100
   62.9493750000000        -1.075925263430999E-099
   63.1631250000000        -2.557905140779440E-099
   63.3768750000000        -4.551970469041914E-099
   63.5906250000000        -6.774461210433831E-099
   63.8043750000000        -8.553632992906416E-099
   64.0181250000000        -8.703983341882124E-099
   64.2318750000000        -5.480400128782198E-099
   64.4456250000000         3.289126224827758E-099
   64.6593750000000         1.976645034837040E-098
   64.8731250000000         4.523235050208314E-098
   65.0868750000000         7.869593427807437E-098
   65.3006250000000         1.150186953289803E-097
   65.5143750000000         1.428109632828663E-097
   65.7281250000000         1.426976636840644E-097
   65.9418750000000         8.698479971399515E-098
   66.1556250000000        -5.778861680360281E-098
   66.3693750000000        -3.236122107784295E-097
   66.5831250000000        -7.273493544377003E-097
   66.7968750000000        -1.249730506490968E-096
   67.0106250000000        -1.807955382245144E-096
   67.2243750000000        -2.226173557948969E-096
   67.4381250000000        -2.212906415915392E-096
   67.6518750000000        -1.360334218782535E-096
   67.8656250000000         8.138933024241456E-097
   68.0793750000000         4.758290124320914E-096
   68.2931250000000         1.069095454123398E-095
   68.5068750000000         1.830559168256316E-095
   68.7206250000000         2.639808246983025E-095
   68.9343750000000         3.247665756114282E-095
   69.1481250000000         3.248161505160285E-095
   69.3618750000000         2.081435801685106E-095
   69.5756250000000        -9.056428788055931E-096
   69.7893750000000        -6.311080308383178E-095
   70.0031250000000        -1.441601197560495E-094
   70.2168750000000        -2.480154688651747E-094
   70.4306250000000        -3.587180185707666E-094
   70.6443750000000        -4.436779495792922E-094
   70.8581250000000        -4.503385719870584E-094
   71.0718750000000        -3.068544553988596E-094
   71.2856250000000         6.996814429502287E-095
   71.4993750000000         7.559323915679516E-094
   71.7131250000000         1.787060547339807E-093
   71.9268750000000         3.112939981142466E-093
   72.1406250000000         4.539536399217321E-093
   72.3543750000000         5.671933264509992E-093
   72.5681250000000         5.876276532932726E-093
   72.7818750000000         4.289872596643258E-093
   72.9956250000000        -8.364893385461642E-095
   73.2093750000000        -8.155011515707846E-093
   73.4231250000000        -2.037577020453729E-092
   73.6368750000000        -3.620701176478717E-092
   73.8506250000000        -5.347589570692285E-092
   74.0643750000000        -6.773971843599118E-092
   74.2781250000000        -7.187172065504308E-092
   74.4918750000000        -5.618325137307510E-092
   74.7056250000000        -9.475005450083908E-093
   74.9193750000000         7.857724170290273E-092
   75.1331250000000         2.134054038551470E-091
   75.3468750000000         3.898930125704547E-091
   75.5606250000000         5.855922157705862E-091
   75.7743750000000         7.540866062858508E-091
   75.9881250000000         8.207188553487408E-091
   76.2018750000000         6.838751074701381E-091
   76.4156250000000         2.257296055724486E-091
   76.6293750000000        -6.636212509573369E-091
   76.8431250000000        -2.045894598910189E-090
   77.0568750000000        -3.878431627441350E-090
   77.2706250000000        -5.947389898862895E-090
   77.4843750000000        -7.802903493265741E-090
   77.6981250000000        -8.717611740693672E-090
   77.9118750000000        -7.698717304814633E-090
   78.1256250000000        -3.589701056623304E-090
   78.3393750000000         4.702878638461131E-090
   78.5531250000000         1.783407394005087E-089
   78.7668750000000         3.550110873711446E-089
   78.9806250000000         5.583075892511387E-089
   79.1943750000000         7.478913076938759E-089
   79.4081250000000         8.580550528658283E-089
   79.6218750000000         7.987472939220193E-089
   79.8356250000000         4.644810644200452E-089
   80.0493750000000        -2.459176702295894E-089
   80.2631250000000        -1.396885949706029E-088
   80.4768750000000        -2.971620381966293E-088
   80.6906250000000        -4.820022871568904E-088
   80.9043750000000        -6.608924905360780E-088
   81.1181250000000        -7.790467569799910E-088
   81.3318750000000        -7.610051599083824E-088
   81.5456250000000        -5.178351195596368E-088
   81.7593750000000         3.700150276151564E-089
   81.9731250000000         9.618181913449289E-088
   82.1868750000000         2.251576945175437E-087
   82.4006250000000         3.797188407502171E-087
   82.6143750000000         5.346949303891526E-087
   82.8281250000000         6.482210147882027E-087
   83.0418750000000         6.623158564781005E-087
   83.2556250000000         5.082364759593048E-087
   83.4693750000000         1.181696402242127E-087
   83.6831250000000        -5.559426966648577E-087
   83.8968750000000        -1.517103740682160E-086
   84.1106250000000        -2.694317964225910E-086
   84.3243750000000        -3.915549883726041E-086
   84.5381250000000        -4.890976045659090E-086
   84.7518750000000        -5.217184283955181E-086
   84.9656250000000        -4.413692365859894E-086
   85.1793750000000        -2.001225284021845E-086
   85.3931250000000         2.374410559317345E-086
   85.6068750000000         8.778879308906501E-086
   85.8206250000000         1.680619324404850E-085
   86.0343750000000         2.541221279971182E-085
   86.2481250000000         3.281694773578607E-085
   86.4618750000000         3.653860711180026E-085
   86.6756250000000         3.362226000743990E-085
   86.8893750000000         2.110912577224982E-085
   87.1031250000000        -3.245566412614370E-086
   87.3168750000000        -4.005851134176674E-085
   87.5306250000000        -8.733822888066763E-085
   87.7443750000000        -1.396522271387425E-084
   87.9581250000000        -1.877228957895458E-084
   88.1718750000000        -2.187600094281026E-084
   88.3856250000000        -2.177933173151086E-084
   88.5993750000000        -1.701296250158268E-084
   88.8131250000000        -6.481648059965505E-085
   89.0268750000000         1.013330227767926E-084
   89.2406250000000         3.199589507475287E-084
   89.4543750000000         5.687187996667422E-084
   89.6681250000000         8.114092777159051E-084
   89.8818750000000         1.001642740465331E-083
   90.0956250000000         1.090425581552240E-083
   90.3093750000000         1.036869991764000E-083
   90.5231250000000         8.197963359305153E-084
   90.7368750000000         4.464485720849183E-084
   90.9506250000000        -4.654200494368106E-085
   91.1643750000000        -6.047653575958445E-084
   91.3781250000000        -1.183117337928831E-083
   91.5918750000000        -1.786887769664896E-083
   91.8056250000000        -2.518416681037517E-083
   92.0193750000000        -3.612022510968338E-083
   92.2331250000000        -5.430978421431762E-083
   92.4468750000000        -8.394468510532418E-083
   92.6606250000000        -1.280403016706979E-082
   92.8743750000000        -1.855289624281368E-082
   93.0881250000000        -2.473218028252728E-082
   93.3018750000000        -2.919684089890671E-082
   93.5156250000000        -2.821892231133092E-082
   93.7293750000000        -1.642570739077296E-082
   93.9431250000000         1.272269989853282E-082
   94.1568750000000         6.564612382332489E-082
   94.3706250000000         1.463371559894455E-081
   94.5843750000000         2.529947552132399E-081
   94.7981250000000         3.738667123808236E-081
   95.0118750000000         4.830148785453577E-081
   95.2256250000000         5.372627572823998E-081
   95.4393750000000         4.761363161574912E-081
   95.6531250000000         2.270058138577853E-081
   95.8668750000000        -2.823432659704587E-081
   96.0806250000000        -1.102100345486151E-080
   96.2943750000000        -2.229680466773425E-080
   96.5081250000000        -3.572300880985826E-080
   96.7218750000000        -4.908945987324026E-080
   96.9356250000000        -5.862080471386145E-080
   97.1493750000000        -5.893726152211264E-080
   97.3631250000000        -4.343522080200880E-080
   97.5768750000000        -5.264967874563424E-081
   97.7906250000000         6.096405162281233E-080
   98.0043750000000         1.567328913497958E-079
   98.2181250000000         2.765906992337140E-079
   98.4318750000000         4.049995145440505E-079
   98.6456250000000         5.138040862466128E-079
   98.8593750000000         5.614034254761837E-079
   99.0731250000000         4.949357307679037E-079
   99.2868750000000         2.568249979101414E-079
   99.5006250000000        -2.032565330168616E-079
   99.7143750000000        -9.107082978260099E-079
   99.9281250000000        -1.843598309847906E-078
   100.141875000000        -2.908369172546083E-078
   100.355625000000        -3.918719592270814E-078
   100.569375000000        -4.585025461076257E-078
   100.783125000000        -4.523476081260477E-078
   100.996875000000        -3.294672328071426E-078
   101.210625000000        -4.798766662005797E-079
   101.424375000000         4.201455388209570E-078
   101.638125000000         1.073743080593713E-077
   101.851875000000         1.864925796585511E-077
   102.065625000000         2.682793367073909E-077
   102.279375000000         3.342926527900168E-077
   102.493125000000         3.588781002577918E-077
   102.706875000000         3.111654133161084E-077
   102.920625000000         1.595240794557534E-077
   103.134375000000        -1.211737317257973E-077
   103.348125000000        -5.396199451822925E-077
   103.561875000000        -1.076336024484903E-076
   103.775625000000        -1.671946369163356E-076
   103.989375000000        -2.218306977865654E-076
   104.203125000000        -2.556275135900017E-076
   104.416875000000        -2.484460297080899E-076
   104.630625000000        -1.783115435184328E-076
   104.844375000000        -2.560418249378164E-077
   105.058125000000         2.209321259410750E-076
   105.271875000000         5.567707938481261E-076
   105.485625000000         9.537482196962976E-076
   105.699375000000         1.353396365139155E-075
   105.913125000000         1.663705484712223E-075
   106.126875000000         1.761990656544519E-075
   106.340625000000         1.506568650393533E-075
   106.554375000000         7.593613619850570E-076
   106.768125000000        -5.798718470883566E-076
   106.981875000000        -2.529321756798520E-075
   107.195625000000        -4.975827420409037E-075
   107.409375000000        -7.629225091235719E-075
   107.623125000000        -9.992967889723002E-075
   107.836875000000        -1.136665094929468E-074
   108.050625000000        -1.089705706373076E-074
   108.264375000000        -7.691968565823738E-075
   108.478125000000        -1.004043758929849E-075
   108.691875000000         9.520277470456777E-075
   108.905625000000         2.354957158519891E-074
   109.119375000000         3.977844271558415E-074
   109.333125000000         5.570820901959906E-074
   109.546875000000         6.758415778076592E-074
   109.760625000000         7.058585318474378E-074
   109.974375000000         5.935940409349724E-074
   110.188125000000         2.894870672221441E-074
   110.401875000000        -2.387876023815602E-074
   110.615625000000        -9.900811124167849E-074
   110.829375000000        -1.912691375592713E-073
   111.043125000000        -2.889870825869616E-073
   111.256875000000        -3.732516163403635E-073
   111.470625000000        -4.184353970629564E-073
   111.684375000000        -3.944816226311003E-073
   111.898125000000        -2.713445481944135E-073
   112.111875000000        -2.567669695453857E-074
   112.325625000000         3.506005394943511E-073
   112.539375000000         8.408101813080801E-073
   112.753125000000         1.394772082939053E-072
   112.966875000000         1.923108770116715E-072
   113.180625000000         2.297386765294299E-072
   113.394375000000         2.358953076438769E-072
   113.608125000000         1.938805005903696E-072
   113.821875000000         8.895340961225402E-073
   114.035625000000        -8.717773070379555E-073
   114.249375000000        -3.313795010597426E-072
   114.463125000000        -6.241897145608589E-072
   114.676875000000        -9.260971593647031E-072
   114.890625000000        -1.176391914273024E-071
   115.104375000000        -1.296077300392593E-071
   115.318125000000        -1.196160318868816E-071
   115.531875000000        -7.920911189234754E-072
   115.745625000000        -2.414710247451286E-073
   115.959375000000         1.117835132844690E-071
   116.173125000000         2.568678473133085E-071
   116.386875000000         4.166117127929876E-071
   116.600625000000         5.639679710924004E-071
   116.814375000000         6.617592931634090E-071
   117.028125000000         6.658653127725486E-071
   117.241875000000         5.313861372308496E-071
   117.455625000000         2.218433619616432E-071
   117.669375000000        -2.791450116997119E-071
   117.883125000000        -9.550701044397171E-071
   118.096875000000        -1.744834551083012E-070
   118.310625000000        -2.535148370045972E-070
   118.524375000000        -3.160508218775178E-070
   118.738125000000        -3.414220431241750E-070
   118.951875000000        -3.073146154671592E-070
   119.165625000000        -1.937140923211032E-070
   119.379375000000         1.185188159878917E-071
   119.593125000000         3.082947136108008E-070
   119.806875000000         6.750902127973910E-070
   120.020625000000         1.067848554862564E-069
   120.234375000000         1.416902746873410E-069
   120.448125000000         1.630551463991136E-069
   120.661875000000         1.604336492672749E-069
   120.875625000000         1.237076512544544E-069
   121.089375000000         4.532804367473694E-070
   121.303125000000        -7.699353037238715E-070
   121.516875000000        -2.375058960424408E-069
   121.730625000000        -4.200918443641745E-069
   121.944375000000        -5.970726318169456E-069
   122.158125000000        -7.298801109484855E-069
   122.371875000000        -7.722625182427746E-069
   122.585625000000        -6.764506750482670E-069
   122.799375000000        -4.022814460366132E-069
   123.013125000000         7.133675162110309E-070
   123.226875000000         7.339757488092311E-069
   123.440625000000         1.532393777820762E-068
   123.654375000000         2.363197350422993E-068
   123.868125000000         3.072626423003375E-068