  -1.60312500000000         0.000000000000000E+000
  -1.38937500000000         0.000000000000000E+000
  -1.17562500000000         0.000000000000000E+000
 -0.961875000000000         0.000000000000000E+000
 -0.748125000000000         0.000000000000000E+000
 -0.534375000000000         0.000000000000000E+000
 -0.320625000000000         0.000000000000000E+000
 -0.106875000000000         0.000000000000000E+000
  0.106875000000000         0.000000000000000E+000
  0.320625000000000         0.000000000000000E+000
  0.534375000000000         0.000000000000000E+000
  0.748125000000000         0.000000000000000E+000
  0.961875000000000         0.000000000000000E+000
   1.17562500000000         0.000000000000000E+000
   1.38937500000000         0.000000000000000E+000
   1.60312500000000         0.000000000000000E+000
   1.81687500000000         0.000000000000000E+000
   2.03062500000000         0.000000000000000E+000
   2.24437500000000         0.000000000000000E+000
   2.45812500000000         0.000000000000000E+000
   2.67187500000000         0.000000000000000E+000
   2.88562500000000         0.000000000000000E+000
   3.09937500000000         0.000000000000000E+000
   3.31312500000000         0.000000000000000E+000
   3.52687500000000         0.000000000000000E+000
   3.74062500000000         0.000000000000000E+000
   3.95437500000000         0.000000000000000E+000
   4.16812500000000         0.000000000000000E+000
   4.38187500000000         0.000000000000000E+000
   4.59562500000000         0.000000000000000E+000
   4.80937500000000         0.000000000000000E+000
   5.02312500000000         0.000000000000000E+000
   5.23687500000000         0.000000000000000E+000
   5.45062500000000         0.000000000000000E+000
   5.66437500000000         0.000000000000000E+000
   5.87812500000000         0.000000000000000E+000
   6.09187500000000         0.000000000000000E+000
   6.30562500000000         0.000000000000000E+000
   6.51937500000000         0.000000000000000E+000
   6.73312500000000         0.000000000000000E+000
   6.94687500000000         0.000000000000000E+000
   7.16062500000000         0.000000000000000E+000
   7.37437500000000         0.000000000000000E+000
   7.58812500000000         0.000000000000000E+000
   7.80187500000000         0.000000000000000E+000
   8.01562500000000         0.000000000000000E+000
   8.22937500000000         0.000000000000000E+000
   8.44312500000000         0.000000000000000E+000
   8.65687500000000         0.000000000000000E+000
   8.87062500000000         0.000000000000000E+000
   9.08437500000000         0.000000000000000E+000
   9.29812500000000         0.000000000000000E+000
   9.51187500000000         0.000000000000000E+000
   9.72562500000000         0.000000000000000E+000
   9.93937500000000         0.000000000000000E+000
   10.1531250000000         0.000000000000000E+000
   10.3668750000000         2.980541123524981E-199
   10.5806250000000        -3.744080649158767E-192
   10.7943750000000        -8.049342005437351E-189
   11.0081250000000        -5.205197001440204E-187
   11.2218750000000        -7.320544966159160E-185
   11.4356250000000        -8.785671042606585E-183
   11.6493750000000        -5.371386153399631E-181
   11.8631250000000        -2.055259597121917E-179
   12.0768750000000        -5.619307840169067E-178
   12.2906250000000        -1.187952697625153E-176
   12.5043750000000        -2.044793852799346E-175
   12.7181250000000        -2.974251290227402E-174
   12.9318750000000        -3.763802821264691E-173
   13.1456250000000        -4.246328257464252E-172
   13.3593750000000        -4.363376326763998E-171
   13.5731250000000        -4.160268366307135E-170
   13.7868750000000        -3.736308251497925E-169
   14.0006250000000        -3.193906349968393E-168
   14.2143750000000        -2.612627231208538E-167
   14.4281250000000        -2.046847061837382E-166
   14.6418750000000        -1.532730303387702E-165
   14.8556250000000        -1.093557545612978E-164
   15.0693750000000        -7.411326202546461E-164
   15.2831250000000        -4.760379041437330E-163
   15.4968750000000        -2.893817113301149E-162
   15.7106250000000        -1.663746888863659E-161
   15.9243750000000        -9.044599603251097E-161
   16.1381250000000        -4.648940127243606E-160
   16.3518750000000        -2.259022391126901E-159
   16.5656250000000        -1.037231241145893E-158
   16.7793750000000        -4.494868826408780E-158
   16.9931250000000        -1.834273080664285E-157
   17.2068750000000        -7.020100195884922E-157
   17.4206250000000        -2.501476548676132E-156
   17.6343750000000        -8.188327521656823E-156
   17.8481250000000        -2.396328638213821E-155
   18.0618750000000        -5.868549980867929E-155
   18.2756250000000        -9.407363794615134E-155
   18.4893750000000         1.019737266571097E-154
   18.7031250000000         1.849176438784246E-153
   18.9168750000000         1.107871361377477E-152
   19.1306250000000         5.116209023149290E-152
   19.3443750000000         2.059414448430074E-151
   19.5581250000000         7.540051583539313E-151
   19.7718750000000         2.560103238548771E-150
   19.9856250000000         8.141241500462038E-150
   20.1993750000000         2.437058215743129E-149
   20.4131250000000         6.881204355352319E-149
   20.6268750000000         1.832121574244986E-148
   20.8406250000000         4.587826763205029E-148
   21.0543750000000         1.074614007957566E-147
   21.2681250000000         2.331408518257173E-147
   21.4818750000000         4.601778113186900E-147
   21.6956250000000         7.970249171832174E-147
   21.9093750000000         1.105212046472766E-146
   22.1231250000000         8.093903362638145E-147
   22.3368750000000        -1.667719126857855E-146
   22.5506250000000        -9.726781126416980E-146
   22.7643750000000        -2.918302890771480E-145
   22.9781250000000        -6.719837742298673E-145
   23.1918750000000        -1.276640861068322E-144
   23.4056250000000        -2.065368823370707E-144
   23.6193750000000        -3.203543003845477E-144
   23.8331250000000        -7.050637525590813E-144
   24.0468750000000        -2.611039063026599E-143
   24.2606250000000        -1.078968583974428E-142
   24.4743750000000        -4.004566302702428E-142
   24.6881250000000        -1.300354972214573E-141
   24.9018750000000        -3.733234032600662E-141
   25.1156250000000        -9.558439455992741E-141
   25.3293750000000        -2.180736761518070E-140
   25.5431250000000        -4.361052424778232E-140
   25.7568750000000        -7.259105265752865E-140
   25.9706250000000        -8.325322327018607E-140
   26.1843750000000         1.733439638141926E-140
   26.3981250000000         4.845421532753200E-139
   26.6118750000000         1.910574988405408E-138
   26.8256250000000         5.487063635571728E-138
   27.0393750000000         1.327427766574260E-137
   27.2531250000000         2.814903061191098E-137
   27.4668750000000         5.257238369674489E-137
   27.6806250000000         8.436680873871560E-137
   27.8943750000000         1.063056761992352E-136
   28.1081250000000         6.489789083153940E-137
   28.3218750000000        -1.663479517060326E-136
   28.5356250000000        -8.395851142729663E-136
   28.7493750000000        -2.387226882325695E-135
   28.9631250000000        -5.431259534844317E-135
   29.1768750000000        -1.063671279902442E-134
   29.3906250000000        -1.819386515581916E-134
   29.6043750000000        -2.656033420100134E-134
   29.8181250000000        -2.989720415115521E-134
   30.0318750000000        -1.342651786130799E-134
   30.2456250000000         5.416529436802371E-134
   30.4593750000000         2.317969239015523E-133
   30.6731250000000         6.192031468190828E-133
   30.8868750000000         1.364908350368938E-132
   31.1006250000000         2.645174041192175E-132
   31.3143750000000         4.551446024280854E-132
   31.5281250000000         6.744672731335312E-132
   31.7418750000000         7.598836361306355E-132
   31.9556250000000         2.380365525271742E-132
   32.1693750000000        -2.007241032422920E-131
   32.3831250000000        -8.228212912604375E-131
   32.5968750000000        -2.229092619585933E-130
   32.8106250000000        -4.945072999568325E-130
   33.0243750000000        -9.365510666581532E-130
   33.2381250000000        -1.487306192949741E-129
   33.4518750000000        -1.773480400628958E-129
   33.6656250000000        -7.007470273663620E-130
   33.8793750000000         4.196035812037021E-129
   34.0931250000000         1.750429798835444E-128
   34.3068750000000         4.616429573933142E-128
   34.5206250000000         9.755427146629182E-128
   34.7343750000000         1.721274189918228E-127
   34.9481250000000         2.451456756360944E-127
   35.1618750000000         2.306341003681267E-127
   35.3756250000000        -7.673434060337489E-128
   35.5893750000000        -1.072802403475633E-126
   35.8031250000000        -3.383972914264211E-126
   36.0168750000000        -7.760834097957552E-126
   36.2306250000000        -1.459312592282888E-125
   36.4443750000000        -2.266483356037342E-125
   36.6581250000000        -2.666278456929922E-125
   36.8718750000000        -1.308896081138815E-125
   37.0856250000000         4.499698703172279E-125
   37.2993750000000         1.919177330926315E-124
   37.5131250000000         4.853512300407776E-124
   37.7268750000000         9.708251718142574E-124
   37.9406250000000         1.612277868454855E-123
   38.1543750000000         2.148987869699106E-123
   38.3681250000000         1.853683331931574E-123
   38.5818750000000        -7.969207731225162E-124
   38.7956250000000        -8.426452517895480E-123
   39.0093750000000        -2.471568809561243E-122
   39.2231250000000        -5.333517269359477E-122
   39.4368750000000        -9.469321380082073E-122
   39.6506250000000        -1.388804179604097E-121
   39.8643750000000        -1.531973320907350E-121
   40.0781250000000        -6.402904896018661E-122
   40.2918750000000         2.628845423779811E-121
   40.5056250000000         1.030432730698974E-120
   40.7193750000000         2.476644776073724E-120
   40.9331250000000         4.746302424754581E-120
   41.1468750000000         7.588415604775368E-120
   41.3606250000000         9.789149845345297E-120
   41.5743750000000         8.289892836857746E-120
   41.7881250000000        -2.903878352878748E-120
   42.0018750000000        -3.355172698872064E-119
   42.2156250000000        -9.659580020506166E-119
   42.4293750000000        -2.039756920290440E-118
   42.6431250000000        -3.553829984589176E-118
   42.8568750000000        -5.155687257360715E-118
   43.0706250000000        -5.765481019649718E-118
   43.2843750000000        -3.058862273020171E-118
   43.4981250000000         7.050727136307541E-118
   43.7118750000000         3.054142322261041E-117
   43.9256250000000         7.422829424365137E-117
   44.1393750000000         1.421902578007020E-116
   44.3531250000000         2.278375504314660E-116
   44.5668750000000         2.997298936550647E-116
   44.7806250000000         2.804927184166396E-116
   44.9943750000000         2.202555418762943E-117
   45.2081250000000        -7.116329288868506E-116
   45.4218750000000        -2.228376191160534E-115
   45.6356250000000        -4.813699308610502E-115
   45.8493750000000        -8.490883639349580E-115
   46.0631250000000        -1.255715039011649E-114
   46.2768750000000        -1.484099818577819E-114
   46.4906250000000        -1.072659000855125E-114
   46.7043750000000         7.774255270837235E-115
   46.9181250000000         5.219419732999459E-114
   47.1318750000000         1.356734007237152E-113
   47.3456250000000         2.667798328183637E-113
   47.5593750000000         4.363384648117195E-113
   47.7731250000000         5.947380947915144E-113
   47.9868750000000         6.193989700713350E-113
   48.2006250000000         2.779790068632800E-113
   48.4143750000000        -7.956154175155665E-113
   48.6281250000000        -3.076991165873831E-112
   48.8418750000000        -7.019291905539547E-112
   49.0556250000000        -1.273062381801149E-111
   49.2693750000000        -1.937114822506175E-111
   49.4831250000000        -2.421871464211340E-111
   49.6968750000000        -2.148001839407836E-111
   49.9106250000000        -1.195990420321003E-112
   50.1243750000000         5.094849821546481E-111
   50.3381250000000         1.514510174413646E-110
   50.5518750000000         3.122733692058228E-110
   50.7656250000000         5.269323023094401E-110
   50.9793750000000         7.471847193982552E-110
   51.1931250000000         8.504497892564603E-110
   51.4068750000000         6.037435939449465E-110
   51.6206250000000        -3.598425428984762E-110
   51.8343750000000        -2.520653169016235E-109
   52.0481250000000        -6.357520692612551E-109
   52.2618750000000        -1.207128090072378E-108
   52.4756250000000        -1.907803597791268E-108
   52.6893750000000        -2.523820475152539E-108
   52.9031250000000        -2.588858732572023E-108
   53.1168750000000        -1.294587958855210E-108
   53.3306250000000         2.532529490649296E-108
   53.5443750000000         1.028517101723145E-107
   53.7581250000000         2.311147015369046E-107
   53.9718750000000         4.095970741831280E-107
   54.1856250000000         6.099140655007400E-107
   54.3993750000000         7.537620568667262E-107
   54.6131250000000         6.882773537214280E-107
   54.8268750000000         1.684386603048693E-107
   55.0406250000000        -1.135084208507342E-106
   55.2543750000000        -3.573823942438884E-106
   55.4681250000000        -7.367593062803463E-106
   55.6818750000000        -1.232067986048200E-105
   55.8956250000000        -1.738839350779959E-105
   56.1093750000000        -2.012538675277277E-105
   56.3231250000000        -1.614616376807048E-105
   56.5368750000000         1.115883835375155E-106
   56.7506250000000         3.985965425577651E-105
   56.9643750000000         1.078743742421238E-104
   57.1781250000000         2.081774302908309E-104
   57.3918750000000         3.316361918463857E-104
   57.6056250000000         4.465052104930878E-104
   57.8193750000000         4.862198708630325E-104
   58.0331250000000         3.392282427941703E-104
   58.2468750000000        -1.518375673646919E-104
   58.4606250000000        -1.170157950665969E-103
   58.6743750000000        -2.868728152398643E-103
   58.8881250000000        -5.262378246032157E-103
   59.1018750000000        -8.057492649345140E-103
   59.3156250000000        -1.042608068887459E-102
   59.5293750000000        -1.076416066833077E-102
   59.7431250000000        -6.527319027443445E-103
   59.9568750000000         5.693224598805536E-103
   60.1706250000000         2.961487389771013E-102
   60.3843750000000         6.793595620577735E-102
   60.5981250000000         1.199623230896059E-101
   60.8118750000000         1.780753368262529E-101
   61.0256250000000         2.233162703833265E-101
   61.2393750000000         2.210542571571724E-101
   61.4531250000000         1.187285768525483E-101
   61.6668750000000        -1.510758927555572E-101
   61.8806250000000        -6.577343816725152E-101
   62.0943750000000        -1.444768779315433E-100
   62.3081250000000        -2.482924940141738E-100
   62.5218750000000        -3.603609832157455E-100
   62.7356250000000        -4.419908710592083E-100
   62.9493750000000        -4.255266784214706E-100
   63.1631250000000        -2.117839762527107E-100
   63.3768750000000         3.220723791687989E-100
   63.5906250000000         1.296536921331345E-099
   63.8043750000000         2.777504962905906E-099
   64.0181250000000         4.691950981918299E-099
   64.2318750000000         6.712874262051553E-099
   64.4456250000000         8.128664083008857E-099
   64.6593750000000         7.733715214460729E-099
   64.8731250000000         3.805827156821457E-099
   65.0868750000000        -5.732807300867363E-099
   65.3006250000000        -2.285023832832995E-098
   65.5143750000000        -4.851419684021802E-098
   65.7281250000000        -8.130291317655807E-098
   65.9418750000000        -1.155665203765302E-097
   66.1556250000000        -1.394114836959972E-097
   66.3693750000000        -1.331152484832246E-097
   66.5831250000000        -6.900297325457893E-098
   66.7968750000000         8.574378644416920E-098
   67.0106250000000         3.615795729491237E-097
   67.2243750000000         7.727122992693537E-097
   67.4381250000000         1.295978574235108E-096
   67.6518750000000         1.843510874464868E-096
   67.8656250000000         2.233531212902014E-096
   68.0793750000000         2.168381953143399E-096
   68.2931250000000         1.234752592628290E-096
   68.5068750000000        -1.053186835672437E-096
   68.7206250000000        -5.143580626334454E-096
   68.9343750000000        -1.124765156781152E-095
   69.1481250000000        -1.904169060907832E-095
   69.3618750000000        -2.728739340357572E-095
   69.5756250000000        -3.343270034224023E-095
   69.7893750000000        -3.331863956303694E-095
   70.0031250000000        -2.119303532278580E-095
   70.2168750000000         9.696806619474195E-096
   70.4306250000000         6.562208150366925E-095
   70.6443750000000         1.497281280133661E-094
   70.8581250000000         2.581208606364400E-094
   71.0718750000000         3.749264171137176E-094
   71.2856250000000         4.671364732196001E-094
   71.4993750000000         4.808357683751019E-094
   71.7131250000000         3.413201719224164E-094
   71.9268750000000        -3.955094236902132E-095
   72.1406250000000        -7.450164142042077E-094
   72.3543750000000        -1.820859702613842E-093
   72.5681250000000        -3.227472131071419E-093
   72.7818750000000        -4.779565002774989E-093
   72.9956250000000        -6.083278645672943E-093
   73.2093750000000        -6.489515486295946E-093
   73.4231250000000        -5.092696516689462E-093
   73.6368750000000        -8.134254156267066E-094
   73.8506250000000         7.392227482474832E-093
   74.0643750000000         2.016047341412371E-092
   74.2781250000000         3.717173609224842E-092
   74.4918750000000         5.646076033223515E-092
   74.7056250000000         7.369267186327748E-092
   74.9193750000000         8.161118017066659E-092
   75.1331250000000         6.997608088623686E-092
   75.3468750000000         2.640500629049151E-092
   75.5606250000000        -6.142277804108205E-092
   75.7743750000000        -2.018118084388294E-091
   75.9881250000000        -3.932032164775710E-091
   76.2018750000000        -6.167782767435468E-091
   76.4156250000000        -8.286120584962978E-091
   76.6293750000000        -9.534751284818264E-091
   76.8431250000000        -8.834969937320563E-091
   77.0568750000000        -4.858802061374830E-091
   77.2706250000000         3.757205457676983E-091
   77.4843750000000         1.802212419977387E-090
   77.6981250000000         3.800920701547465E-090
   77.9118750000000         6.211403862673869E-090
   78.1256250000000         8.625563199663736E-090
   78.3393750000000         1.032185771397546E-089
   78.5531250000000         1.024396759477641E-089
   78.7668750000000         7.063447520137572E-090
   78.9806250000000        -6.299580380449660E-091
   79.1943750000000        -1.397251802643432E-089
   79.4081250000000        -3.328873528389821E-089
   79.6218750000000        -5.739668630356557E-089
   79.8356250000000        -8.284573200430408E-089
   80.0493750000000        -1.032597818976047E-088
   80.2631250000000        -1.090525038263034E-088
   80.4768750000000        -8.786280196000256E-089
   80.6906250000000        -2.609793761642975E-089
   80.9043750000000         8.807325058865918E-089
   81.1181250000000         2.601086926485457E-088
   81.3318750000000         4.830372024648312E-088
   81.5456250000000         7.306614320905120E-088
   81.7593750000000         9.514151211846764E-088
   81.9731250000000         1.065041714244289E-087
   82.1868750000000         9.649493942005034E-088
   82.4006250000000         5.294542645657767E-088
   82.6143750000000        -3.551701305005762E-088
   82.8281250000000        -1.758210619265347E-087
   83.0418750000000        -3.655563307436518E-087
   83.2556250000000        -5.873303876800281E-087
   83.4693750000000        -8.034067944551982E-087
   83.6831250000000        -9.522485401102291E-087
   83.8968750000000        -9.491342218833676E-087
   84.1106250000000        -6.933260263867486E-087
   84.3243750000000        -8.412023661225130E-088
   84.5381250000000         9.527461511902462E-087
   84.7518750000000         2.428640141726860E-086
   84.9656250000000         4.248645290578876E-086
   85.1793750000000         6.168094736240044E-086
   85.3931250000000         7.760138098573945E-086
   85.6068750000000         8.409462313523830E-086
   85.8206250000000         7.349863458197961E-086
   86.0343750000000         3.763010514785672E-086
   86.2481250000000        -3.049185548222636E-086
   86.4618750000000        -1.341711993074542E-085
   86.6756250000000        -2.699718694411238E-085
   86.8893750000000        -4.244683459589511E-085
   87.1031250000000        -5.714916848138070E-085
   87.3168750000000        -6.708268924178073E-085
   87.5306250000000        -6.695164520065166E-085
   87.7443750000000        -5.069598370150851E-085
   87.9581250000000        -1.247720600517346E-085
   88.1718750000000         5.182124873703937E-085
   88.3856250000000         1.426384309407148E-084
   88.5993750000000         2.545214377709628E-084
   88.8131250000000         3.740135784849206E-084
   89.0268750000000         4.781773390904945E-084
   89.2406250000000         5.344255417228621E-084
   89.4543750000000         5.024001603069675E-084
   89.6681250000000         3.385780240106710E-084
   89.8818750000000         4.047885057920691E-086
   90.0956250000000        -5.245398183696969E-084
   90.3093750000000        -1.241507099864373E-083
   90.5231250000000        -2.097662047939453E-083
   90.7368750000000        -2.987224426346091E-083
   90.9506250000000        -3.739495031644169E-083
   91.1643750000000        -4.119280286799934E-083
   91.3781250000000        -3.840331423757976E-083
   91.5918750000000        -2.595656828366740E-083
   91.8056250000000        -1.073273364876571E-084
   92.0193750000000         3.803811127941897E-083
   92.2331250000000         9.131314789506321E-083
   92.4468750000000         1.558615658818916E-082
   92.6606250000000         2.250143295353422E-082
   92.8743750000000         2.875598665850530E-082
   93.0881250000000         3.273958360108044E-082
   93.3018750000000         3.238716961093774E-082
   93.5156250000000         2.531329016646699E-082
   93.7293750000000         9.078798574742027E-083
   93.9431250000000        -1.838124591120474E-082
   94.1568750000000        -5.814959600826575E-082
   94.3706250000000        -1.095400169873826E-081
   94.5843750000000        -1.691672905113985E-081
   94.7981250000000        -2.299622277949916E-081
   95.0118750000000        -2.802933649467724E-081
   95.2256250000000        -3.034503625668212E-081
   95.4393750000000        -2.778496008944506E-081
   95.6531250000000        -1.784218881878291E-081
   95.8668750000000         2.029635772331571E-082
   96.0806250000000         3.388711572437272E-081
   96.2943750000000         7.851520008141100E-081
   96.5081250000000         1.343985912355704E-080
   96.7218750000000         1.965186298137793E-080
   96.9356250000000         2.551443795684040E-080
   97.1493750000000         2.949099906174856E-080
   97.3631250000000         2.946069019622557E-080
   97.5768750000000         2.282417388261628E-080
   97.7906250000000         6.797578968902032E-081
   98.0043750000000        -2.104883249107414E-080
   98.2181250000000        -6.197402066451997E-080
   98.4318750000000        -1.149863550886947E-079
   98.6456250000000        -1.755925694104753E-079
   98.8593750000000        -2.345730525609214E-079
   99.0731250000000        -2.771066865396168E-079
   99.2868750000000        -2.826946386850882E-079
   99.5006250000000        -2.264268229558099E-079
   99.7143750000000        -8.215181420181865E-080
   99.9281250000000         1.720038324863975E-079
   100.141875000000         5.456232887623662E-079
   100.355625000000         1.025883304089886E-078
   100.569375000000         1.566496886840664E-078
   100.783125000000         2.077847382737002E-078
   100.996875000000         2.421490014792956E-078
   101.210625000000         2.413096214112625E-078
   101.424375000000         1.838355106227079E-078
   101.638125000000         4.859315078216550E-079
   101.851875000000        -1.800108310230364E-078
   102.065625000000        -5.049306478784812E-078
   102.279375000000        -9.081262641349487E-078
   102.493125000000        -1.342221984558134E-077
   102.706875000000        -1.724206795950461E-077
   102.920625000000        -1.933917337589013E-077
   103.134375000000        -1.820508930812172E-077
   103.348125000000        -1.220075749259775E-077
   103.561875000000         1.325976075927881E-079
   103.775625000000         1.962364934962699E-077
   103.989375000000         4.590901990126628E-077
   104.203125000000         7.682849647729859E-077
   104.416875000000         1.078969410053722E-076
   104.630625000000         1.320226236563168E-076
   104.844375000000         1.396796968237297E-076
   105.058125000000         1.197521671438653E-076
   105.271875000000         6.122965818875292E-077
   105.485625000000        -4.416588559162961E-077
   105.699375000000        -1.985202214352410E-076
   105.913125000000        -3.937835085122898E-076
   106.126875000000        -6.080028523125588E-076
   106.340625000000        -8.027134985311965E-076
   106.554375000000        -9.227401203985121E-076
   106.768125000000        -8.997789200833049E-076
   106.981875000000        -6.609909841050646E-076
   107.195625000000        -1.433293629905830E-076
   107.409375000000         6.866322628201881E-076
   107.623125000000         1.809017734309175E-075
   107.836875000000         3.126552722189809E-075
   108.050625000000         4.445437172475881E-075
   108.264375000000         5.468283798628147E-075
   108.478125000000         5.807183357501314E-075
   108.691875000000         5.024539759065784E-075
   108.905625000000         2.706887461524882E-075
   109.119375000000        -1.428029311337250E-075
   109.333125000000        -7.398225943006340E-075
   109.546875000000        -1.481566045321216E-074
   109.760625000000        -2.276378231158129E-074
   109.974375000000        -2.973272926386548E-074
   110.188125000000        -3.365690723194690E-074
   110.401875000000        -3.209905012312751E-074
   110.615625000000        -2.261362106373570E-074
   110.829375000000        -3.297767279929297E-075
   111.043125000000         2.650113092766308E-074
   111.256875000000         6.540423503561045E-074
   111.470625000000         1.092883874174901E-073
   111.684375000000         1.508397803802277E-073
   111.898125000000         1.796108383881381E-073
   112.111875000000         1.828200356528932E-073
   112.325625000000         1.470833580000918E-073
   112.539375000000         6.114579004797637E-074
   112.753125000000        -8.051513648505377E-074
   112.966875000000        -2.736063423740698E-073
   113.180625000000        -5.001547713440542E-073
   113.394375000000        -7.258549786368616E-073
   113.608125000000        -8.998339853366668E-073
   113.821875000000        -9.580762214931510E-073
   114.035625000000        -8.315199865846054E-073
   114.249375000000        -4.592577350154718E-073
   114.463125000000         1.936908181140928E-073
   114.676875000000         1.115876136410338E-072
   114.890625000000         2.229557953859881E-072
   115.104375000000         3.376351048525706E-072
   115.318125000000         4.314339834867661E-072
   115.531875000000         4.732876626530060E-072
   115.745625000000         4.290217815902217E-072
   115.959375000000         2.676386945605561E-072
   116.173125000000        -3.010012551411686E-073
   116.386875000000        -4.616601953446440E-072
   116.600625000000        -9.928993648754065E-072
   116.814375000000        -1.550756754600274E-071
   117.028125000000        -2.021355052408483E-071
   117.241875000000        -2.256546496646081E-071
   117.455625000000        -2.091441756547822E-071
   117.669375000000        -1.374148803655723E-071
   117.883125000000        -6.725745606006110E-074
   118.096875000000         2.006704929920301E-071
   118.310625000000         4.512315993297968E-071
   118.524375000000         7.170578172512380E-071
   118.738125000000         9.445722639938302E-071
   118.951875000000         1.063520999599478E-070
   119.165625000000         9.951485826851001E-071
   119.379375000000         6.662138637521504E-071
   119.593125000000         2.840824345391490E-072
   119.806875000000        -9.187078102811903E-071
   120.020625000000        -2.104833870917828E-070
   120.234375000000        -3.371391455935722E-070
   120.448125000000        -4.465860002868488E-070
   120.661875000000        -5.054909312525038E-070
   120.875625000000        -4.762231971058341E-070
   121.089375000000        -3.234134998191266E-070
   121.303125000000        -2.310714856599281E-071
   121.516875000000         4.263463675826333E-070
   121.730625000000         9.933229633729000E-070
   121.944375000000         1.604324821919454E-069
   122.158125000000         2.140818903966232E-069
   122.371875000000         2.444787738741534E-069
   122.585625000000         2.335833770331986E-069
   122.799375000000         1.641403369994867E-069
   123.013125000000         2.394763151665135E-070
   123.226875000000        -1.890037836898493E-069
   123.440625000000        -4.612656366001120E-069
   123.654375000000        -7.596638863488699E-069
   123.868125000000        -1.029444297049004E-068