  -1.60312500000000         0.000000000000000E+000
  -1.38937500000000         0.000000000000000E+000
  -1.17562500000000         0.000000000000000E+000
 -0.961875000000000         0.000000000000000E+000
 -0.748125000000000         0.000000000000000E+000
 -0.534375000000000         0.000000000000000E+000
 -0.320625000000000         0.000000000000000E+000
 -0.106875000000000         0.000000000000000E+000
  0.106875000000000         0.000000000000000E+000
  0.320625000000000         0.000000000000000E+000
  0.534375000000000         0.000000000000000E+000
  0.748125000000000         0.000000000000000E+000
  0.961875000000000         0.000000000000000E+000
   1.17562500000000         0.000000000000000E+000
   1.38937500000000         0.000000000000000E+000
   1.60312500000000         0.000000000000000E+000
   1.81687500000000         0.000000000000000E+000
   2.03062500000000         0.000000000000000E+000
   2.24437500000000         0.000000000000000E+000
   2.45812500000000         0.000000000000000E+000
   2.67187500000000         0.000000000000000E+000
   2.88562500000000         0.000000000000000E+000
   3.09937500000000         0.000000000000000E+000
   3.31312500000000         0.000000000000000E+000
   3.52687500000000         0.000000000000000E+000
   3.74062500000000         0.000000000000000E+000
   3.95437500000000         0.000000000000000E+000
   4.16812500000000         0.000000000000000E+000
   4.38187500000000         0.000000000000000E+000
   4.59562500000000         0.000000000000000E+000
   4.80937500000000         0.000000000000000E+000
   5.02312500000000         0.000000000000000E+000
   5.23687500000000         0.000000000000000E+000
   5.45062500000000         0.000000000000000E+000
   5.66437500000000         0.000000000000000E+000
   5.87812500000000         0.000000000000000E+000
   6.09187500000000         0.000000000000000E+000
   6.30562500000000         0.000000000000000E+000
   6.51937500000000         0.000000000000000E+000
   6.73312500000000         0.000000000000000E+000
   6.94687500000000         0.000000000000000E+000
   7.16062500000000         0.000000000000000E+000
   7.37437500000000         0.000000000000000E+000
   7.58812500000000         0.000000000000000E+000
   7.80187500000000         0.000000000000000E+000
   8.01562500000000         0.000000000000000E+000
   8.22937500000000         0.000000000000000E+000
   8.44312500000000         0.000000000000000E+000
   8.65687500000000         0.000000000000000E+000
   8.87062500000000         0.000000000000000E+000
   9.08437500000000         0.000000000000000E+000
   9.29812500000000         0.000000000000000E+000
   9.51187500000000         0.000000000000000E+000
   9.72562500000000         0.000000000000000E+000
   9.93937500000000         0.000000000000000E+000
   10.1531250000000         0.000000000000000E+000
   10.3668750000000         2.360142602427628E-199
   10.5806250000000        -3.412928751545894E-193
   10.7943750000000        -5.675022849397753E-190
   11.0081250000000         1.512460110184970E-187
   11.2218750000000        -1.441700036849871E-186
   11.4356250000000        -1.919441827712476E-183
   11.6493750000000        -1.444619982143411E-181
   11.8631250000000        -5.761769903655262E-180
   12.0768750000000        -1.546348600323088E-178
   12.2906250000000        -3.074601453441958E-177
   12.5043750000000        -4.747142431351394E-176
   12.7181250000000        -5.795062026478735E-175
   12.9318750000000        -5.515274987325422E-174
   13.1456250000000        -3.738092080025632E-173
   13.3593750000000        -9.726268537949165E-173
   13.5731250000000         1.871323037126574E-171
   13.7868750000000         3.959264953027185E-170
   14.0006250000000         4.883143266784010E-169
   14.2143750000000         4.720891046279646E-168
   14.4281250000000         3.859242730914284E-167
   14.6418750000000         2.747477084119342E-166
   14.8556250000000         1.721953824641048E-165
   15.0693750000000         9.479537251048758E-165
   15.2831250000000         4.495166837453290E-164
   15.4968750000000         1.729016440936834E-163
   15.7106250000000         4.259879241927359E-163
   15.9243750000000        -6.302925138057814E-163
   16.1381250000000        -1.737413044639883E-161
   16.3518750000000        -1.473726186986216E-160
   16.5656250000000        -9.362287921316042E-160
   16.7793750000000        -5.037631506233474E-159
   16.9931250000000        -2.386038964109108E-158
   17.2068750000000        -1.005451018547230E-157
   17.4206250000000        -3.739950676582353E-157
   17.6343750000000        -1.185583549762085E-156
   17.8481250000000        -2.850978468328682E-156
   18.0618750000000        -2.311667406152772E-156
   18.2756250000000         2.783764090748011E-155
   18.4893750000000         2.412475075221048E-154
   18.7031250000000         1.344015214416060E-153
   18.9168750000000         6.182791525135767E-153
   19.1306250000000         2.507009674206059E-152
   19.3443750000000         9.176356777848915E-152
   19.5581250000000         3.052294774542628E-151
   19.7718750000000         9.172028973128290E-151
   19.9856250000000         2.431918260380532E-150
   20.1993750000000         5.318387499320328E-150
   20.4131250000000         7.304187034927388E-150
   20.6268750000000        -9.823919492595266E-150
   20.8406250000000        -1.318376498966267E-148
   21.0543750000000        -6.893166141393669E-148
   21.2681250000000        -2.810428640204551E-147
   21.4818750000000        -1.000999052982035E-146
   21.6956250000000        -3.242505722545569E-146
   21.9093750000000        -9.728279680533106E-146
   22.1231250000000        -2.727447260650687E-145
   22.3368750000000        -7.172282409925383E-145
   22.5506250000000        -1.768989392292302E-144
   22.7643750000000        -4.076688105585628E-144
   22.9781250000000        -8.699137643329643E-144
   23.1918750000000        -1.687103366355332E-143
   23.4056250000000        -2.853261966994625E-143
   23.6193750000000        -3.738398842193914E-143
   23.8331250000000        -1.761078760990104E-143
   24.0468750000000         1.069955977677678E-142
   24.2606250000000         5.270192930611090E-142
   24.4743750000000         1.666476185592191E-141
   24.6881250000000         4.381976404276548E-141
   24.9018750000000         1.026402568985938E-140
   25.1156250000000         2.206844242100368E-140
   25.3293750000000         4.440378643734934E-140
   25.5431250000000         8.525810430897501E-140
   25.7568750000000         1.604255519331380E-139
   25.9706250000000         3.066881146199859E-139
   26.1843750000000         6.175912212618121E-139
   26.3981250000000         1.328822270874916E-138
   26.6118750000000         2.993256895275697E-138
   26.8256250000000         6.772536895378495E-138
   27.0393750000000         1.475365651627508E-137
   27.2531250000000         2.978482698444245E-137
   27.4668750000000         5.322457817244958E-137
   27.6806250000000         7.653362465090962E-137
   27.8943750000000         5.786488944425629E-137
   28.1081250000000        -1.330921637503635E-136
   28.3218750000000        -8.291542457845646E-136
   28.5356250000000        -2.773428767995371E-135
   28.7493750000000        -7.444899375687528E-135
   28.9631250000000        -1.746001491615902E-134
   29.1768750000000        -3.681642959374863E-134
   29.3906250000000        -7.030692720910746E-134
   29.6043750000000        -1.205739930366558E-133
   29.8181250000000        -1.797949791208949E-133
   30.0318750000000        -2.107333801823669E-133
   30.2456250000000        -1.089536450371997E-133
   30.4593750000000         3.649217454388342E-133
   30.6731250000000         1.694905044277078E-132
   30.8868750000000         4.767313800026624E-132
   31.1006250000000         1.105905150621224E-131
   31.3143750000000         2.277537075366693E-131
   31.5281250000000         4.270349076332846E-131
   31.7418750000000         7.321034195001912E-131
   31.9556250000000         1.131121310899373E-130
   32.1693750000000         1.498038558989923E-130
   32.3831250000000         1.417449737708451E-130
   32.5968750000000        -1.687778762628201E-131
   32.8106250000000        -5.605730875117203E-130
   33.0243750000000        -1.955739768283493E-129
   33.2381250000000        -5.034425737759100E-129
   33.4518750000000        -1.109149988336162E-128
   33.6656250000000        -2.173421667203902E-128
   33.8793750000000        -3.798174434120464E-128
   34.0931250000000        -5.761520543819032E-128
   34.3068750000000        -6.910046710508002E-128
   34.5206250000000        -3.983512100549826E-128
   34.7343750000000         1.030957140753401E-127
   34.9481250000000         4.980037502957119E-127
   35.1618750000000         1.367624392498558E-126
   35.3756250000000         2.997519117836791E-126
   35.5893750000000         5.598014125579844E-126
   35.8031250000000         8.912279858251441E-126
   36.0168750000000         1.136616083778047E-125
   36.2306250000000         8.537137326971184E-126
   36.4443750000000        -9.120678916663044E-126
   36.6581250000000        -5.877597833298586E-125
   36.8718750000000        -1.660352665602374E-124
   37.0856250000000        -3.595078527001032E-124
   37.2993750000000        -6.503570543741560E-124
   37.5131250000000        -9.829015619925168E-124
   37.7268750000000        -1.138863482410602E-123
   37.9406250000000        -5.829168027099727E-124
   38.1543750000000         1.735716023208046E-123
   38.3681250000000         7.539635179153349E-123
   38.5818750000000         1.910726825876793E-122
   38.7956250000000         3.841207856986827E-122
   39.0093750000000         6.471452283452744E-122
   39.2231250000000         8.949182374814239E-122
   39.4368750000000         8.759924791852320E-122
   39.6506250000000         4.527423968023777E-123
   39.8643750000000        -2.573344207420476E-121
   40.0781250000000        -8.438093261037094E-121
   40.2918750000000        -1.923725077974231E-120
   40.5056250000000        -3.593629419353461E-120
   40.7193750000000        -5.651612643742546E-120
   40.9331250000000        -7.166583731883916E-120
   41.1468750000000        -5.790870926148365E-120
   41.3606250000000         3.131337414243541E-120
   41.5743750000000         2.734366694079652E-119
   41.7881250000000         7.751247960166103E-119
   42.0018750000000         1.644392012243010E-118
   42.2156250000000         2.908372881966983E-118
   42.4293750000000         4.337661586312488E-118
   42.6431250000000         5.136647159910348E-118
   42.8568750000000         3.485678741840124E-118
   43.0706250000000        -3.993730786328977E-118
   43.2843750000000        -2.259181962946826E-117
   43.4981250000000        -5.908735340872243E-117
   43.7118750000000        -1.194523107253137E-116
   43.9256250000000        -2.029899130252483E-116
   44.1393750000000        -2.907766501024020E-116
   44.3531250000000        -3.266059368146931E-116
   44.5668750000000        -1.908121655777119E-116
   44.7806250000000         3.269462663208432E-116
   44.9943750000000         1.538601004890247E-115
   45.2081250000000         3.816454304269239E-115
   45.4218750000000         7.438818579610213E-115
   45.6356250000000         1.223563601380648E-114
   45.8493750000000         1.693706590155959E-114
   46.0631250000000         1.816657782599916E-114
   46.2768750000000         9.161693632503474E-115
   46.4906250000000        -2.137540346890267E-114
   46.7043750000000        -8.932095873697294E-114
   46.9181250000000        -2.122253542152639E-113
   47.1318750000000        -4.005625843962787E-113
   47.3456250000000        -6.393599740475287E-113
   47.5593750000000        -8.565940127863035E-113
   47.7731250000000        -8.774546800599443E-113
   47.9868750000000        -3.711258657509728E-113
   48.2006250000000         1.188151869948079E-112
   48.4143750000000         4.499048036609459E-112
   48.6281250000000         1.026916814644011E-111
   48.8418750000000         1.879139026378209E-111
   49.0556250000000         2.912218286506739E-111
   49.2693750000000         3.775595392436702E-111
   49.4831250000000         3.683418877259390E-111
   49.6968750000000         1.226480838071546E-111
   49.9106250000000        -5.726199855957822E-111
   50.1243750000000        -1.984502368449044E-110
   50.3381250000000        -4.357026031435419E-110
   50.5518750000000        -7.734498561117224E-110
   50.7656250000000        -1.164240843175653E-109
   50.9793750000000        -1.460387241084263E-109
   51.1931250000000        -1.353198795684993E-109
   51.4068750000000        -3.166122663756227E-110
   51.6206250000000         2.406762132474189E-109
   51.8343750000000         7.709611073246933E-109
   52.0481250000000         1.631340364323231E-108
   52.2618750000000         2.812807244528117E-108
   52.4756250000000         4.116814284740545E-108
   52.6893750000000         5.000736946914788E-108
   52.9031250000000         4.397952969535631E-108
   53.1168750000000         5.749989270914664E-109
   53.3306250000000        -8.847737877073523E-108
   53.5443750000000        -2.650353746930535E-107
   53.7581250000000        -5.422696964159857E-107
   53.9718750000000        -9.101995706704377E-107
   54.1856250000000        -1.298048256039508E-106
   54.3993750000000        -1.530597296392085E-106
   54.6131250000000        -1.281305320105479E-106
   54.8268750000000        -4.200580962150035E-108
   55.0406250000000         2.854079505333463E-106
   55.2543750000000         8.099483520596791E-106
   55.4681250000000         1.609693335109886E-105
   55.6818750000000         2.638779596958566E-105
   55.8956250000000         3.678659009346090E-105
   56.1093750000000         4.228136780397518E-105
   56.3231250000000         3.394838950874586E-105
   56.5368750000000        -1.572203033960182E-106
   56.7506250000000        -8.109665634614201E-105
   56.9643750000000        -2.210488635815087E-104
   57.1781250000000        -4.291012101249291E-104
   57.3918750000000        -6.898367993594726E-104
   57.6056250000000        -9.440375411829768E-104
   57.8193750000000        -1.063728925875385E-103
   58.0331250000000        -8.296132240081772E-104
   58.2468750000000         7.579353602285302E-105
   58.4606250000000         2.037697762375570E-103
   58.6743750000000         5.411625102136979E-103
   58.8881250000000         1.032580192135106E-102
   59.1018750000000         1.635729304928600E-102
   59.3156250000000         2.208310803661326E-102
   59.5293750000000         2.456501669169643E-102
   59.7431250000000         1.892289634917773E-102
   59.9568750000000        -1.713595023624748E-103
   60.1706250000000        -4.542780062251909E-102
   60.3843750000000        -1.193305126336013E-101
   60.5981250000000        -2.253527082302129E-101
   60.8118750000000        -3.536054099340504E-101
   61.0256250000000        -4.734959458672999E-101
   61.2393750000000        -5.239608057050370E-101
   61.4531250000000        -4.060295443896326E-101
   61.6668750000000         1.658552681741238E-102
   61.8806250000000         9.004552203122145E-101
   62.0943750000000         2.378456219163272E-100
   62.3081250000000         4.478463774748997E-100
   62.5218750000000         6.998881062758095E-100
   62.7356250000000         9.346912938333586E-100
   62.9493750000000         1.036704016485878E-099
   63.1631250000000         8.219798437194069E-100
   63.3768750000000         4.128032181932035E-101
   63.5906250000000        -1.587059671224816E-099
   63.8043750000000        -4.297051449873621E-099
   64.0181250000000        -8.131439633192735E-099
   64.2318750000000        -1.272704885406467E-098
   64.4456250000000        -1.704225524168153E-098
   64.6593750000000        -1.907593725663185E-098
   64.8731250000000        -1.568011379847137E-098
   65.0868750000000        -2.633735897192478E-099
   65.3006250000000         2.479050879477927E-098
   65.5143750000000         7.049685672444482E-098
   65.7281250000000         1.352347506478201E-097
   65.9418750000000         2.131758074794972E-097
   66.1556250000000         2.876418833146025E-097
   66.3693750000000         3.267854397860280E-097
   66.5831250000000         2.808150388664520E-097
   66.7968750000000         8.330572272995469E-098
   67.0106250000000        -3.399728082210888E-097
   67.2243750000000        -1.050823128636741E-096
   67.4381250000000        -2.063661264638045E-096
   67.6518750000000        -3.294841170763680E-096
   67.8656250000000        -4.500144630634799E-096
   68.0793750000000        -5.212296559117638E-096
   68.2931250000000        -4.701387313729829E-096
   68.5068750000000        -1.993921559338328E-096
   68.7206250000000         4.002135753628146E-096
   68.9343750000000         1.421377296715904E-095
   69.1481250000000         2.891729057421399E-095
   69.3618750000000         4.703987608512164E-095
   69.5756250000000         6.530380215631869E-095
   69.7893750000000         7.737440079907033E-095
   70.0031250000000         7.331608287030029E-095
   70.2168750000000         3.982376923828404E-095
   70.4306250000000        -3.815946894127995E-095
   70.6443750000000        -1.737713496936469E-094
   70.8581250000000        -3.719648118047810E-094
   71.0718750000000        -6.205302689226655E-094
   71.2856250000000        -8.791195140862990E-094
   71.4993750000000        -1.068289948327339E-093
   71.7131250000000        -1.062324737274180E-093
   71.9268750000000        -6.915298212311742E-094
   72.1406250000000         2.386209954268448E-094
   72.3543750000000         1.903523077142500E-093
   72.5681250000000         4.384265614495543E-093
   72.7818750000000         7.559889032107164E-093
   72.9956250000000         1.097542648355999E-092
   73.2093750000000         1.370909447554054E-092
   73.4231250000000         1.428172675909605E-092
   73.6368750000000         1.067335749437987E-092
   73.8506250000000         5.302955585205214E-094
   74.0643750000000        -1.834768111971062E-092
   74.2781250000000        -4.716812467122332E-092
   74.4918750000000        -8.493820060943311E-092
   74.7056250000000        -1.269772532943847E-091
   74.9193750000000        -1.633996713295917E-091
   75.1331250000000        -1.780279858734118E-091
   75.3468750000000        -1.484263000978029E-091
   75.5606250000000        -4.793740877460099E-092
   75.7743750000000         1.493266749100157E-091
   75.9881250000000         4.597713727249428E-091
   76.2018750000000         8.776756382097490E-091
   76.4156250000000         1.359471697686244E-090
   76.6293750000000         1.807418802169144E-090
   76.8431250000000         2.057234915549044E-090
   77.0568750000000         1.876538862719973E-090
   77.2706250000000         9.828842090783627E-091
   77.4843750000000        -9.091254185810953E-091
   77.6981250000000        -4.003791735716221E-090
   77.9118750000000        -8.300747321187142E-090
   78.1256250000000        -1.343919534023581E-089
   78.3393750000000        -1.853243087537875E-089
   78.5531250000000        -2.203469507455802E-089
   78.7668750000000        -2.170388730556864E-089
   78.9806250000000        -1.474203368692861E-089
   79.1943750000000         1.796984648777691E-090
   79.4081250000000         3.025609447509127E-089
   79.6218750000000         7.124868012112431E-089
   79.8356250000000         1.222121343924275E-088
   80.0493750000000         1.758282557916399E-088
   80.2631250000000         2.186693540926056E-088
   80.4768750000000         2.306193662686324E-088
   80.6906250000000         1.857867370176043E-088
   80.9043750000000         5.570662305176488E-089
   81.1181250000000        -1.844587389902266E-088
   81.3318750000000        -5.463626537046353E-088
   81.5456250000000        -1.015892824965210E-087
   81.7593750000000        -1.538973844376212E-087
   81.9731250000000        -2.008577475563829E-087
   82.1868750000000        -2.257363555846387E-087
   82.4006250000000        -2.061836736340528E-087
   82.6143750000000        -1.164738377447027E-087
   82.8281250000000         6.780470295947088E-088
   83.0418750000000         3.622229926243707E-087
   83.2556250000000         7.632752493659971E-087
   83.4693750000000         1.236370346670308E-086
   83.6831250000000         1.704084908448656E-086
   83.8968750000000         2.037983462330784E-086
   84.1106250000000         2.058535214303698E-086
   84.3243750000000         1.548480263835803E-086
   84.5381250000000         2.849475326407933E-087
   84.7518750000000        -1.905842066742140E-086
   84.9656250000000        -5.070860110557085E-086
   85.1793750000000        -9.034804953973016E-086
   85.3931250000000        -1.330009473584380E-085
   85.6068750000000        -1.696511437475732E-085
   85.8206250000000        -1.869332073419009E-085
   86.0343750000000        -1.677349424324721E-085
   86.2481250000000        -9.313729777580976E-086
   86.4618750000000         5.395215752562006E-086
   86.6756250000000         2.833182454737318E-085
   86.8893750000000         5.903213980536332E-085
   87.1031250000000         9.478953244504502E-085
   87.3168750000000         1.299093442498619E-084
   87.5306250000000         1.552368756336204E-084
   87.7443750000000         1.582445589859980E-084
   87.9581250000000         1.240028746835850E-084
   88.1718750000000         3.734300077327497E-085
   88.3856250000000        -1.135818947033369E-084
   88.5993750000000        -3.323418472595395E-084
   88.8131250000000        -6.082256512028886E-084
   89.0268750000000        -9.099911977592641E-084
   89.2406250000000        -1.180720814293465E-083
   89.4543750000000        -1.335684688638259E-083
   89.6681250000000        -1.265549390663949E-083
   89.8818750000000        -8.474108991749643E-084
   90.0956250000000         3.422412313900709E-085
   90.3093750000000         1.455451470442587E-083
   90.5231250000000         3.410870231457818E-083
   90.7368750000000         5.765170845009395E-083
   90.9506250000000         8.205964827499528E-083
   91.1643750000000         1.020964868854443E-082
   91.3781250000000         1.103612301694119E-082
   91.5918750000000         9.770952313300647E-083
   91.8056250000000         5.433663585457158E-083
   92.0193750000000        -2.833260582073357E-083
   92.2331250000000        -1.549011355788658E-082
   92.4468750000000        -3.225282486159060E-082
   92.6606250000000        -5.170961931516884E-082
   92.8743750000000        -7.096845576488828E-082
   93.0881250000000        -8.543521964093719E-082
   93.3018750000000        -8.885233837839811E-082
   93.5156250000000        -7.374508560589372E-082
   93.7293750000000        -3.241705674994433E-082
   93.9431250000000         4.140552621047221E-082
   94.1568750000000         1.502708453931683E-081
   94.3706250000000         2.901759098201337E-081
   94.5843750000000         4.475563829187766E-081
   94.7981250000000         5.966749028032009E-081
   95.0118750000000         6.982485014635899E-081
   95.2256250000000         7.003736976580266E-081
   95.4393750000000         5.429121545277461E-081
   95.6531250000000         1.663981041631685E-081
   95.8668750000000        -4.738791112851394E-081
   96.0806250000000        -1.388767438483713E-080
   96.2943750000000        -2.532519795993784E-080
   96.5081250000000        -3.779512919830773E-080
   96.7218750000000        -4.905460492458996E-080
   96.9356250000000        -5.580140902640740E-080
   97.1493750000000        -5.380193785779484E-080
   97.3631250000000        -3.831007343199779E-080
   97.5768750000000        -4.853724770725491E-081
   97.7906250000000         4.957353520173897E-080
   98.0043750000000         1.249498498884001E-079
   98.2181250000000         2.164319397778161E-079
   98.4318750000000         3.126090879961128E-079
   98.6456250000000         3.942363191319317E-079
   98.8593750000000         4.340247382409358E-079
   99.0731250000000         3.981651677086445E-079
   99.2868750000000         2.502602007173804E-079
   99.5006250000000        -4.181936148182381E-080
   99.7143750000000        -4.960120035255842E-079
   99.9281250000000        -1.103565072138809E-078
   100.141875000000        -1.815334338622351E-078
   100.355625000000        -2.529356811241086E-078
   100.569375000000        -3.083335819224659E-078
   100.783125000000        -3.256681160568496E-078
   100.996875000000        -2.787256462822992E-078
   101.210625000000        -1.407587694892789E-078
   101.424375000000         1.096462731836726E-078
   101.638125000000         4.805039442311803E-078
   101.851875000000         9.567567886276157E-078
   102.065625000000         1.490310614490908E-077
   102.279375000000         1.991931646481000E-077
   102.493125000000         2.327984718031859E-077
   102.706875000000         2.325598040252763E-077
   102.920625000000         1.789956066647174E-077
   103.134375000000         5.367322179644688E-078
   103.348125000000        -1.559130519348364E-077
   103.561875000000        -4.500224012170100E-077
   103.775625000000        -8.095509797822780E-077
   103.989375000000        -1.189324046724192E-076
   104.203125000000        -1.513603740927262E-076
   104.416875000000        -1.676141418911295E-076
   104.630625000000        -1.547375732076254E-076
   104.844375000000        -9.911908719748664E-077
   105.058125000000         1.072168707942722E-077
   105.271875000000         1.802547055088092E-076
   105.485625000000         4.042540684588915E-076
   105.699375000000         6.619462089906165E-076
   105.913125000000         9.130353230552882E-076
   106.126875000000         1.096036034128481E-075
   106.340625000000         1.130610303736910E-075
   106.554375000000         9.256217827456824E-076
   106.768125000000         3.942400839533867E-076
   106.981875000000        -5.234838932390225E-076
   107.195625000000        -1.831674661461863E-075
   107.409375000000        -3.446542823401427E-075
   107.623125000000        -5.166914503354912E-075
   107.836875000000        -6.655743200200000E-075
   108.050625000000        -7.443035823072707E-075
   108.264375000000        -6.961374872376135E-075
   108.478125000000        -4.623741347742991E-075
   108.691875000000         5.124398310660627E-077
   108.905625000000         7.269867278862444E-075
   109.119375000000         1.676500578221833E-074
   109.333125000000         2.759947892513515E-074
   109.546875000000         3.801787904016152E-074
   109.760625000000         4.540782917456145E-074
   109.974375000000         4.643909134458382E-074
   110.188125000000         3.744438813361414E-074
   110.401875000000         1.508377243293242E-074
   110.615625000000        -2.270933742428784E-074
   110.829375000000        -7.556910477274588E-074
   111.043125000000        -1.394803004699692E-073
   111.256875000000        -2.057548279675643E-073
   111.470625000000        -2.605420048378234E-073
   111.684375000000        -2.852693917229668E-073
   111.898125000000        -2.584048434151262E-073
   112.111875000000        -1.588300597824850E-073
   112.325625000000         2.910489514283732E-074
   112.539375000000         3.091294574487636E-073
   112.753125000000         6.659577389587692E-073
   112.966875000000         1.058848343157936E-072
   113.180625000000         1.417640009780476E-072
   113.394375000000         1.643458287379411E-072
   113.608125000000         1.616348427357386E-072
   113.821875000000         1.211660083276384E-072
   114.035625000000         3.259382688711005E-073
   114.249375000000        -1.088718415266496E-072
   114.463125000000        -2.985341716076698E-072
   114.676875000000        -5.184251794958776E-072
   114.890625000000        -7.346052865267049E-072
   115.104375000000        -8.967101268874673E-072
   115.318125000000        -9.409838592992596E-072
   115.531875000000        -7.978692486300239E-072
   115.745625000000        -4.047270912181611E-072
   115.959375000000         2.766192849752412E-072
   116.173125000000         1.239063489376370E-071
   116.386875000000         2.409180437909171E-071
   116.600625000000         3.630604019854608E-071
   116.814375000000         4.657741171514388E-071
   117.028125000000         5.166339937558139E-071
   117.241875000000         4.786845605601095E-071
   117.455625000000         3.164273692584754E-071
   117.669375000000         4.420864321646455E-073
   117.883125000000        -4.621499775929014E-071
   118.096875000000        -1.056329551512591E-070
   118.310625000000        -1.709872693091450E-070
   118.524375000000        -2.308251374016461E-070
   118.738125000000        -2.693478453802292E-070
   118.951875000000        -2.677885482405197E-070
   119.165625000000        -2.071066023787976E-070
   119.379375000000        -7.203386993932547E-071
   119.593125000000         1.437733912821110E-070
   119.806875000000         4.320842278505149E-070
   120.020625000000         7.649485565157653E-070
   120.234375000000         1.091425564591153E-069
   120.448125000000         1.337784050577107E-069
   120.661875000000         1.412763294469410E-069
   120.875625000000         1.219119229316808E-069
   121.089375000000         6.718794590390323E-070
   121.303125000000        -2.775347802218699E-070
   121.516875000000        -1.613828606498952E-069
   121.730625000000        -3.231393479731446E-069
   121.944375000000        -4.915106600883408E-069
   122.158125000000        -6.335850499832321E-069
   122.371875000000        -7.068479552743664E-069
   122.585625000000        -6.638646821541821E-069
   122.799375000000        -4.601609738971484E-069
   123.013125000000        -6.506736850810971E-070
   123.226875000000         5.254488714488413E-069
   123.440625000000         1.275807038400612E-068
   123.654375000000         2.100394675254370E-068
   123.868125000000         2.859077783551358E-068