  -1.60312500000000         0.000000000000000E+000
  -1.38937500000000         0.000000000000000E+000
  -1.17562500000000         0.000000000000000E+000
 -0.961875000000000         0.000000000000000E+000
 -0.748125000000000         0.000000000000000E+000
 -0.534375000000000         0.000000000000000E+000
 -0.320625000000000         0.000000000000000E+000
 -0.106875000000000         0.000000000000000E+000
  0.106875000000000         0.000000000000000E+000
  0.320625000000000         0.000000000000000E+000
  0.534375000000000         0.000000000000000E+000
  0.748125000000000         0.000000000000000E+000
  0.961875000000000         0.000000000000000E+000
   1.17562500000000         0.000000000000000E+000
   1.38937500000000         0.000000000000000E+000
   1.60312500000000         0.000000000000000E+000
   1.81687500000000         0.000000000000000E+000
   2.03062500000000         0.000000000000000E+000
   2.24437500000000         0.000000000000000E+000
   2.45812500000000         0.000000000000000E+000
   2.67187500000000         0.000000000000000E+000
   2.88562500000000         0.000000000000000E+000
   3.09937500000000         0.000000000000000E+000
   3.31312500000000         0.000000000000000E+000
   3.52687500000000         0.000000000000000E+000
   3.74062500000000         0.000000000000000E+000
   3.95437500000000         0.000000000000000E+000
   4.16812500000000         0.000000000000000E+000
   4.38187500000000         0.000000000000000E+000
   4.59562500000000         0.000000000000000E+000
   4.80937500000000         0.000000000000000E+000
   5.02312500000000         0.000000000000000E+000
   5.23687500000000         0.000000000000000E+000
   5.45062500000000         0.000000000000000E+000
   5.66437500000000         0.000000000000000E+000
   5.87812500000000         0.000000000000000E+000
   6.09187500000000         0.000000000000000E+000
   6.30562500000000         0.000000000000000E+000
   6.51937500000000         0.000000000000000E+000
   6.73312500000000         0.000000000000000E+000
   6.94687500000000         0.000000000000000E+000
   7.16062500000000         0.000000000000000E+000
   7.37437500000000         0.000000000000000E+000
   7.58812500000000         0.000000000000000E+000
   7.80187500000000         0.000000000000000E+000
   8.01562500000000         0.000000000000000E+000
   8.22937500000000         0.000000000000000E+000
   8.44312500000000         0.000000000000000E+000
   8.65687500000000         0.000000000000000E+000
   8.87062500000000         0.000000000000000E+000
   9.08437500000000         0.000000000000000E+000
   9.29812500000000         0.000000000000000E+000
   9.51187500000000         0.000000000000000E+000
   9.72562500000000         0.000000000000000E+000
   9.93937500000000         0.000000000000000E+000
   10.1531250000000         6.972026019941476E-199
   10.3668750000000        -8.758083389845069E-192
   10.5806250000000        -1.882887018885475E-188
   10.7943750000000        -1.217581183773968E-186
   11.0081250000000        -1.712219890516636E-184
   11.2218750000000        -2.055005970270513E-182
   11.4356250000000        -1.256293356468542E-180
   11.6493750000000        -4.805569660860014E-179
   11.8631250000000        -1.313201509711267E-177
   12.0768750000000        -2.774029094802412E-176
   12.2906250000000        -4.769998935577021E-175
   12.5043750000000        -6.929524592400352E-174
   12.7181250000000        -8.756385690612161E-173
   12.9318750000000        -9.863358466811644E-172
   13.1456250000000        -1.011868607848269E-170
   13.3593750000000        -9.632292593526300E-170
   13.5731250000000        -8.637835060187805E-169
   13.7868750000000        -7.373809745743446E-168
   14.0006250000000        -6.024009704546338E-167
   14.2143750000000        -4.713235083830874E-166
   14.4281250000000        -3.524219955732438E-165
   14.6418750000000        -2.510149883028316E-164
   14.8556250000000        -1.697790215721098E-163
   15.0693750000000        -1.087958663596733E-162
   15.2831250000000        -6.595798482516221E-162
   15.4968750000000        -3.780451692279033E-161
   15.7106250000000        -2.048004185244675E-160
   15.9243750000000        -1.048553318913975E-159
   16.1381250000000        -5.072693321858225E-159
   16.3518750000000        -2.317524771633817E-158
   16.5656250000000        -9.985886753908984E-158
   16.7793750000000        -4.048070073800457E-157
   16.9931250000000        -1.536985570349485E-156
   17.2068750000000        -5.422337404934979E-156
   17.4206250000000        -1.751185380600779E-155
   17.6343750000000        -5.020306393792302E-155
   17.8481250000000        -1.181220404374795E-154
   18.0618750000000        -1.640008223719605E-154
   18.2756250000000         3.758110560603253E-154
   18.4893750000000         4.545614214574029E-153
   18.7031250000000         2.567658453126938E-152
   18.9168750000000         1.153518451291430E-151
   19.1306250000000         4.558192543373862E-151
   19.3443750000000         1.644077352333189E-150
   19.5581250000000         5.506811213346816E-150
   19.7718750000000         1.728008501077919E-149
   19.9856250000000         5.101866413773689E-149
   20.1993750000000         1.419200048024823E-148
   20.4131250000000         3.715592403908009E-148
   20.6268750000000         9.122120064724673E-148
   20.8406250000000         2.085150527562731E-147
   21.0543750000000         4.380411326167653E-147
   21.2681250000000         8.250676269542298E-147
   21.4818750000000         1.319027053467835E-146
   21.6956250000000         1.508852012056318E-146
   21.9093750000000         2.892495691368032E-148
   22.1231250000000        -6.486388709545308E-146
   22.3368750000000        -2.464601511738199E-145
   22.5506250000000        -6.436329773299876E-145
   22.7643750000000        -1.344364825650755E-144
   22.9781250000000        -2.303650460798070E-144
   23.1918750000000        -3.259380231908396E-144
   23.4056250000000        -4.507373433396859E-144
   23.6193750000000        -1.166144725665524E-143
   23.8331250000000        -5.358326930156847E-143
   24.0468750000000        -2.358975926826948E-142
   24.2606250000000        -8.756637184560861E-142
   24.4743750000000        -2.789375704835392E-141
   24.6881250000000        -7.795970531767063E-141
   24.9018750000000        -1.931715668720040E-140
   25.1156250000000        -4.227867504697084E-140
   25.3293750000000        -7.965399951295806E-140
   25.5431250000000        -1.187922457130946E-139
   25.7568750000000        -9.273145970152910E-140
   25.9706250000000         2.103519275764867E-139
   26.1843750000000         1.328176319404692E-138
   26.3981250000000         4.428632963798805E-138
   26.6118750000000         1.170180463695066E-137
   26.8256250000000         2.658176064874198E-137
   27.0393750000000         5.301044906746025E-137
   27.2531250000000         9.192539422456674E-137
   27.4668750000000         1.315035745656249E-136
   27.6806250000000         1.256919122865271E-136
   27.8943750000000        -4.554132843783909E-137
   28.1081250000000        -6.377862641058899E-136
   28.3218750000000        -2.115749719542704E-135
   28.5356250000000        -5.195038434198043E-135
   28.7493750000000        -1.074075887852948E-134
   28.9631250000000        -1.929704307999702E-134
   29.1768750000000        -2.985404823619847E-134
   29.3906250000000        -3.724823719760683E-134
   29.6043750000000        -2.737623156803759E-134
   29.8181250000000         3.072237740279149E-134
   30.0318750000000         1.966374234366760E-133
   30.2456250000000         5.736220859949948E-133
   30.4593750000000         1.321725970645752E-132
   30.6731250000000         2.650553044368153E-132
   30.8868750000000         4.739113203211914E-132
   31.1006250000000         7.453889295700392E-132
   31.3143750000000         9.589470620217861E-132
   31.5281250000000         7.128398449182448E-132
   31.7418750000000        -1.020890574517795E-131
   31.9556250000000        -6.472806242230542E-131
   32.1693750000000        -1.980409231609720E-130
   32.3831250000000        -4.744721675657640E-130
   32.5968750000000        -9.642694054521377E-130
   32.8106250000000        -1.669337554852772E-129
   33.0243750000000        -2.322336591796276E-129
   33.2381250000000        -1.957729436189016E-129
   33.4518750000000         1.839904480896792E-129
   33.6656250000000         1.396378061442334E-128
   33.8793750000000         4.258490062156914E-128
   34.0931250000000         9.817136825098107E-128
   34.3068750000000         1.872513999483915E-127
   34.5206250000000         2.946505807075823E-127
   34.7343750000000         3.452430506895970E-127
   34.9481250000000         1.368577342135760E-127
   35.1618750000000        -7.529357105016826E-127
   35.3756250000000        -3.048974277997099E-126
   35.5893750000000        -7.736230581662778E-126
   35.8031250000000        -1.564451858358343E-125
   36.0168750000000        -2.622024095570681E-125
   36.2306250000000        -3.486315663723012E-125
   36.4443750000000        -2.823311964086634E-125
   36.6581250000000         2.239970233680764E-125
   36.8718750000000         1.676251967275370E-124
   37.0856250000000         4.795478219977069E-124
   37.2993750000000         1.030068404699544E-123
   37.5131250000000         1.822005704611990E-123
   37.7268750000000         2.636085703892579E-123
   37.9406250000000         2.755936135403156E-123
   38.1543750000000         5.646911426355989E-124
   38.3681250000000        -6.891014369173384E-123
   38.5818750000000        -2.404710140310423E-122
   38.7956250000000        -5.595033291810506E-122
   39.0093750000000        -1.050496378378931E-121
   39.2231250000000        -1.636901186086745E-121
   39.4368750000000        -2.001058368814384E-121
   39.6506250000000        -1.368517386898581E-121
   39.8643750000000         1.750909216379487E-121
   40.0781250000000         9.732909344297456E-121
   40.2918750000000         2.560144513822598E-120
   40.5056250000000         5.178386511568989E-120
   40.7193750000000         8.692092851592063E-120
   40.9331250000000         1.195735866362957E-119
   41.1468750000000         1.179613431717128E-119
   41.3606250000000         1.640882414227786E-120
   41.5743750000000        -2.969129403093343E-119
   41.7881250000000        -9.787513409492021E-119
   42.0018750000000        -2.191623902975040E-118
   42.2156250000000        -3.986525498019261E-118
   42.4293750000000        -6.053501713540491E-118
   42.6431250000000        -7.288725934667313E-118
   42.8568750000000        -5.173452713591917E-118
   43.0706250000000         4.904853764539280E-118
   43.2843750000000         2.997943428294098E-117
   43.4981250000000         7.859715905410666E-117
   43.7118750000000         1.571405078534359E-116
   43.9256250000000         2.611668645101557E-116
   44.1393750000000         3.593198975153560E-116
   44.3531250000000         3.685137680803807E-116
   44.5668750000000         1.231699835910496E-116
   44.7806250000000        -6.496007940758717E-116
   44.9943750000000        -2.320761748078340E-115
   45.2081250000000        -5.264097649937227E-115
   45.4218750000000        -9.595476911634273E-115
   45.6356250000000        -1.464914022968197E-114
   45.8493750000000        -1.811333586317189E-114
   46.0631250000000        -1.485406911445291E-114
   46.2768750000000         4.282012588456668E-115
   46.4906250000000         5.290117767629341E-114
   46.7043750000000         1.471831282773002E-113
   46.9181250000000         2.991792876090713E-113
   47.1318750000000         5.019547028967697E-113
   47.3456250000000         7.033100914339281E-113
   47.5593750000000         7.671538291769611E-113
   47.7731250000000         4.282117082096274E-113
   47.9868750000000        -7.409569308262792E-113
   48.2006250000000        -3.309975175641874E-112
   48.4143750000000        -7.847883444999093E-112
   48.6281250000000        -1.455830757432511E-111
   48.8418750000000        -2.258159684710563E-111
   49.0556250000000        -2.889323115677708E-111
   49.2693750000000        -2.687272707392261E-111
   49.4831250000000        -4.933029635126640E-112
   49.6968750000000         5.385432566501148E-111
   49.9106250000000         1.694234306655982E-110
   50.1243750000000         3.570690242378612E-110
   50.3381250000000         6.112862479306622E-110
   50.5518750000000         8.783187950130420E-110
   50.7656250000000         1.017336491678204E-109
   50.9793750000000         7.567660513380599E-110
   51.1931250000000        -3.355347963820090E-110
   51.4068750000000        -2.831093174631428E-109
   51.6206250000000        -7.308530439675276E-109
   51.8343750000000        -1.402965649055924E-108
   52.0481250000000        -2.234064966481299E-108
   52.2618750000000        -2.975559131064357E-108
   52.4756250000000        -3.079982187322013E-108
   52.6893750000000        -1.593111426387734E-108
   52.9031250000000         2.875397698941120E-108
   53.1168750000000         1.197985549291536E-107
   53.3306250000000         2.708715549961793E-107
   53.5443750000000         4.813787289600274E-107
   53.7581250000000         7.175330152299734E-107
   53.9718750000000         8.860803835411351E-107
   54.1856250000000         8.050642869791770E-107
   54.3993750000000         1.833059373583357E-107
   54.6131250000000        -1.369177535817208E-106
   54.8268750000000        -4.265173244979579E-106
   55.0406250000000        -8.753830649692993E-106
   55.2543750000000        -1.457896808022484E-105
   55.4681250000000        -2.046048167963302E-105
   55.6818750000000        -2.344046887718393E-105
   55.8956250000000        -1.825662430945209E-105
   56.1093750000000         2.905800560769825E-106
   56.3231250000000         4.968718266233429E-105
   56.5368750000000         1.310077614592912E-104
   56.7506250000000         2.497274629397631E-104
   56.9643750000000         3.937257918948640E-104
   57.1781250000000         5.234194563842382E-104
   57.3918750000000         5.574918835140515E-104
   57.6056250000000         3.615992491617470E-104
   57.8193750000000        -2.509402753191050E-104
   58.0331250000000        -1.492532019246139E-103
   58.2468750000000        -3.530727937918454E-103
   58.4606250000000        -6.355299614114504E-103
   58.6743750000000        -9.572445135359505E-103
   58.8881250000000        -1.213746081157076E-102
   59.1018750000000        -1.207883612360803E-102
   59.3156250000000        -6.331387178913772E-103
   59.5293750000000         9.119910319137175E-103
   59.7431250000000         3.849680764242414E-102
   59.9568750000000         8.454314134538850E-102
   60.1706250000000         1.455970329987645E-101
   60.3843750000000         2.113390624371831E-101
   60.5981250000000         2.576359780595919E-101
   60.8118750000000         2.417636194005164E-101
   61.0256250000000         1.005354861541977E-101
   61.2393750000000        -2.446495755105929E-101
   61.4531250000000        -8.704798828367947E-101
   61.6668750000000        -1.816287622280851E-100
   61.8806250000000        -3.026182190783335E-100
   62.0943750000000        -4.269451598758415E-100
   62.3081250000000        -5.049920591443330E-100
   62.5218750000000        -4.530956188187944E-100
   62.7356250000000        -1.524343747502339E-100
   62.9493750000000         5.384956603660761E-100
   63.1631250000000         1.748769725357356E-099
   63.3768750000000         3.528236017740482E-099
   63.5906250000000         5.743701950262239E-099
   63.8043750000000         7.942489030612754E-099
   64.0181250000000         9.205542220223739E-099
   64.2318750000000         8.039094973311254E-099
   64.4456250000000         2.387932052419122E-099
   64.6593750000000        -1.011189924254363E-098
   64.8731250000000        -3.150063746275579E-098
   65.0868750000000        -6.235336955590973E-098
   65.3006250000000        -1.000734258230425E-097
   65.5143750000000        -1.367314031537501E-097
   65.7281250000000        -1.568475404358180E-097
   65.9418750000000        -1.359264807472260E-097
   66.1556250000000        -4.104965638992841E-098
   66.3693750000000         1.646982700384052E-097
   66.5831250000000         5.119509588944887E-097
   66.7968750000000         1.007210634394626E-096
   67.0106250000000         1.606943889649555E-096
   67.2243750000000         2.185728657978911E-096
   67.4381250000000         2.504791988761436E-096
   67.6518750000000         2.193105587524928E-096
   67.8656250000000         7.599323477860404E-097
   68.0793750000000        -2.336324257950235E-096
   68.2931250000000        -7.535833424130617E-096
   68.5068750000000        -1.492007770517601E-095
   68.7206250000000        -2.384670112781072E-095
   68.9343750000000        -3.251019879004413E-095
   69.1481250000000        -3.751986394330807E-095
   69.3618750000000        -3.366318066236704E-095
   69.5756250000000        -1.410817815078648E-095
   69.7893750000000         2.863079536714489E-095
   70.0031250000000         1.006209267427161E-094
   70.2168750000000         2.030762966700701E-094
   70.4306250000000         3.275586465354198E-094
   70.6443750000000         4.502895418310429E-094
   70.8581250000000         5.267796236265533E-094
   71.0718750000000         4.889254095512518E-094
   71.2856250000000         2.477411725412501E-094
   71.4993750000000        -2.943071375372716E-094
   71.7131250000000        -1.217278855541810E-093
   71.9268750000000        -2.541138213161694E-093
   72.1406250000000        -4.166804117531746E-093
   72.3543750000000        -5.806913957584121E-093
   72.5681250000000        -6.920948070552389E-093
   72.7818750000000        -6.680249156962631E-093
   72.9956250000000        -3.999884171978848E-093
   73.2093750000000         2.317151178908723E-093
   73.4231250000000         1.327740367408010E-092
   73.6368750000000         2.920450058284046E-092
   73.8506250000000         4.906175164853900E-092
   74.0643750000000         6.965966926262827E-092
   74.2781250000000         8.491295185523141E-092
   74.4918750000000         8.542908952287499E-092
   74.7056250000000         5.883139143492735E-092
   74.9193750000000        -8.693780063252954E-093
   75.1331250000000        -1.291372488425148E-091
   75.3468750000000        -3.073657518767694E-091
   75.5606250000000        -5.338405022908090E-091
   75.7743750000000        -7.760945928338928E-091
   75.9881250000000        -9.706817972040175E-091
   76.2018750000000        -1.018500215248483E-090
   76.4156250000000        -7.875949748263856E-091
   76.6293750000000        -1.283858134169792E-091
   76.8431250000000         1.093789292033551E-090
   77.0568750000000         2.945538104092993E-090
   77.2706250000000         5.352263452900284E-090
   77.4843750000000         8.012164107087174E-090
   77.6981250000000         1.031389811157071E-089
   77.9118750000000         1.128571344588601E-089
   78.1256250000000         9.615096728190861E-090
   78.3393750000000         3.785741275117370E-090
   78.5531250000000        -7.622012149328400E-090
   78.7668750000000        -2.543608335162897E-089
   78.9806250000000        -4.920693695104536E-089
   79.1943750000000        -7.639480057509534E-089
   79.4081250000000        -1.015770018178509E-088
   79.6218750000000        -1.159227993459786E-088
   79.8356250000000        -1.072820949568167E-088
   80.0493750000000        -6.130239022689901E-089
   80.2631250000000         3.601632733942022E-089
   80.4768750000000         1.940457689119852E-088
   80.6906250000000         4.115463217512556E-088
   80.9043750000000         6.694891936022818E-088
   81.1181250000000         9.238922850904609E-088
   81.3318750000000         1.100708162437348E-087
   81.5456250000000         1.095620862502562E-087
   81.7593750000000         7.821760986053263E-088
   81.9731250000000         3.165911816567561E-089
   82.1868750000000        -1.252836139598860E-087
   82.4006250000000        -3.087998888189661E-087
   82.6143750000000        -5.351262886154673E-087
   82.8281250000000        -7.720217957744894E-087
   83.0418750000000        -9.625949140432599E-087
   83.2556250000000        -1.024211611021161E-086
   83.4693750000000        -8.536097132870200E-087
   83.6831250000000        -3.408828711770050E-087
   83.8968750000000         6.056666987683749E-087
   84.1106250000000         2.023424526949980E-086
   84.3243750000000         3.850461234098233E-086
   84.5381250000000         5.877802054594415E-086
   84.7518750000000         7.709705589213170E-086
   84.9656250000000         8.747262209387564E-086
   85.1793750000000         8.214018264315947E-086
   85.3931250000000         5.242965093061494E-086
   85.6068750000000        -9.597067611134014E-087
   85.8206250000000        -1.086889309646353E-085
   86.0343750000000        -2.432526083373240E-085
   86.2481250000000        -4.018743963866921E-085
   86.4618750000000        -5.601871671553156E-085
   86.6756250000000        -6.790576529859578E-085
   86.8893750000000        -7.053095096437040E-085
   87.1031250000000        -5.762773016581433E-085
   87.3168750000000        -2.292977010355774E-085
   87.5306250000000         3.833147494800513E-085
   87.7443750000000         1.274255887613525E-084
   87.9581250000000         2.398063916691179E-084
   88.1718750000000         3.628435951950602E-084
   88.3856250000000         4.741524889682419E-084
   88.5993750000000         5.412284153080839E-084
   88.8131250000000         5.231716989930566E-084
   89.0268750000000         3.752326625448926E-084
   89.2406250000000         5.666157009701277E-085
   89.4543750000000        -4.581228484495693E-084
   89.6681250000000        -1.165736316372039E-083
   89.8818750000000        -2.018989104983317E-083
   90.0956250000000        -2.913578912098934E-083
   90.3093750000000        -3.679818080864927E-083
   90.5231250000000        -4.083549301711623E-083
   90.7368750000000        -3.840544991122141E-083
   90.9506250000000        -2.648083884102554E-083
   91.1643750000000        -2.358746014358101E-084
   91.3781250000000         3.564031481715075E-083
   91.5918750000000         8.732173303556305E-083
   91.8056250000000         1.496951568727166E-082
   92.0193750000000         2.161085877425492E-082
   92.2331250000000         2.756104201227431E-082
   92.4468750000000         3.127513020825239E-082
   92.6606250000000         3.080662004752313E-082
   92.8743750000000         2.394889040361688E-082
   93.0881250000000         8.493995210368239E-083
   93.3018750000000        -1.737144663067473E-082
   93.5156250000000        -5.452250534782626E-082
   93.7293750000000        -1.022094411173609E-081
   93.9431250000000        -1.572594025333516E-081
   94.1568750000000        -2.132368914062638E-081
   94.3706250000000        -2.596905134576207E-081
   94.5843750000000        -2.816893820061033E-081
   94.7981250000000        -2.599440337669564E-081
   95.0118750000000        -1.719020696417065E-081
   95.2256250000000         5.716407139934178E-083
   95.4393750000000         2.924642675531983E-081
   95.6531250000000         6.974174470591019E-081
   95.8668750000000         1.210042211535805E-080
   96.0806250000000         1.789136007229929E-080
   96.2943750000000         2.351145625992927E-080
   96.5081250000000         2.760314145786395E-080
   96.7218750000000         2.824462884978563E-080
   96.9356250000000         2.301552299501899E-080
   97.1493750000000         9.230999390374674E-081
   97.3631250000000        -1.559491269972462E-080
   97.5768750000000        -5.301312567794983E-080
   97.7906250000000        -1.026269154940127E-079
   98.0043750000000        -1.608692389085895E-079
   98.2181250000000        -2.197368949651943E-079
   98.4318750000000        -2.657743830314744E-079
   98.6456250000000        -2.797349648473141E-079
   98.8593750000000        -2.374599231091031E-079
   99.0731250000000        -1.125651137407410E-079
   99.2868750000000         1.185493885001333E-079
   99.5006250000000         4.691060221830864E-079
   99.7143750000000         9.320015331981460E-079
   99.9281250000000         1.468479773015637E-078
   100.141875000000         1.997378880943831E-078
   100.355625000000         2.388008416557422E-078
   100.569375000000         2.460734686893840E-078
   100.783125000000         1.999983925034601E-078
   100.996875000000         7.842077926915164E-079
   101.210625000000        -1.364058265651175E-078
   101.424375000000        -4.507987617054904E-078
   101.638125000000        -8.511025535572973E-078
   101.851875000000        -1.294792511486894E-077
   102.065625000000        -1.703193995583420E-077
   102.279375000000        -1.958576226151235E-077
   102.493125000000        -1.908960308340380E-077
   102.706875000000        -1.384082697148253E-077
   102.920625000000        -2.252681517233004E-078
   103.134375000000         1.669804884980673E-077
   103.348125000000         4.289517407184683E-077
   103.561875000000         7.444305694087666E-077
   103.775625000000         1.070793503945579E-076
   103.989375000000         1.338125079009861E-076
   104.203125000000         1.450009850388443E-076
   104.416875000000         1.291090694246042E-076
   104.630625000000         7.434562764528078E-077
   104.844375000000        -2.870282225134867E-077
   105.058125000000        -1.835088623040394E-076
   105.271875000000        -3.834340414865380E-076
   105.485625000000        -6.076020575999861E-076
   105.699375000000        -8.178190009840009E-076
   105.913125000000        -9.578541073153630E-076
   106.126875000000        -9.565613801611851E-076
   106.340625000000        -7.362275276864406E-076
   106.554375000000        -2.270536176657511E-076
   106.768125000000         6.122786813881811E-076
   106.981875000000         1.769472648170110E-075
   107.195625000000         3.152335080526907E-075
   107.409375000000         4.566893794853234E-075
   107.623125000000         5.707416279227187E-075
   107.836875000000         6.167063013255452E-075
   108.050625000000         5.477733512136462E-075
   108.264375000000         3.185371193041950E-075
   108.478125000000        -1.037997753362257E-075
   108.691875000000        -7.252154142634932E-075
   108.905625000000        -1.509372881965621E-074
   109.119375000000        -2.363769217434205E-074
   109.333125000000        -3.131609623830388E-074
   109.546875000000        -3.594282191479520E-074
   109.760625000000        -3.489372821205457E-074
   109.974375000000        -2.548099396576751E-074
   110.188125000000        -5.535253471957947E-075
   110.401875000000         2.583224834669285E-074
   110.615625000000         6.737142185543439E-074
   110.829375000000         1.148883087518100E-073
   111.043125000000         1.607064381650053E-073
   111.256875000000         1.936544011457941E-073
   111.470625000000         1.998492288762977E-073
   111.684375000000         1.644969613348491E-073
   111.898125000000         7.480761467290180E-074
   112.111875000000        -7.608767342233047E-074
   112.325625000000        -2.846181183740745E-073
   112.539375000000        -5.323941391465394E-073
   112.753125000000        -7.830459237942602E-073
   112.966875000000        -9.816131809567270E-073
   113.180625000000        -1.057891546813549E-072
   113.394375000000        -9.349221379944155E-073
   113.608125000000        -5.432075856287471E-073
   113.821875000000         1.597988274902029E-073
   114.035625000000         1.166826868953635E-072
   114.249375000000         2.398153929119762E-072
   114.463125000000         3.684523675849848E-072
   114.676875000000         4.762262305838104E-072
   114.890625000000         5.287660613135363E-072
   115.104375000000         4.876682762591300E-072
   115.318125000000         3.173159246793812E-072
   115.531875000000        -5.642577535776709E-074
   115.745625000000        -4.810502177601169E-072
   115.959375000000        -1.073969373343482E-071
   116.173125000000        -1.705962315567720E-071
   116.386875000000        -2.252161963418223E-071
   116.600625000000        -2.547594290656443E-071
   116.814375000000        -2.405744298322985E-071
   117.028125000000        -1.650970156832298E-071
   117.241875000000        -1.639455067586874E-072
   117.455625000000         2.064088170737682E-071
   117.669375000000         4.876528680565649E-071
   117.883125000000         7.908429786142744E-071
   118.096875000000         1.057085786878122E-070
   118.310625000000         1.207923565518615E-070
   118.524375000000         1.154013250676102E-070
   118.738125000000         8.104401926274619E-071
   118.951875000000         1.183071782251934E-071
   119.165625000000        -9.293734171867312E-071
   119.379375000000        -2.261380910482306E-070
   119.593125000000        -3.707419120545827E-070
   119.806875000000        -4.990040033618116E-070
   120.020625000000        -5.737271685741598E-070
   120.234375000000        -5.522868144913822E-070
   120.448125000000        -3.938053465706003E-070
   120.661875000000        -6.932677618476064E-071
   120.875625000000         4.259121203119932E-070
   121.089375000000         1.059920581379746E-069
   121.303125000000         1.753824251232188E-069
   121.516875000000         2.377614296933082E-069
   121.730625000000         2.755505156343441E-069
   121.944375000000         2.684201030627679E-069
   122.158125000000         1.965995127069195E-069
   122.371875000000         4.561751260017624E-070
   122.585625000000        -1.879261681278755E-069
   122.799375000000        -4.903760129042042E-069
   123.013125000000        -8.260681185715463E-069
   123.226875000000        -1.135001796764359E-068
   123.440625000000        -1.334877433120516E-068
   123.654375000000        -1.329072889938929E-068
   123.868125000000        -1.021532624830810E-068