  -1.60312500000000         0.000000000000000E+000
  -1.38937500000000         0.000000000000000E+000
  -1.17562500000000         0.000000000000000E+000
 -0.961875000000000         0.000000000000000E+000
 -0.748125000000000         0.000000000000000E+000
 -0.534375000000000         0.000000000000000E+000
 -0.320625000000000         0.000000000000000E+000
 -0.106875000000000         0.000000000000000E+000
  0.106875000000000         0.000000000000000E+000
  0.320625000000000         0.000000000000000E+000
  0.534375000000000         0.000000000000000E+000
  0.748125000000000         0.000000000000000E+000
  0.961875000000000         0.000000000000000E+000
   1.17562500000000         0.000000000000000E+000
   1.38937500000000         0.000000000000000E+000
   1.60312500000000         0.000000000000000E+000
   1.81687500000000         0.000000000000000E+000
   2.03062500000000         0.000000000000000E+000
   2.24437500000000         0.000000000000000E+000
   2.45812500000000         0.000000000000000E+000
   2.67187500000000         0.000000000000000E+000
   2.88562500000000         0.000000000000000E+000
   3.09937500000000         0.000000000000000E+000
   3.31312500000000         0.000000000000000E+000
   3.52687500000000         0.000000000000000E+000
   3.74062500000000         0.000000000000000E+000
   3.95437500000000         0.000000000000000E+000
   4.16812500000000         0.000000000000000E+000
   4.38187500000000         0.000000000000000E+000
   4.59562500000000         0.000000000000000E+000
   4.80937500000000         0.000000000000000E+000
   5.02312500000000         0.000000000000000E+000
   5.23687500000000         0.000000000000000E+000
   5.45062500000000         0.000000000000000E+000
   5.66437500000000         0.000000000000000E+000
   5.87812500000000         0.000000000000000E+000
   6.09187500000000         0.000000000000000E+000
   6.30562500000000         0.000000000000000E+000
   6.51937500000000         0.000000000000000E+000
   6.73312500000000         0.000000000000000E+000
   6.94687500000000         0.000000000000000E+000
   7.16062500000000         0.000000000000000E+000
   7.37437500000000         0.000000000000000E+000
   7.58812500000000         0.000000000000000E+000
   7.80187500000000         0.000000000000000E+000
   8.01562500000000         0.000000000000000E+000
   8.22937500000000         0.000000000000000E+000
   8.44312500000000         0.000000000000000E+000
   8.65687500000000         0.000000000000000E+000
   8.87062500000000         0.000000000000000E+000
   9.08437500000000         0.000000000000000E+000
   9.29812500000000         0.000000000000000E+000
   9.51187500000000         0.000000000000000E+000
   9.72562500000000         0.000000000000000E+000
   9.93937500000000        -1.108240046008009E-217
   10.1531250000000        -1.973372495519772E-205
   10.3668750000000         6.010671662536685E-198
   10.5806250000000        -3.467788914593191E-194
   10.7943750000000         4.499527020656643E-191
   11.0081250000000        -8.581672811656062E-190
   11.2218750000000        -1.901886407103696E-187
   11.4356250000000        -1.038470790514393E-185
   11.6493750000000        -4.368531027078682E-184
   11.8631250000000        -1.523351201319608E-182
   12.0768750000000        -4.167654264625291E-181
   12.2906250000000        -8.791292920115604E-180
   12.5043750000000        -1.435844788379587E-178
   12.7181250000000        -1.806754204786386E-177
   12.9318750000000        -1.665452899582132E-176
   13.1456250000000        -8.609931051808933E-176
   13.3593750000000         4.472177103458914E-175
   13.5731250000000         1.855586895554970E-173
   13.7868750000000         2.930667101218671E-172
   14.0006250000000         3.414679039138781E-171
   14.2143750000000         3.301025458238197E-170
   14.4281250000000         2.771290387746740E-169
   14.6418750000000         2.069148070265978E-168
   14.8556250000000         1.394445160400035E-167
   15.0693750000000         8.572117315820352E-167
   15.2831250000000         4.848710276629706E-166
   15.4968750000000         2.545256527230281E-165
   15.7106250000000         1.252500178875055E-164
   15.9243750000000         5.855329484022851E-164
   16.1381250000000         2.647336579388614E-163
   16.3518750000000         1.182831496923837E-162
   16.5656250000000         5.329535867788904E-162
   16.7793750000000         2.447141392845452E-161
   16.9931250000000         1.139570938837466E-160
   17.2068750000000         5.290836768921737E-160
   17.4206250000000         2.398051999453852E-159
   17.6343750000000         1.041204174347530E-158
   17.8481250000000         4.265114251624883E-158
   18.0618750000000         1.626464911535548E-157
   18.2756250000000         5.687956311051629E-157
   18.4893750000000         1.782684970191598E-156
   18.7031250000000         4.778552944496225E-156
   18.9168750000000         9.577472087659883E-156
   19.1306250000000         5.014792231318966E-156
   19.3443750000000        -7.799953971715511E-155
   19.5581250000000        -5.349017069230896E-154
   19.7718750000000        -2.378628018841073E-153
   19.9856250000000        -8.397795746125115E-153
   20.1993750000000        -2.393348054340158E-152
   20.4131250000000        -4.915852247977307E-152
   20.6268750000000        -2.088171416768583E-152
   20.8406250000000         4.670531098913837E-151
   21.0543750000000         3.271228047498339E-150
   21.2681250000000         1.557241457853171E-149
   21.4818750000000         6.217825299277221E-149
   21.6956250000000         2.214460510425435E-148
   21.9093750000000         7.221679718782073E-148
   22.1231250000000         2.184642710803461E-147
   22.3368750000000         6.169874725879602E-147
   22.5506250000000         1.630464839046630E-146
   22.7643750000000         4.026979430620917E-146
   22.9781250000000         9.248963251700486E-146
   23.1918750000000         1.954090652988224E-145
   23.4056250000000         3.715198796112815E-145
   23.6193750000000         6.047565949255953E-145
   23.8331250000000         7.234092335490345E-145
   24.0468750000000         1.161964415826305E-145
   24.2606250000000        -2.842707636984209E-144
   24.4743750000000        -1.174167369478399E-143
   24.6881250000000        -3.323070701183504E-143
   24.9018750000000        -7.715247561264374E-143
   25.1156250000000        -1.527541790739555E-142
   25.3293750000000        -2.556634652480691E-142
   25.5431250000000        -3.408856732809730E-142
   25.7568750000000        -2.927692354949264E-142
   25.9706250000000         3.416193266853063E-143
   26.1843750000000         4.487420568673273E-142
   26.3981250000000        -9.545075836921746E-142
   26.6118750000000        -1.175594902729884E-140
   26.8256250000000        -5.490922683132930E-140
   27.0393750000000        -1.897375247308024E-139
   27.2531250000000        -5.526721999586507E-139
   27.4668750000000        -1.428163428226987E-138
   27.6806250000000        -3.358254520762286E-138
   27.8943750000000        -7.288650959254181E-138
   28.1081250000000        -1.472411880183851E-137
   28.3218750000000        -2.782147699788886E-137
   28.5356250000000        -4.927377493400246E-137
   28.7493750000000        -8.168267838629372E-137
   28.9631250000000        -1.256625673071788E-136
   29.1768750000000        -1.744815170462990E-136
   29.3906250000000        -1.988347757836308E-136
   29.6043750000000        -1.045033046859309E-136
   29.8181250000000         3.786901445638321E-136
   30.0318750000000         1.965227179542532E-135
   30.2456250000000         6.403135731996970E-135
   30.4593750000000         1.763308594361027E-134
   30.6731250000000         4.377875179922897E-134
   30.8868750000000         9.994418432036500E-134
   31.1006250000000         2.107382108382678E-133
   31.3143750000000         4.088161552363401E-133
   31.5281250000000         7.204582802262556E-133
   31.7418750000000         1.120446070448504E-132
   31.9556250000000         1.426903402107762E-132
   32.1693750000000         1.096892413338419E-132
   32.3831250000000        -1.112754553236881E-132
   32.5968750000000        -7.615393548519301E-132
   32.8106250000000        -2.248389507263629E-131
   33.0243750000000        -5.163930241294300E-131
   33.2381250000000        -1.020955845586370E-130
   33.4518750000000        -1.792126880299781E-130
   33.6656250000000        -2.805087401264178E-130
   33.8793750000000        -3.842420898855777E-130
   34.0931250000000        -4.304930957981246E-130
   34.3068750000000        -2.910197511260284E-130
   34.5206250000000         2.798966464406370E-130
   34.7343750000000         1.729321041316368E-129
   34.9481250000000         4.847913172028513E-129
   35.1618750000000         1.098197478274376E-128
   35.3756250000000         2.223854371066537E-128
   35.5893750000000         4.133300108245505E-128
   35.8031250000000         7.012052378465416E-128
   36.0168750000000         1.048485774663655E-127
   36.2306250000000         1.251651467329094E-127
   36.4443750000000         7.454417596446798E-128
   36.6581250000000        -1.639339885978928E-127
   36.8718750000000        -7.732262051015109E-127
   37.0856250000000        -1.924505774511899E-126
   37.2993750000000        -3.483721104614942E-126
   37.5131250000000        -4.303383153733425E-126
   37.7268750000000        -9.357920523127221E-127
   37.9406250000000         1.400607775597160E-125
   38.1543750000000         5.239129770770533E-125
   38.3681250000000         1.258287760006341E-124
   38.5818750000000         2.266426557825456E-124
   38.7956250000000         2.793498946600692E-124
   39.0093750000000         4.407625391266913E-125
   39.2231250000000        -1.035010710217472E-123
   39.4368750000000        -3.990953879071672E-123
   39.6506250000000        -1.032383335763632E-122
   39.8643750000000        -2.136449110942556E-122
   40.0781250000000        -3.611520627549701E-122
   40.2918750000000        -4.614337529482722E-122
   40.5056250000000        -2.587671141730881E-122
   40.7193750000000         8.229542106389423E-122
   40.9331250000000         3.844219929184804E-121
   41.1468750000000         1.038567854207727E-120
   41.3606250000000         2.210533395780500E-120
   41.5743750000000         3.913898063665730E-120
   41.7881250000000         5.627366070709352E-120
   42.0018750000000         5.561393569361385E-120
   42.2156250000000        -4.955363522339494E-121
   42.4293750000000        -2.056462913185923E-119
   42.6431250000000        -6.727286708371183E-119
   42.8568750000000        -1.559864343303837E-118
   43.0706250000000        -2.962253018518340E-118
   43.2843750000000        -4.698390219479765E-118
   43.4981250000000        -5.877099575487758E-118
   43.7118750000000        -4.188539485644744E-118
   43.9256250000000         5.023782332397355E-118
   44.1393750000000         2.954435165591249E-117
   44.3531250000000         7.994178574632352E-117
   44.5668750000000         1.661238335757099E-116
   44.7806250000000         2.875191865626705E-116
   44.9943750000000         4.125158117017029E-116
   45.2081250000000         4.431634342513279E-116
   45.4218750000000         1.654927684614279E-116
   45.6356250000000        -8.019202675028273E-116
   45.8493750000000        -3.023298306416750E-115
   46.0631250000000        -7.144848537365920E-115
   46.2768750000000        -1.354026013851915E-114
   46.4906250000000        -2.150886398554841E-114
   46.7043750000000        -2.782315835690868E-114
   46.9181250000000        -2.454908812787322E-114
   47.1318750000000         3.528878999373566E-115
   47.3456250000000         8.066477136659071E-114
   47.5593750000000         2.383506630075938E-113
   47.7731250000000         5.050463663218375E-113
   47.9868750000000         8.801686930811270E-113
   48.2006250000000         1.283892643223797E-112
   48.4143750000000         1.477130074041792E-112
   48.6281250000000         9.575161404824122E-113
   48.8418750000000        -1.136342199396454E-112
   49.0556250000000        -6.032426366214035E-112
   49.2693750000000        -1.509384467281173E-111
   49.4831250000000        -2.911392829033647E-111
   49.6968750000000        -4.684293716317213E-111
   49.9106250000000        -6.249073183352041E-111
   50.1243750000000        -6.221996011635973E-111
   50.3381250000000        -2.032903240728314E-111
   50.5518750000000         1.028786436897174E-110
   50.7656250000000         3.575260830937196E-110
   50.9793750000000         7.883350488477912E-110
   51.1931250000000         1.397712516130715E-109
   51.4068750000000         2.078781511157329E-109
   51.6206250000000         2.514625984287527E-109
   51.8343750000000         2.055373414443127E-109
   52.0481250000000        -3.843423469438413E-110
   52.2618750000000        -6.314620960278593E-109
   52.4756250000000        -1.738574238178418E-108
   52.6893750000000        -3.460032928742346E-108
   52.9031250000000        -5.676138847612859E-108
   53.1168750000000        -7.797365399265711E-108
   53.3306250000000        -8.431202937989376E-108
   53.5443750000000        -5.041794576132238E-108
   53.7581250000000         6.210486907315059E-108
   53.9718750000000         3.010473121033348E-107
   54.1856250000000         7.094749152333047E-107
   54.3993750000000         1.294643338965392E-106
   54.6131250000000         1.974142183783165E-106
   54.8268750000000         2.498301180382920E-106
   55.0406250000000         2.359759630999443E-106
   55.2543750000000         7.227663854816213E-107
   55.4681250000000        -3.562705352520514E-106
   55.6818750000000        -1.175704429064792E-105
   55.8956250000000        -2.469694019838362E-105
   56.1093750000000        -4.178476761572966E-105
   56.3231250000000        -5.941898366799853E-105
   56.5368750000000        -6.897241997594051E-105
   56.7506250000000        -5.479906961845828E-105
   56.9643750000000         6.655080841096077E-106
   57.1781250000000         1.447773538310647E-104
   57.3918750000000         3.870847983302455E-104
   57.6056250000000         7.427855830749373E-104
   57.8193750000000         1.175090496904451E-103
   58.0331250000000         1.562338718659879E-103
   58.2468750000000         1.653675988716433E-103
   58.4606250000000         1.034681354512424E-103
   58.6743750000000        -8.680430669975055E-104
   58.8881250000000        -4.698718258068691E-103
   59.1018750000000        -1.094378937113747E-102
   59.3156250000000        -1.950682086091902E-102
   59.5293750000000        -2.905952977798384E-102
   59.7431250000000        -3.621659270016968E-102
   59.9568750000000        -3.472052671121571E-102
   60.1706250000000        -1.503233315586933E-102
   60.3843750000000         3.501440532867416E-102
   60.5981250000000         1.275863927526153E-101
   60.8118750000000         2.692265696653207E-101
   61.0256250000000         4.514371213377890E-101
   61.2393750000000         6.375157444741751E-101
   61.4531250000000         7.474376187299922E-101
   61.6668750000000         6.454214933466824E-101
   61.8806250000000         1.386784855946383E-101
   62.0943750000000        -9.999091941525709E-101
   62.3081250000000        -2.969252730009615E-100
   62.5218750000000        -5.822145144203459E-100
   62.7356250000000        -9.284032711226754E-100
   62.9493750000000        -1.251947518722894E-099
   63.1631250000000        -1.389125798854578E-099
   63.3768750000000        -1.080706137460320E-099
   63.5906250000000         1.902702729971565E-101
   63.8043750000000         2.287478179123391E-099
   64.0181250000000         6.009006810680261E-099
   64.2318750000000         1.116053866135157E-098
   64.4456250000000         1.710481644524986E-098
   64.6593750000000         2.222358506177769E-098
   64.8731250000000         2.357943778947521E-098
   65.0868750000000         1.677106660747998E-098
   65.3006250000000        -3.769152773759269E-099
   65.5143750000000        -4.371944143669484E-098
   65.7281250000000        -1.067321472737453E-097
   65.9418750000000        -1.910065123216417E-097
   66.1556250000000        -2.846611098718609E-097
   66.3693750000000        -3.605442444524842E-097
   66.5831250000000        -3.719359978521199E-097
   66.7968750000000        -2.516161129616642E-097
   67.0106250000000         8.219778576876637E-098
   67.2243750000000         7.088707711775784E-097
   67.4381250000000         1.673428742258153E-096
   67.6518750000000         2.937734074862682E-096
   67.8656250000000         4.317187921334907E-096
   68.0793750000000         5.412801151434219E-096
   68.2931250000000         5.558914482072044E-096
   68.5068750000000         3.819256242530936E-096
   68.7206250000000        -9.242321475303003E-097
   68.9343750000000        -9.738923792985763E-096
   69.1481250000000        -2.322004633946057E-095
   69.3618750000000        -4.086064123758990E-095
   69.5756250000000        -6.024758154782475E-095
   69.7893750000000        -7.620668481261351E-095
   70.0031250000000        -8.014170248229598E-095
   70.2168750000000        -5.995484738130657E-095
   70.4306250000000        -1.071763159615689E-096
   70.6443750000000         1.108279804648464E-094
   70.8581250000000         2.848237731972515E-094
   71.0718750000000         5.172254965784999E-094
   71.2856250000000         7.817939278842215E-094
   71.4993750000000         1.018955903094520E-093
   71.7131250000000         1.126611629965061E-093
   71.9268750000000         9.567880195222810E-094
   72.1406250000000         3.240992553988539E-094
   72.3543750000000        -9.667396435061839E-094
   72.5681250000000        -3.066971660845235E-093
   72.7818750000000        -5.998071872108523E-093
   72.9956250000000        -9.534215869167618E-093
   73.2093750000000        -1.306273885747009E-092
   73.4231250000000        -1.544747841539892E-092
   73.6368750000000        -1.494015059311244E-092
   73.8506250000000        -9.208522163800918E-093
   74.0643750000000         4.427310416201937E-093
   74.2781250000000         2.844573802983320E-092
   74.4918750000000         6.416457628989945E-092
   74.7056250000000         1.103206783621877E-091
   74.9193750000000         1.612389766602697E-091
   75.1331250000000         2.048181075808099E-091
   75.3468750000000         2.208192205038182E-091
   75.5606250000000         1.802761031925719E-091
   75.7743750000000         4.720295235830056E-092
   75.9881250000000        -2.159351339577503E-091
   76.2018750000000        -6.374648011353499E-091
   76.4156250000000        -1.219334095604922E-090
   76.6293750000000        -1.913534484897197E-090
   76.8431250000000        -2.594258356350897E-090
   77.0568750000000        -3.031249091190916E-090
   77.2706250000000        -2.874205073703286E-090
   77.4843750000000        -1.663052178478400E-090
   77.6981250000000         1.116811371734869E-090
   77.9118750000000         5.913621602541894E-090
   78.1256250000000         1.290608920940967E-089
   78.3393750000000         2.171455303599434E-089
   78.5531250000000         3.104875430110111E-089
   78.7668750000000         3.835480019834686E-089
   78.9806250000000         3.957740269350064E-089
   79.1943750000000         2.921335560059739E-089
   79.4081250000000         8.835671736165496E-091
   79.6218750000000        -5.133066019464963E-089
   79.8356250000000        -1.305896571617383E-088
   80.0493750000000        -2.339921073665328E-088
   80.2631250000000        -3.485177275239193E-088
   80.4768750000000        -4.469202557676899E-088
   80.6906250000000        -4.848646440846908E-088
   80.9043750000000        -4.012437920436931E-088
   81.1181250000000        -1.241341028526560E-088
   81.3318750000000         4.150096899544846E-088
   81.5456250000000         1.256910706549557E-087
   81.7593750000000         2.379473878794205E-087
   81.9731250000000         3.655076746889937E-087
   82.1868750000000         4.807667142775853E-087
   82.4006250000000         5.383093204382651E-087
   82.6143750000000         4.752273004727008E-087
   82.8281250000000         2.171512063650685E-087
   83.0418750000000        -3.075117111184800E-087
   83.2556250000000        -1.143318920534743E-086
   83.4693750000000        -2.273453919061928E-086
   83.6831250000000        -3.578335333024682E-086
   83.8968750000000        -4.794647128524705E-086
   84.1106250000000        -5.487688177768436E-086
   84.3243750000000        -5.055385284749242E-086
   84.5381250000000        -2.786119603019318E-086
   84.7518750000000         2.007673975740107E-086
   84.9656250000000         9.765186735372994E-086
   85.1793750000000         2.036384608261719E-085
   85.3931250000000         3.274651304686047E-085
   85.6068750000000         4.455800352858397E-085
   85.8206250000000         5.190591691385556E-085
   86.0343750000000         4.940539001023532E-085
   86.2481250000000         3.069599848048805E-085
   86.4618750000000        -1.038804751835859E-085
   86.6756250000000        -7.787867582217243E-085
   86.8893750000000        -1.709947282966191E-084
   87.1031250000000        -2.809880412722135E-084
   87.3168750000000        -3.881015418663042E-084
   87.5306250000000        -4.595971980937410E-084
   87.7443750000000        -4.501587410649277E-084
   87.9581250000000        -3.061806923608172E-084
   88.1718750000000         2.463261437578096E-085
   88.3856250000000         5.774889896943220E-084
   88.5993750000000         1.348857410265735E-083
   88.8131250000000         2.271124610305916E-083
   89.0268750000000         3.188245999727994E-083
   89.2406250000000         3.839925194005311E-083
   89.4543750000000         3.864467691202129E-083
   89.6681250000000         2.831939900182318E-083
   89.8818750000000         3.184701959415543E-084
   90.0956250000000        -3.971815540421112E-083
   90.3093750000000        -1.003973043952846E-082
   90.5231250000000        -1.739552302066815E-082
   90.7368750000000        -2.487041609447132E-082
   90.9506250000000        -3.049186652742252E-082
   91.1643750000000        -3.149851826930518E-082
   91.3781250000000        -2.458166641100697E-082
   91.5918750000000        -6.434017763153964E-083
   91.8056250000000         2.534557622348798E-082
   92.0193750000000         7.100886477850261E-082
   92.2331250000000         1.271977129616016E-081
   92.4468750000000         1.855249703423344E-081
   92.6606250000000         2.316098837022415E-081
   92.8743750000000         2.451220008115193E-081
   93.0881250000000         2.014671700115274E-081
   93.3018750000000         7.570713767014418E-082
   93.5156250000000        -1.509256529822151E-081
   93.7293750000000        -4.820309387275228E-081
   93.9431250000000        -8.954192709224985E-081
   94.1568750000000        -1.332709307083139E-080
   94.3706250000000        -1.692094880019629E-080
   94.5843750000000        -1.828241074625519E-080
   94.7981250000000        -1.563838835203232E-080
   95.0118750000000        -7.170482993878178E-081
   95.2256250000000         8.525751068470251E-081
   95.4393750000000         3.180447786733876E-080
   95.6531250000000         6.121671759107648E-080
   95.8668750000000         9.277095197228777E-080
   96.0806250000000         1.194149107263251E-079
   96.2943750000000         1.310162086063880E-079
   96.5081250000000         1.151577871064978E-079
   96.7218750000000         5.904050890169054E-080
   96.9356250000000        -4.733240650668891E-080
   97.1493750000000        -2.067526079392425E-079
   97.3631250000000        -4.096176787063485E-079
   97.5768750000000        -6.288677947595331E-079
   97.7906250000000        -8.164880633060292E-079
   98.0043750000000        -9.034797983067834E-079
   98.2181250000000        -8.054355419114620E-079
   98.4318750000000        -4.356470250461952E-079
   98.6456250000000         2.731796851558801E-079
   98.8593750000000         1.339196308214172E-078
   99.0731250000000         2.696790859570851E-078
   99.2868750000000         4.163405917493542E-078
   99.5006250000000         5.417577595675984E-078
   99.7143750000000         6.000860100942174E-078
   99.9281250000000         5.357495891135471E-078
   100.141875000000         2.923855135595455E-078
   100.355625000000        -1.726522278522855E-078
   100.569375000000        -8.687921543364256E-078
   100.783125000000        -1.749992120768680E-077
   100.996875000000        -2.694051072177642E-077
   101.210625000000        -3.489943556148855E-077
   101.424375000000        -3.841301232019343E-077
   101.638125000000        -3.394627617191543E-077
   101.851875000000        -1.799256082200097E-077
   102.065625000000         1.198323870506284E-077
   102.279375000000         5.630801163482393E-077
   102.493125000000         1.117283525301893E-076
   102.706875000000         1.701889568076241E-076
   102.920625000000         2.181729261388276E-076
   103.134375000000         2.371034735505793E-076
   103.348125000000         2.053119000178847E-076
   103.561875000000         1.019505412432037E-076
   103.775625000000        -8.706984737167533E-077
   103.989375000000        -3.615298307600584E-076
   104.203125000000        -6.988105810563736E-076
   104.416875000000        -1.047086002151314E-075
   104.630625000000        -1.322312996806043E-075
   104.844375000000        -1.411951487865785E-075
   105.058125000000        -1.188221456256829E-075
   105.271875000000        -5.327700589531858E-076
   105.485625000000         6.273262823203869E-076
   105.699375000000         2.275310836697646E-075
   105.913125000000         4.259200961202623E-075
   106.126875000000         6.256083637882558E-075
   106.340625000000         7.760956325282682E-075
   106.554375000000         8.116502263728954E-075
   106.768125000000         6.598522335445092E-075
   106.981875000000         2.565339169049592E-075
   107.195625000000        -4.332554913553486E-075
   107.409375000000        -1.390392702397034E-074
   107.623125000000        -2.517218872906331E-074
   107.836875000000        -3.619967725294113E-074
   108.050625000000        -4.406289889338028E-074
   108.264375000000        -4.506593884784179E-074
   108.478125000000        -3.526470474820636E-074
   108.691875000000        -1.133379176906742E-074
   108.905625000000         2.826285411118488E-074
   109.119375000000         8.193416394334111E-074
   109.333125000000         1.437081106959800E-073
   109.546875000000         2.024231162955525E-073
   109.760625000000         2.418019474183634E-073
   109.974375000000         2.418498824914092E-073
   110.188125000000         1.819140447515415E-073
   110.401875000000         4.549674546002316E-074
   110.615625000000        -1.734772115105962E-073
   110.829375000000        -4.637580130345167E-073
   111.043125000000        -7.906298775309863E-073
   111.256875000000        -1.092450682090865E-072
   111.470625000000        -1.282098597058874E-072
   111.684375000000        -1.255459495612952E-072
   111.898125000000        -9.084184127878168E-073
   112.111875000000        -1.624477935176349E-073
   112.325625000000         1.003193804417566E-072
   112.539375000000         2.517262973620048E-072
   112.753125000000         4.187732629160443E-072
   112.966875000000         5.688140573616273E-072
   113.180625000000         6.569942323078763E-072
   113.394375000000         6.310716201297831E-072
   113.608125000000         4.404153984565708E-072
   113.821875000000         4.904933053321554E-073
   114.035625000000        -5.484444873559671E-072
   114.249375000000        -1.310615558193105E-071
   114.463125000000        -2.136171957757600E-071
   114.676875000000        -2.859091381275778E-071
   114.890625000000        -3.256901434228838E-071
   115.104375000000        -3.076487411870688E-071
   115.318125000000        -2.079662423856028E-071
   115.531875000000        -1.070638820381000E-072
   115.745625000000         2.846127349569316E-071
   115.959375000000         6.555056464625811E-071
   116.173125000000         1.050879263966823E-070
   116.386875000000         1.389489271573860E-070
   116.600625000000         1.564789735975880E-070
   116.814375000000         1.458034734261205E-070
   117.028125000000         9.604089981061859E-071
   117.241875000000         3.197416500408822E-073
   117.455625000000        -1.407347757648260E-070
   117.669375000000        -3.156432080015465E-070
   117.883125000000        -4.996886900715649E-070
   118.096875000000        -6.545138969404671E-070
   118.310625000000        -7.307032565678557E-070
   118.524375000000        -6.741199459733359E-070
   118.738125000000        -4.362455932544450E-070
   118.951875000000         1.204471685534338E-071
   119.165625000000         6.648914192155813E-070
   119.379375000000         1.466813627754812E-069
   119.593125000000         2.302825003372038E-069
   119.806875000000         2.997714946240890E-069
   120.020625000000         3.328782355838154E-069
   120.234375000000         3.055145616685384E-069
   120.448125000000         1.964358543913504E-069
   120.661875000000        -6.655725353136405E-071
   120.875625000000        -3.003111089109657E-069
   121.089375000000        -6.590691948434248E-069
   121.303125000000        -1.031380326534344E-068
   121.516875000000        -1.339604338439792E-068
   121.730625000000        -1.485877537885334E-068
   121.944375000000        -1.365107829234990E-068
   122.158125000000        -8.853072303775736E-069
   122.371875000000         6.080022218189152E-071
   122.585625000000         1.293116105984269E-068
   122.799375000000         2.864857210069863E-068
   123.013125000000         4.498384757577149E-068
   123.226875000000         5.859269062628311E-068
   123.440625000000         6.526884853021610E-068
   123.654375000000         6.049691522741802E-068
   123.868125000000         4.031179382379912E-068