  -1.60312500000000         0.000000000000000E+000
  -1.38937500000000         0.000000000000000E+000
  -1.17562500000000         0.000000000000000E+000
 -0.961875000000000         0.000000000000000E+000
 -0.748125000000000         0.000000000000000E+000
 -0.534375000000000         0.000000000000000E+000
 -0.320625000000000         0.000000000000000E+000
 -0.106875000000000         0.000000000000000E+000
  0.106875000000000         0.000000000000000E+000
  0.320625000000000         0.000000000000000E+000
  0.534375000000000         0.000000000000000E+000
  0.748125000000000         0.000000000000000E+000
  0.961875000000000         0.000000000000000E+000
   1.17562500000000         0.000000000000000E+000
   1.38937500000000         0.000000000000000E+000
   1.60312500000000         0.000000000000000E+000
   1.81687500000000         0.000000000000000E+000
   2.03062500000000         0.000000000000000E+000
   2.24437500000000         0.000000000000000E+000
   2.45812500000000         0.000000000000000E+000
   2.67187500000000         0.000000000000000E+000
   2.88562500000000         0.000000000000000E+000
   3.09937500000000         0.000000000000000E+000
   3.31312500000000         0.000000000000000E+000
   3.52687500000000         0.000000000000000E+000
   3.74062500000000         0.000000000000000E+000
   3.95437500000000         0.000000000000000E+000
   4.16812500000000         0.000000000000000E+000
   4.38187500000000         0.000000000000000E+000
   4.59562500000000         0.000000000000000E+000
   4.80937500000000         0.000000000000000E+000
   5.02312500000000         0.000000000000000E+000
   5.23687500000000         0.000000000000000E+000
   5.45062500000000         0.000000000000000E+000
   5.66437500000000         0.000000000000000E+000
   5.87812500000000         0.000000000000000E+000
   6.09187500000000         0.000000000000000E+000
   6.30562500000000         0.000000000000000E+000
   6.51937500000000         0.000000000000000E+000
   6.73312500000000         0.000000000000000E+000
   6.94687500000000         0.000000000000000E+000
   7.16062500000000         0.000000000000000E+000
   7.37437500000000         0.000000000000000E+000
   7.58812500000000         0.000000000000000E+000
   7.80187500000000         0.000000000000000E+000
   8.01562500000000         0.000000000000000E+000
   8.22937500000000         0.000000000000000E+000
   8.44312500000000         0.000000000000000E+000
   8.65687500000000         0.000000000000000E+000
   8.87062500000000         0.000000000000000E+000
   9.08437500000000         0.000000000000000E+000
   9.29812500000000         0.000000000000000E+000
   9.51187500000000         0.000000000000000E+000
   9.72562500000000         0.000000000000000E+000
   9.93937500000000        -3.836782180545566E-218
   10.1531250000000        -2.804902572075666E-206
   10.3668750000000        -1.903472090814744E-197
   10.5806250000000         1.947123371371314E-194
   10.7943750000000         2.234284770332779E-190
   11.0081250000000         1.762838272628442E-188
   11.2218750000000         1.083991691202368E-186
   11.4356250000000         5.613500888834009E-185
   11.6493750000000         2.377708138062211E-183
   11.8631250000000         7.920407746890900E-182
   12.0768750000000         2.053842052016823E-180
   12.2906250000000         4.196273657775909E-179
   12.5043750000000         6.877212344425600E-178
   12.7181250000000         9.175384300423890E-177
   12.9318750000000         1.003848052916692E-175
   13.1456250000000         8.965688981037140E-175
   13.3593750000000         6.366146428956178E-174
   13.5731250000000         3.303541524703679E-173
   13.7868750000000         8.586818438017631E-173
   14.0006250000000        -4.037037212686674E-172
   14.2143750000000        -5.565721691560041E-171
   14.4281250000000        -6.842407164669227E-171
   14.6418750000000         5.458697439455389E-169
   14.8556250000000         9.575317278668670E-168
   15.0693750000000         1.072450256295831E-166
   15.2831250000000         9.558443397282577E-166
   15.4968750000000         7.273510236304749E-165
   15.7106250000000         4.880396067528778E-164
   15.9243750000000         2.936729664304530E-163
   16.1381250000000         1.598560221701315E-162
   16.3518750000000         7.892725031589225E-162
   16.5656250000000         3.522883263560714E-161
   16.7793750000000         1.404063547485881E-160
   16.9931250000000         4.844748121836472E-160
   17.2068750000000         1.328012750120955E-159
   17.4206250000000         1.928762509901788E-159
   17.6343750000000        -7.643160200949818E-159
   17.8481250000000        -8.956576490216338E-158
   18.0618750000000        -5.467475690152991E-157
   18.2756250000000        -2.639291451131158E-156
   18.4893750000000        -1.096128423677274E-155
   18.7031250000000        -4.013218492159321E-155
   18.9168750000000        -1.291505903917208E-154
   19.1306250000000        -3.527910251407095E-154
   19.3443750000000        -7.208635611832293E-154
   19.5581250000000        -3.856855944953497E-154
   19.7718750000000         6.302355909758059E-153
   19.9856250000000         4.604427405028505E-152
   20.1993750000000         2.260705177987969E-151
   20.4131250000000         9.333115732671739E-151
   20.6268750000000         3.453470642986163E-150
   20.8406250000000         1.177089713483532E-149
   21.0543750000000         3.748189574880901E-149
   21.2681250000000         1.124012844510443E-148
   21.4818750000000         3.189224172431070E-148
   21.6956250000000         8.583536525186514E-148
   21.9093750000000         2.193485105070159E-147
   22.1231250000000         5.319970828114941E-147
   22.3368750000000         1.222294742323878E-146
   22.5506250000000         2.650506882152168E-146
   22.7643750000000         5.390246362759886E-146
   22.9781250000000         1.017000386534812E-145
   23.1918750000000         1.745848381962898E-145
   23.4056250000000         2.619983304368949E-145
   23.6193750000000         3.090146047471889E-145
   23.8331250000000         1.614616235935440E-145
   24.0468750000000        -5.184913531569874E-145
   24.2606250000000        -2.353167513337065E-144
   24.4743750000000        -6.343271671372884E-144
   24.6881250000000        -1.404981301221744E-143
   24.9018750000000        -2.867224642382638E-143
   25.1156250000000        -6.056871324423846E-143
   25.3293750000000        -1.493521356669290E-142
   25.5431250000000        -4.383628750788916E-142
   25.7568750000000        -1.396388440613466E-141
   25.9706250000000        -4.416856143292655E-141
   26.1843750000000        -1.331061677666174E-140
   26.3981250000000        -3.776263222916155E-140
   26.6118750000000        -1.007935358450511E-139
   26.8256250000000        -2.537441961787272E-139
   27.0393750000000        -6.040432280451168E-139
   27.2531250000000        -1.361793005269026E-138
   27.4668750000000        -2.907459549660523E-138
   27.6806250000000        -5.866415481306313E-138
   27.8943750000000        -1.113017995249758E-137
   28.1081250000000        -1.965939448849148E-137
   28.3218750000000        -3.169275252290727E-137
   28.5356250000000        -4.460102379609046E-137
   28.7493750000000        -4.797195358625439E-137
   28.9631250000000        -1.344950027971797E-137
   29.1768750000000         1.248903671766756E-136
   29.3906250000000         5.069045264460066E-136
   29.6043750000000         1.412679881376315E-135
   29.8181250000000         3.383990665512488E-135
   30.0318750000000         7.449827613178056E-135
   30.2456250000000         1.554579197500558E-134
   30.4593750000000         3.126909935974196E-134
   30.6731250000000         6.112054763703915E-134
   30.8868750000000         1.161666565551012E-133
   31.1006250000000         2.131254310631347E-133
   31.3143750000000         3.711905061316224E-133
   31.5281250000000         5.945533543336895E-133
   31.7418750000000         8.177649300418193E-133
   31.9556250000000         7.691354125715511E-133
   32.1693750000000        -3.225338338994613E-133
   32.3831250000000        -4.276478383706387E-132
   32.5968750000000        -1.483590075532482E-131
   32.8106250000000        -3.876437124225740E-131
   33.0243750000000        -8.653188051092032E-131
   33.2381250000000        -1.707969934816036E-130
   33.4518750000000        -2.987621112515580E-130
   33.6656250000000        -4.512825659056810E-130
   33.8793750000000        -5.380999974625577E-130
   34.0931250000000        -3.175175651654335E-130
   34.3068750000000         7.232474169767259E-130
   34.5206250000000         3.501874471655757E-129
   34.7343750000000         9.396074561148329E-129
   34.9481250000000         2.000223186114649E-128
   35.1618750000000         3.619418195733767E-128
   35.3756250000000         5.587934726202441E-128
   35.5893750000000         6.979152612241433E-128
   35.8031250000000         5.508215241964695E-128
   36.0168750000000        -3.205009936592514E-128
   36.2306250000000        -2.601741300636397E-127
   36.4443750000000        -7.127491884478132E-127
   36.6581250000000        -1.447055134217935E-126
   36.8718750000000        -2.398831221902682E-126
   37.0856250000000        -3.214734567649502E-126
   37.2993750000000        -3.028007557491528E-126
   37.5131250000000        -2.798350043066000E-127
   37.7268750000000         7.143484627939907E-126
   37.9406250000000         2.093594319329936E-125
   38.1543750000000         3.977688810848824E-125
   38.3681250000000         5.430755486140665E-125
   38.5818750000000         3.963150397109632E-125
   38.7956250000000        -5.218178569041495E-125
   39.0093750000000        -2.914171311347444E-124
   39.2231250000000        -7.434311127244438E-124
   39.4368750000000        -1.381493558129249E-123
   39.6506250000000        -1.891387703352882E-123
   39.8643750000000        -1.318332875257820E-123
   40.0781250000000         2.447621123379035E-123
   40.2918750000000         1.319836530748705E-122
   40.5056250000000         3.644150226149680E-122
   40.7193750000000         7.776201625870719E-122
   40.9331250000000         1.372668738277537E-121
   41.1468750000000         1.965397208712446E-121
   41.3606250000000         1.936093491728926E-121
   41.5743750000000        -1.730797862165819E-122
   41.7881250000000        -7.174001622960508E-121
   42.0018750000000        -2.362850198110335E-120
   42.2156250000000        -5.548090603292013E-120
   42.4293750000000        -1.075615021766045E-119
   42.6431250000000        -1.765398753898459E-119
   42.8568750000000        -2.357599162023121E-119
   43.0706250000000        -2.080006433721016E-119
   43.2843750000000         7.541968559937818E-120
   43.4981250000000         9.218435221930490E-119
   43.7118750000000         2.801929897684315E-118
   43.9256250000000         6.281405619108947E-118
   44.1393750000000         1.172269500917845E-117
   44.3531250000000         1.853295249451687E-117
   44.5668750000000         2.366457328867688E-117
   44.7806250000000         1.911324079683906E-117
   44.9943750000000        -1.150354231565461E-117
   45.2081250000000        -9.625219658168422E-117
   45.4218750000000        -2.750465894893502E-116
   45.6356250000000        -5.902209204538914E-116
   45.8493750000000        -1.056241850446422E-115
   46.0631250000000        -1.592312379802742E-115
   46.2768750000000        -1.900248752420758E-115
   46.4906250000000        -1.280253517793121E-115
   46.7043750000000         1.587134398099865E-115
   46.9181250000000         8.784142954904862E-115
   47.1318750000000         2.296974543839521E-114
   47.3456250000000         4.639368970422568E-114
   47.5593750000000         7.838914352810952E-114
   47.7731250000000         1.104684828847120E-113
   47.9868750000000         1.183798399464010E-113
   48.2006250000000         5.161625205540845E-114
   48.4143750000000        -1.763509210122353E-113
   48.6281250000000        -6.885936875802866E-113
   48.8418750000000        -1.619331230752329E-112
   49.0556250000000        -3.035821431183399E-112
   49.2693750000000        -4.772597802283772E-112
   49.4831250000000        -6.146108710287450E-112
   49.6968750000000        -5.548556684607606E-112
   49.9106250000000        -2.797369776969075E-115
   50.1243750000000         1.507598828936507E-111
   50.3381250000000         4.540252190945982E-111
   50.5518750000000         9.577373658017131E-111
   50.7656250000000         1.652763296828952E-110
   50.9793750000000         2.385320022583947E-110
   51.1931250000000         2.724695346093327E-110
   51.4068750000000         1.802805542498745E-110
   51.6206250000000        -1.813009565932465E-110
   51.8343750000000        -1.007799948031223E-109
   52.0481250000000        -2.502130109895413E-109
   52.2618750000000        -4.754872051126323E-109
   52.4756250000000        -7.511102883189252E-109
   52.6893750000000        -9.798664881367159E-109
   52.9031250000000        -9.442449969030487E-109
   53.1168750000000        -2.597842921517816E-109
   53.3306250000000         1.637679158960308E-108
   53.5443750000000         5.412470476445902E-108
   53.7581250000000         1.156971243126488E-107
   53.9718750000000         1.991054520321031E-107
   54.1856250000000         2.861625273710966E-107
   54.3993750000000         3.297574382206427E-107
   54.6131250000000         2.400502162446826E-107
   54.8268750000000        -1.237480449717977E-107
   55.0406250000000        -9.432237737185969E-107
   55.2543750000000        -2.392282011976317E-106
   55.4681250000000        -4.524891510591902E-106
   55.6818750000000        -7.075273224340998E-106
   55.8956250000000        -9.164382379644231E-106
   56.1093750000000        -8.951676078030266E-106
   56.3231250000000        -3.355208451485543E-106
   56.5368750000000         1.190932875480951E-105
   56.7506250000000         4.156257293824456E-105
   56.9643750000000         8.872139854667378E-105
   57.1781250000000         1.510181828861744E-104
   57.3918750000000         2.145793625650726E-104
   57.6056250000000         2.463406796001436E-104
   57.8193750000000         1.867005136763630E-104
   58.0331250000000        -5.308419186978783E-105
   58.2468750000000        -5.812439368487827E-104
   58.4606250000000        -1.493014360507434E-103
   58.6743750000000        -2.803446049659583E-103
   58.8881250000000        -4.336931264918489E-103
   59.1018750000000        -5.576784579343558E-103
   59.3156250000000        -5.503150289434169E-103
   59.5293750000000        -2.488534036515666E-103
   59.7431250000000         5.624122243233255E-103
   59.9568750000000         2.107643339740214E-102
   60.1706250000000         4.516050345689482E-102
   60.3843750000000         7.640270702453993E-102
   60.5981250000000         1.079328690411748E-101
   60.8118750000000         1.243740079408348E-101
   61.0256250000000         9.922318615402494E-102
   61.2393750000000        -5.403512234219876E-103
   61.4531250000000        -2.337517178514945E-101
   61.6668750000000        -6.224034259409730E-101
   61.8806250000000        -1.173552973935345E-100
   62.0943750000000        -1.813754484258343E-100
   62.3081250000000        -2.341171651332256E-100
   62.5218750000000        -2.373282325803560E-100
   62.7356250000000        -1.320296210570175E-100
   62.9493750000000         1.574149362485371E-100
   63.1631250000000         7.068455960752368E-100
   63.3768750000000         1.557287428796891E-099
   63.5906250000000         2.656939936074452E-099
   63.8043750000000         3.781460088868276E-099
   64.0181250000000         4.445151220128675E-099
   64.2318750000000         3.833494359003647E-099
   64.4456250000000         8.106544081587290E-100
   64.6593750000000        -5.920572293426336E-099
   64.8731250000000        -1.741442095634576E-098
   65.0868750000000        -3.375261400359224E-098
   65.3006250000000        -5.296732912140354E-098
   65.5143750000000        -6.972375499356282E-098
   65.7281250000000        -7.408589595777658E-098
   65.9418750000000        -5.098826173943046E-098
   66.1556250000000         1.862799163820863E-098
   66.3693750000000         1.537901566962554E-097
   66.5831250000000         3.653448295674592E-097
   66.7968750000000         6.429520464126133E-097
   67.0106250000000         9.378060635456833E-097
   67.2243750000000         1.144044915660038E-096
   67.4381250000000         1.085301852909033E-096
   67.6518750000000         5.170885300460544E-097
   67.8656250000000        -8.403472664736544E-097
   68.0793750000000        -3.222279409501835E-096
   68.2931250000000        -6.679707390299979E-096
   68.5068750000000        -1.087804416078390E-095
   68.7206250000000        -1.485628759153489E-095
   68.9343750000000        -1.680552343464907E-095
   69.1481250000000        -1.397362385408311E-095
   69.3618750000000        -2.853461075812067E-096
   69.5756250000000         2.015288355280296E-095
   69.7893750000000         5.740949714577078E-095
   70.0031250000000         1.079648343937045E-094
   70.2168750000000         1.648213931127055E-094
   70.4306250000000         2.120154674064850E-094
   70.6443750000000         2.224549086149021E-094
   70.8581250000000         1.580283195272188E-094
   71.0718750000000        -2.600725693079670E-095
   71.2856250000000        -3.701817316979964E-094
   71.4993750000000        -8.918296417509238E-094
   71.7131250000000        -1.557851280751119E-093
   71.9268750000000        -2.252062572104881E-093
   72.1406250000000        -2.744450740804521E-093
   72.3543750000000        -2.675270775793389E-093
   72.5681250000000        -1.572594949549281E-093
   72.7818750000000         1.074353856265834E-093
   72.9956250000000         5.664979738430507E-093
   73.2093750000000         1.224893290124527E-092
   73.4231250000000         2.021033235552875E-092
   73.6368750000000         2.792173739908999E-092
   73.8506250000000         3.246456099290380E-092
   74.0643750000000         2.956855156001035E-092
   74.2781250000000         1.397086722660080E-092
   74.4918750000000        -1.958791255174172E-092
   74.7056250000000        -7.455814423791781E-092
   74.9193750000000        -1.499322453859359E-091
   75.1331250000000        -2.369787477834571E-091
   75.3468750000000        -3.159712795794069E-091
   75.5606250000000        -3.540034134286284E-091
   75.7743750000000        -3.054632309587786E-091
   75.9881250000000        -1.170710579291043E-091
   76.2018750000000         2.606635007670331E-091
   76.4156250000000         8.543982090918593E-091
   76.6293750000000         1.641741815237179E-090
   76.8431250000000         2.520891293305595E-090
   77.0568750000000         3.282707921885468E-090
   77.2706250000000         3.595869568910138E-090
   77.4843750000000         3.019356500052359E-090
   77.6981250000000         1.058279461827365E-090
   77.9118750000000        -2.722905671737956E-090
   78.1256250000000        -8.523397421229375E-090
   78.3393750000000        -1.607374652753990E-089
   78.5531250000000        -2.437926725948545E-089
   78.7668750000000        -3.149874534214558E-089
   78.9806250000000        -3.444818093351945E-089
   79.1943750000000        -2.934327068126723E-089
   79.4081250000000        -1.190119157238774E-089
   79.6218750000000         2.160084554045205E-089
   79.8356250000000         7.287814757358401E-089
   80.0493750000000         1.397856359473238E-088
   80.2631250000000         2.143076644096765E-088
   80.4768750000000         2.808377219836618E-088
   80.6906250000000         3.153959203793673E-088
   80.9043750000000         2.865835399549573E-088
   81.1181250000000         1.591094886336045E-088
   81.3318750000000        -9.942971892703332E-089
   81.5456250000000        -5.082421956176581E-088
   81.7593750000000        -1.059931031883126E-087
   81.9731250000000        -1.705393558249543E-087
   82.1868750000000        -2.339637387720234E-087
   82.4006250000000        -2.792383158504067E-087
   82.6143750000000        -2.828430134107716E-087
   82.8281250000000        -2.163430329904685E-087
   83.0418750000000        -5.006318688025330E-088
   83.2556250000000         2.407015481420502E-087
   83.4693750000000         6.667568462639745E-087
   83.6831250000000         1.213605744517155E-086
   83.8968750000000         1.828440752014047E-086
   84.1106250000000         2.407248350560532E-086
   84.3243750000000         2.784826350476570E-086
   84.5381250000000         2.731816089687864E-086
   84.7518750000000         1.964281127356545E-086
   84.9656250000000         1.726944116219265E-087
   85.1793750000000        -2.922025184939485E-086
   85.3931250000000        -7.478325384833011E-086
   85.6068750000000        -1.340557307875272E-085
   85.8206250000000        -2.020013971838428E-085
   86.0343750000000        -2.676116791395243E-085
   86.2481250000000        -3.122010592064534E-085
   86.4618750000000        -3.084349489227823E-085
   86.6756250000000        -2.209782851446559E-085
   86.8893750000000        -9.923438973308462E-087
   87.1031250000000         3.617071460683048E-085
   87.3168750000000         9.152474182527012E-085
   87.5306250000000         1.637985147503732E-084
   87.7443750000000         2.459956287784052E-084
   87.9581250000000         3.229037628619801E-084
   88.1718750000000         3.690489140213355E-084
   88.3856250000000         3.480678372095616E-084
   88.5993750000000         2.148111506422195E-084
   88.8131250000000        -7.831285275355232E-085
   89.0268750000000        -5.693610559949195E-084
   89.2406250000000        -1.268491974023185E-083
   89.4543750000000        -2.133825344070593E-083
   89.6681250000000        -3.044346436964033E-083
   89.8818750000000        -3.775695476464444E-083
   90.0956250000000        -3.988184967556497E-083
   90.3093750000000        -3.239665403606928E-083
   90.5231250000000        -1.037757561165059E-083
   90.7368750000000         3.055083691063428E-083
   90.9506250000000         9.256021731540195E-083
   91.1643750000000         1.734039659252176E-082
   91.3781250000000         2.638858927347151E-082
   91.5918750000000         3.455178810764654E-082
   91.8056250000000         3.891745791508295E-082
   92.0193750000000         3.558317895834518E-082
   92.2331250000000         2.006336621723923E-082
   92.4468750000000        -1.185561380632508E-082
   92.6606250000000        -6.274460088635995E-082
   92.8743750000000        -1.316779536057635E-081
   93.0881250000000        -2.120887262493772E-081
   93.3018750000000        -2.897362524430173E-081
   93.5156250000000        -3.414301934423392E-081
   93.7293750000000        -3.353758356299166E-081
   93.9431250000000        -2.341315135869659E-081
   94.1568750000000        -1.102970643042928E-083
   94.3706250000000         3.888665551580699E-081
   94.5843750000000         9.350125793294901E-081
   94.7981250000000         1.593677056968374E-080
   95.0118750000000         2.261854133351498E-080
   95.2256250000000         2.766079342314576E-080
   95.4393750000000         2.863166457926691E-080
   95.6531250000000         2.260287219898094E-080
   95.8668750000000         6.614815355387480E-081
   96.0806250000000        -2.154904671719426E-080
   96.2943750000000        -6.228821462974308E-080
   96.5081250000000        -1.129081590496967E-079
   96.7218750000000        -1.663531475142134E-079
   96.9356250000000        -2.102945424532787E-079
   97.1493750000000        -2.270444219104552E-079
   97.3631250000000        -1.948411394649586E-079
   97.5768750000000        -9.103230047843713E-080
   97.7906250000000         1.024943198117634E-079
   98.0043750000000         3.916598931189573E-079
   98.2181250000000         7.609600796654465E-079
   98.4318750000000         1.164103002812051E-078
   98.6456250000000         1.516919592839607E-078
   98.8593750000000         1.695840150044515E-078
   99.0731250000000         1.545805392273513E-078
   99.2868750000000         9.013835396511204E-079
   99.5006250000000        -3.762934245945586E-079
   99.7143750000000        -2.346730310008440E-078
   99.9281250000000        -4.925530114593635E-078
   100.141875000000        -7.817884634876772E-078
   100.355625000000        -1.046639092951978E-077
   100.569375000000        -1.203570931166041E-077
   100.783125000000        -1.146064453843508E-077
   100.996875000000        -7.583744811057165E-078
   101.210625000000         5.991808213072152E-079
   101.424375000000         1.358447886221150E-077
   101.638125000000         3.092390017168524E-077
   101.851875000000         5.077052582749533E-077
   102.065625000000         6.951598285123491E-077
   102.279375000000         8.166905266829258E-077
   102.493125000000         8.015259947252928E-077
   102.706875000000         5.719195783127006E-077
   102.920625000000         5.916139620090318E-078
   103.134375000000        -7.732157229043456E-077
   103.348125000000        -1.900821163486915E-076
   103.561875000000        -3.208648495603656E-076
   103.775625000000        -4.467271455312129E-076
   103.989375000000        -5.324729131135784E-076
   104.203125000000        -5.325469822052239E-076
   104.416875000000        -3.967329374747950E-076
   104.630625000000        -8.040093996494737E-077
   104.844375000000         4.407008324835738E-076
   105.058125000000         1.152308842227966E-075
   105.271875000000         1.982930371236526E-075
   105.485625000000         2.789082324327570E-075
   105.699375000000         3.350605770979566E-075
   105.913125000000         3.383093223313934E-075
   106.126875000000         2.574067458145059E-075
   106.340625000000         6.471904632015421E-076
   106.554375000000        -2.546047975565079E-075
   106.768125000000        -6.915158723097346E-075
   106.981875000000        -1.201760544088477E-074
   107.195625000000        -1.697198357749216E-074
   107.409375000000        -2.043468020791242E-074
   107.623125000000        -2.068193340566907E-074
   107.836875000000        -1.583565042690260E-074
   108.050625000000        -4.255866881967756E-075
   108.264375000000         1.490732714614427E-074
   108.478125000000         4.105456525480238E-074
   108.691875000000         7.147948897650134E-074
   108.905625000000         1.008814560569418E-073
   109.119375000000         1.212676458792393E-073
   109.333125000000         1.224851203682105E-073
   109.546875000000         9.359532880399248E-074
   109.760625000000         2.520579889823535E-074
   109.974375000000        -8.730674400218527E-074
   110.188125000000        -2.400098588949480E-073
   110.401875000000        -4.167151495816263E-073
   110.615625000000        -5.863453886639086E-073
   110.829375000000        -7.026124488728181E-073
   111.043125000000        -7.073392194538689E-073
   111.256875000000        -5.385605315223505E-073
   111.470625000000        -1.439481048023979E-073
   111.684375000000         5.009377584186797E-073
   111.898125000000         1.371540194813813E-072
   112.111875000000         2.374075225548175E-072
   112.325625000000         3.331677985541874E-072
   112.539375000000         3.983753948275935E-072
   112.753125000000         4.005695379986669E-072
   112.966875000000         3.054854392951616E-072
   113.180625000000         8.452735229320850E-073
   113.394375000000        -2.752102435510559E-072
   113.608125000000        -7.594986129173924E-072
   113.821875000000        -1.316168176369986E-071
   114.035625000000        -1.847913310707443E-071
   114.249375000000        -2.212340154312405E-071
   114.463125000000        -2.232999064030619E-071
   114.676875000000        -1.724399499571852E-071
   114.890625000000        -5.321537179278491E-072
   115.104375000000         1.413676155144345E-071
   115.318125000000         4.038119674259920E-071
   115.531875000000         7.064628587507277E-071
   115.745625000000         9.977712861327168E-071
   115.959375000000         1.202361951322868E-070
   116.173125000000         1.226815004752611E-070
   116.386875000000         9.726699162400539E-071
   116.600625000000         3.571999633788465E-071
   116.814375000000        -6.590607361702971E-071
   117.028125000000        -2.041157379292233E-070
   117.241875000000        -3.650445203230045E-070
   117.455625000000        -5.225022090431520E-070
   117.669375000000        -6.379253259239798E-070
   117.883125000000        -6.631933849254341E-070
   118.096875000000        -5.470641188911485E-070
   118.310625000000        -2.455110007790228E-070
   118.524375000000         2.645196893130681E-070
   118.738125000000         9.694393541031148E-070
   118.951875000000         1.804112199233641E-069
   119.165625000000         2.641508031553415E-069
   119.379375000000         3.291486175649942E-069
   119.593125000000         3.513391267260405E-069
   119.806875000000         3.046233473878455E-069
   120.020625000000         1.658030171917546E-069
   120.234375000000        -7.877033975689243E-070
   120.448125000000        -4.255151574014185E-069
   120.661875000000        -8.461469626426507E-069
   120.875625000000        -1.282187782889519E-068
   121.089375000000        -1.643621713430357E-068
   121.303125000000        -1.813947321876887E-068
   121.516875000000        -1.663503643952930E-068
   121.730625000000        -1.071983399122797E-068
   121.944375000000         4.056173920583735E-070
   122.158125000000         1.677112982095254E-068
   122.371875000000         3.726925163764437E-068
   122.585625000000         5.936604421210929E-068
   122.799375000000         7.898954110573913E-068
   123.013125000000         9.070179588674749E-068
   123.226875000000         8.824697806722798E-068
   123.440625000000         6.552842952486967E-068
   123.654375000000         1.799883954125384E-068
   123.868125000000        -5.564845151851314E-068