  -1.60312500000000         0.000000000000000E+000
  -1.38937500000000         0.000000000000000E+000
  -1.17562500000000         0.000000000000000E+000
 -0.961875000000000         0.000000000000000E+000
 -0.748125000000000         0.000000000000000E+000
 -0.534375000000000         0.000000000000000E+000
 -0.320625000000000         0.000000000000000E+000
 -0.106875000000000         0.000000000000000E+000
  0.106875000000000         0.000000000000000E+000
  0.320625000000000         0.000000000000000E+000
  0.534375000000000         0.000000000000000E+000
  0.748125000000000         0.000000000000000E+000
  0.961875000000000         0.000000000000000E+000
   1.17562500000000         0.000000000000000E+000
   1.38937500000000         0.000000000000000E+000
   1.60312500000000         0.000000000000000E+000
   1.81687500000000         0.000000000000000E+000
   2.03062500000000         0.000000000000000E+000
   2.24437500000000         0.000000000000000E+000
   2.45812500000000         0.000000000000000E+000
   2.67187500000000         0.000000000000000E+000
   2.88562500000000         0.000000000000000E+000
   3.09937500000000         0.000000000000000E+000
   3.31312500000000         0.000000000000000E+000
   3.52687500000000         0.000000000000000E+000
   3.74062500000000         0.000000000000000E+000
   3.95437500000000         0.000000000000000E+000
   4.16812500000000         0.000000000000000E+000
   4.38187500000000         0.000000000000000E+000
   4.59562500000000         0.000000000000000E+000
   4.80937500000000         0.000000000000000E+000
   5.02312500000000         0.000000000000000E+000
   5.23687500000000         0.000000000000000E+000
   5.45062500000000         0.000000000000000E+000
   5.66437500000000         0.000000000000000E+000
   5.87812500000000         0.000000000000000E+000
   6.09187500000000         0.000000000000000E+000
   6.30562500000000         0.000000000000000E+000
   6.51937500000000         0.000000000000000E+000
   6.73312500000000         0.000000000000000E+000
   6.94687500000000         0.000000000000000E+000
   7.16062500000000         0.000000000000000E+000
   7.37437500000000         0.000000000000000E+000
   7.58812500000000         0.000000000000000E+000
   7.80187500000000         0.000000000000000E+000
   8.01562500000000         0.000000000000000E+000
   8.22937500000000         0.000000000000000E+000
   8.44312500000000         0.000000000000000E+000
   8.65687500000000         0.000000000000000E+000
   8.87062500000000         0.000000000000000E+000
   9.08437500000000         0.000000000000000E+000
   9.29812500000000         0.000000000000000E+000
   9.51187500000000         0.000000000000000E+000
   9.72562500000000         0.000000000000000E+000
   9.93937500000000         0.000000000000000E+000
   10.1531250000000        -1.640224382183230E-218
   10.3668750000000        -1.199095849562349E-206
   10.5806250000000        -8.137343188233030E-198
   10.7943750000000         8.323952412600363E-195
   11.0081250000000         9.551566579438309E-191
   11.2218750000000         7.536141939439004E-189
   11.4356250000000         4.635019636548064E-187
   11.6493750000000         2.400525244170482E-185
   11.8631250000000         1.016933730985250E-183
   12.0768750000000         3.388374837040029E-182
   12.2906250000000         8.790344109681766E-181
   12.5043750000000         1.797295363536241E-179
   12.7181250000000         2.948798621351625E-178
   12.9318750000000         3.940449742066575E-177
   13.1456250000000         4.320938412432372E-176
   13.3593750000000         3.872236536814043E-175
   13.5731250000000         2.764736982503090E-174
   13.7868750000000         1.450986367178963E-173
   14.0006250000000         3.947338580502845E-173
   14.2143750000000        -1.580734771705655E-172
   14.4281250000000        -2.339872637336888E-171
   14.6418750000000        -3.083202540066620E-171
   14.8556250000000         2.310194428993809E-169
   15.0693750000000         4.090364934090788E-168
   15.2831250000000         4.607826789954615E-167
   15.4968750000000         4.127138201679209E-166
   15.7106250000000         3.155503893919826E-165
   15.9243750000000         2.127640700885344E-164
   16.1381250000000         1.287006970429384E-163
   16.3518750000000         7.046609017861656E-163
   16.5656250000000         3.502840648047332E-162
   16.7793750000000         1.576498685350822E-161
   16.9931250000000         6.352655730306872E-161
   17.2068750000000         2.228779690620174E-160
   17.4206250000000         6.312520079797770E-160
   17.6343750000000         1.047423942045032E-159
   17.8481250000000        -2.636198977926270E-159
   18.0618750000000        -3.724194055362980E-158
   18.2756250000000        -2.363707847319665E-157
   18.4893750000000        -1.165539035912200E-156
   18.7031250000000        -4.922319795952314E-156
   18.9168750000000        -1.832204808989329E-155
   19.1306250000000        -6.013419718841296E-155
   19.3443750000000        -1.691402113375466E-154
   19.5581250000000        -3.683033695942434E-154
   19.7718750000000        -3.340208029843086E-154
   19.9856250000000         2.325953781827326E-153
   20.1993750000000         1.934990635351254E-152
   20.4131250000000         9.897110014081301E-152
   20.6268750000000         4.183406039252294E-151
   20.8406250000000         1.575329800017398E-150
   21.0543750000000         5.450399129067329E-150
   21.2681250000000         1.759884023263325E-149
   21.4818750000000         5.350194823188878E-149
   21.6956250000000         1.539381736040615E-148
   21.9093750000000         4.204481346836124E-148
   22.1231250000000         1.091653056021554E-147
   22.3368750000000         2.694735663702748E-147
   22.5506250000000         6.316963079456134E-147
   22.7643750000000         1.402565258490327E-146
   22.9781250000000         2.936026628025464E-146
   23.1918750000000         5.750241910926647E-146
   23.4056250000000         1.039952846091685E-145
   23.6193750000000         1.695067053710390E-145
   23.8331250000000         2.360990281385918E-145
   24.0468750000000         2.385315494572790E-145
   24.2606250000000         1.444397466397968E-146
   24.4743750000000        -7.674475624943157E-145
   24.6881250000000        -2.697304664847928E-144
   24.9018750000000        -6.773742625217273E-144
   25.1156250000000        -1.495469001103371E-143
   25.3293750000000        -3.266686753712920E-143
   25.5431250000000        -7.880272800864585E-143
   25.7568750000000        -2.200669966333553E-142
   25.9706250000000        -6.757587863709025E-142
   26.1843750000000        -2.108272997890965E-141
   26.3981250000000        -6.366047458393793E-141
   26.6118750000000        -1.825179827585752E-140
   26.8256250000000        -4.945528403215313E-140
   27.0393750000000        -1.267274421422634E-139
   27.2531250000000        -3.076837640214405E-139
   27.4668750000000        -7.088939518947719E-139
   27.6806250000000        -1.550622721501314E-138
   27.8943750000000        -3.216786570153221E-138
   28.1081250000000        -6.308774651194030E-138
   28.3218750000000        -1.162117771398333E-137
   28.5356250000000        -1.985742635473689E-137
   28.7493750000000        -3.068811538681200E-137
   28.9631250000000        -4.036543651286063E-137
   29.1768750000000        -3.643777675639141E-137
   29.3906250000000         1.302519545516817E-137
   29.6043750000000         1.802639082992764E-136
   29.8181250000000         6.169458447435426E-136
   30.0318750000000         1.626919917805864E-135
   30.2456250000000         3.801747149377161E-135
   30.4593750000000         8.272745987120751E-135
   30.6731250000000         1.716928712566685E-134
   30.8868750000000         3.440178010195499E-134
   31.1006250000000         6.683053280297263E-134
   31.3143750000000         1.255129018814451E-133
   31.5281250000000         2.255144741742412E-133
   31.7418750000000         3.796844608590972E-133
   31.9556250000000         5.751089817671188E-133
   32.1693750000000         7.084898497334351E-133
   32.3831250000000         4.372257677750992E-133
   32.5968750000000        -1.119704659301045E-132
   32.8106250000000        -5.905121805126263E-132
   33.0243750000000        -1.769147336536608E-131
   33.2381250000000        -4.289750072354469E-131
   33.4518750000000        -9.070718807875158E-131
   33.6656250000000        -1.706183032835857E-130
   33.8793750000000        -2.836304850034302E-130
   34.0931250000000        -4.006560521988291E-130
   34.3068750000000        -4.193692441116529E-130
   34.5206250000000        -9.146778144127890E-131
   34.7343750000000         1.077682092521183E-129
   34.9481250000000         3.925354093449631E-129
   35.1618750000000         9.628636213161309E-129
   35.3756250000000         1.939836688021148E-128
   35.5893750000000         3.351705716767675E-128
   35.8031250000000         4.923424429754361E-128
   36.0168750000000         5.706467732707583E-128
   36.2306250000000         3.553282681861062E-128
   36.4443750000000        -5.415976327513015E-128
   36.6581250000000        -2.691674512428295E-127
   36.8718750000000        -6.727758331532975E-127
   37.0856250000000        -1.294667798606226E-126
   37.2993750000000        -2.047074860823460E-126
   37.5131250000000        -2.589141029433855E-126
   37.7268750000000        -2.166704325164531E-126
   37.9406250000000         4.646986490104558E-127
   38.1543750000000         6.783411389970942E-126
   38.3681250000000         1.746931831538917E-125
   38.5818750000000         2.999989109322228E-125
   38.7956250000000         3.441178626303285E-125
   39.0093750000000         7.692177710569851E-126
   39.2231250000000        -9.016903729707034E-125
   39.4368750000000        -3.101246229791298E-124
   39.6506250000000        -6.807575333973245E-124
   39.8643750000000        -1.118692866162487E-123
   40.0781250000000        -1.244344837570042E-123
   40.2918750000000        -7.233483591794942E-125
   40.5056250000000         4.397956331380674E-123
   40.7193750000000         1.550640738087193E-122
   40.9331250000000         3.764121828197799E-122
   41.1468750000000         7.418799594223669E-122
   41.3606250000000         1.216619489544351E-121
   41.5743750000000         1.569559927136480E-121
   41.7881250000000         1.142627880936758E-121
   42.0018750000000        -1.497325766679135E-121
   42.2156250000000        -8.958556715984912E-121
   42.4293750000000        -2.521541309575248E-120
   42.6431250000000        -5.494109889648337E-120
   42.8568750000000        -1.006862098249116E-119
   43.0706250000000        -1.557284630729718E-119
   43.2843750000000        -1.896064848664850E-119
   43.4981250000000        -1.234865474792375E-119
   43.7118750000000         2.044816208710431E-119
   43.9256250000000         1.074338483780806E-118
   44.1393750000000         2.889782523040119E-118
   44.3531250000000         6.085790600204593E-118
   44.5668750000000         1.081261971444607E-117
   44.7806250000000         1.620239568111396E-117
   44.9943750000000         1.898353015509478E-117
   45.2081250000000         1.128463134117155E-117
   45.4218750000000        -2.216428388357523E-117
   45.6356250000000        -1.062977856655256E-116
   45.8493750000000        -2.744837273776139E-116
   46.0631250000000        -5.578411767313714E-116
   46.2768750000000        -9.551972697432856E-116
   46.4906250000000        -1.370197518391244E-115
   46.7043750000000        -1.502505648599844E-115
   46.9181250000000        -6.916975632035518E-116
   47.1318750000000         2.252715464621986E-115
   47.3456250000000         9.127868611710403E-115
   47.5593750000000         2.208601781317846E-114
   47.7731250000000         4.263922746997720E-114
   47.9868750000000         6.931129424639283E-114
   48.2006250000000         9.324660904706361E-114
   48.4143750000000         9.137724200007984E-114
   48.6281250000000         1.785659031433304E-114
   48.8418750000000        -2.029965594404927E-113
   49.0556250000000        -6.744075108322870E-113
   49.2693750000000        -1.500810221271395E-112
   49.4831250000000        -2.714693071308598E-112
   49.6968750000000        -4.128271694919281E-112
   49.9106250000000        -5.086701053978347E-112
   50.1243750000000        -4.129467570498935E-112
   50.3381250000000         1.358283939725216E-112
   50.5518750000000         1.528011054579514E-111
   50.7656250000000         4.230155632774845E-111
   50.9793750000000         8.593574148523286E-111
   51.1931250000000         1.442739872932122E-110
   51.4068750000000         2.024164675307226E-110
   51.6206250000000         2.213439242350335E-110
   51.8343750000000         1.249103085871097E-110
   52.0481250000000        -2.094905535483143E-110
   52.2618750000000        -9.447503133931789E-110
   52.4756250000000        -2.242198355404817E-109
   52.6893750000000        -4.155746795956584E-109
   52.9031250000000        -6.431127592189273E-109
   53.1168750000000        -8.192394157717117E-109
   53.3306250000000        -7.541705441138139E-109
   53.5443750000000        -1.191315753161791E-109
   53.7581250000000         1.559660584566810E-108
   53.9718750000000         4.826920489049558E-108
   54.1856250000000         1.007141865893922E-107
   54.3993750000000         1.706036853416394E-107
   54.6131250000000         2.416854914287169E-107
   54.8268750000000         2.732251527862411E-107
   55.0406250000000         1.887832022032734E-107
   55.2543750000000        -1.300030104784591E-107
   55.4681250000000        -8.339173579166025E-107
   55.6818750000000        -2.064394131256497E-106
   55.8956250000000        -3.858596661322380E-106
   56.1093750000000        -5.982167598554407E-106
   56.3231250000000        -7.685438184680317E-106
   56.5368750000000        -7.416519211564480E-106
   56.7506250000000        -2.594200141999250E-106
   56.9643750000000         1.035148071953506E-105
   57.1781250000000         3.533419773670379E-105
   57.3918750000000         7.491175390337462E-105
   57.6056250000000         1.270668752332723E-104
   57.8193750000000         1.802223944324360E-104
   58.0331250000000         2.068813448299175E-104
   58.2468750000000         1.575289024081019E-104
   58.4606250000000        -4.160043817293678E-105
   58.6743750000000        -4.807347367088262E-104
   58.8881250000000        -1.240073624402409E-103
   59.1018750000000        -2.334772852461479E-103
   59.3156250000000        -3.624149032071779E-103
   59.5293750000000        -4.687369601194587E-103
   59.7431250000000        -4.687997332682226E-103
   59.9568750000000        -2.283057342212371E-103
   60.1706250000000         4.322177944707187E-103
   60.3843750000000         1.702305788561016E-102
   60.5981250000000         3.698433519769800E-102
   60.8118750000000         6.316435940071235E-102
   61.0256250000000         9.015422359240484E-102
   61.2393750000000         1.055822714815580E-101
   61.4531250000000         8.784422211227589E-102
   61.6668750000000         5.653412100044261E-103
   61.8806250000000        -1.782332424774901E-101
   62.0943750000000        -4.960404842573157E-101
   62.3081250000000        -9.536132844979313E-101
   62.5218750000000        -1.496891365201855E-100
   62.7356250000000        -1.968191478778953E-100
   62.9493750000000        -2.061317995220604E-100
   63.1631250000000        -1.295242626316459E-100
   63.3768750000000         9.604469280010336E-101
   63.5906250000000         5.362161131790247E-100
   63.8043750000000         1.231886515471931E-099
   64.0181250000000         2.152790301170212E-099
   64.2318750000000         3.132188662076940E-099
   64.4456250000000         3.791609139644271E-099
   64.6593750000000         3.478743421564796E-099
   64.8731250000000         1.260564484204512E-099
   65.0868750000000        -3.965921537273015E-099
   65.3006250000000        -1.316867800233117E-098
   65.5143750000000        -2.660945473667303E-098
   65.7281250000000        -4.297558326207928E-098
   65.9418750000000        -5.828117525862251E-098
   66.1556250000000        -6.477306515568580E-098
   66.3693750000000        -5.031770883328836E-098
   66.5831250000000         9.722268319633666E-100
   66.7968750000000         1.058672058068004E-097
   67.0106250000000         2.758342266733555E-097
   67.2243750000000         5.067792979725801E-097
   67.4381250000000         7.649134281180215E-097
   67.6518750000000         9.707458400911912E-097
   67.8656250000000         9.859687747127098E-097
   68.0793750000000         6.114973836737043E-097
   68.2931250000000        -3.915556728493245E-097
   68.5068750000000        -2.244077525679536E-096
   68.7206250000000        -5.041919551584442E-096
   68.9343750000000        -8.595140471060698E-096
   69.1481250000000        -1.222628081989691E-095
   69.3618750000000        -1.456886466868123E-095
   69.5756250000000        -1.344613542980657E-095
   69.7893750000000        -5.953506949857961E-096
   70.0031250000000         1.109642460001043E-095
   70.2168750000000         4.020145975345069E-095
   70.4306250000000         8.155757015569202E-095
   70.6443750000000         1.308380720697230E-094
   70.8581250000000         1.766570435885627E-094
   71.0718750000000         1.983951786676091E-094
   71.2856250000000         1.655389412506471E-094
   71.4993750000000         4.014248836671553E-095
   71.7131250000000        -2.157182305978728E-094
   71.9268750000000        -6.258389341543876E-094
   72.1406250000000        -1.178474980172709E-093
   72.3543750000000        -1.799091625848320E-093
   72.5681250000000        -2.322153236824382E-093
   72.7818750000000        -2.471375966780637E-093
   72.9956250000000        -1.862866963270738E-093
   73.2093750000000        -4.959712860159719E-095
   73.4231250000000         3.373551852011617E-093
   73.6368750000000         8.590319953386941E-093
   73.8506250000000         1.531009459012258E-092
   74.0643750000000         2.246891977785332E-092
   74.2781250000000         2.795065038202700E-092
   74.4918750000000         2.844146551722516E-092
   74.7056250000000         1.957681776615743E-092
   74.9193750000000        -3.432141144484668E-093
   75.1331250000000        -4.451921713633019E-092
   75.3468750000000        -1.047405558219126E-091
   75.5606250000000        -1.795969391565266E-091
   75.7743750000000        -2.560770150626512E-091
   75.9881250000000        -3.101824703914043E-091
   76.2018750000000        -3.061248923273432E-091
   76.4156250000000        -1.987488238134978E-091
   76.6293750000000         5.913034205942650E-092
   76.8431250000000         5.030958022003964E-091
   77.0568750000000         1.136811369947568E-090
   77.2706250000000         1.906453438806434E-090
   77.4843750000000         2.674045610656651E-090
   77.6981250000000         3.197228342578816E-090
   77.9118750000000         3.126460080587850E-090
   78.1256250000000         2.033186167910841E-090
   78.3393750000000        -5.172923169877063E-091
   78.5531250000000        -4.838340472612464E-090
   78.7668750000000        -1.093942907041773E-089
   78.9806250000000        -1.830405410637970E-089
   79.1943750000000        -2.566602641949729E-089
   79.4081250000000        -3.084830232262144E-089
   79.6218750000000        -3.075378581669306E-089
   79.8356250000000        -2.161394085407818E-089
   80.0493750000000         4.016222710140860E-091
   80.2631250000000         3.814441851340273E-089
   80.4768750000000         9.201814880615077E-089
   80.6906250000000         1.582025446614182E-088
   80.9043750000000         2.268499047683304E-088
   81.1181250000000         2.807170079921625E-088
   81.3318750000000         2.948692111591963E-088
   81.5456250000000         2.382108031508558E-088
   81.7593750000000         7.759567253264738E-089
   81.9731250000000        -2.149097129791807E-088
   82.1868750000000        -6.514600736190323E-088
   82.4006250000000        -1.215104696229580E-087
   82.6143750000000        -1.845203873879520E-087
   82.8281250000000        -2.424258578560629E-087
   83.0418750000000        -2.770070339913772E-087
   83.2556250000000        -2.638278702473711E-087
   83.4693750000000        -1.741071221606510E-087
   83.6831250000000         2.121068153047790E-088
   83.8968750000000         3.447093336204329E-087
   84.1106250000000         8.028691030164832E-087
   84.3243750000000         1.373808003485060E-086
   84.5381250000000         1.993382367845217E-086
   84.7518750000000         2.541659381826622E-086
   84.9656250000000         2.833112549790141E-086
   85.1793750000000         2.615486242794997E-086
   85.3931250000000         1.583946783228512E-086
   85.6068750000000        -5.814978592211148E-087
   85.8206250000000        -4.146935707938275E-086
   86.0343750000000        -9.217057588830394E-086
   86.2481250000000        -1.558733499115293E-085
   86.4618750000000        -2.256365286990628E-085
   86.6756250000000        -2.877292905760186E-085
   86.8893750000000        -3.201047455984031E-085
   87.1031250000000        -2.919715607371080E-085
   87.3168750000000        -1.654749406542030E-085
   87.5306250000000         9.929671056592175E-086
   87.7443750000000         5.347637099036423E-085
   87.9581250000000         1.150928023593604E-084
   88.1718750000000         1.915177296138607E-084
   88.3856250000000         2.728612131034812E-084
   88.5993750000000         3.403167300209484E-084
   88.8131250000000         3.646929800030302E-084
   89.0268750000000         3.068379854688048E-084
   89.2406250000000         1.212911285652019E-084
   89.4543750000000        -2.354423334261074E-084
   89.6681250000000        -7.909192060249766E-084
   89.8818750000000        -1.536900435228231E-083
   90.0956250000000        -2.405029022213526E-083
   90.3093750000000        -3.241849508858633E-083
   90.5231250000000        -3.789985982255488E-083
   90.7368750000000        -3.685490866256695E-083
   90.9506250000000        -2.483937704325873E-083
   91.1643750000000         2.714584239767392E-084
   91.3781250000000         4.929081838977183E-083
   91.5918750000000         1.155258033838580E-082
   91.8056250000000         1.969997125499608E-082
   92.0193750000000         2.818979359708376E-082
   92.2331250000000         3.491178025968864E-082
   92.4468750000000         3.676688265495355E-082
   92.6606250000000         2.984350535748466E-082
   92.8743750000000         9.943565776034665E-083
   93.0881250000000        -2.644881980897917E-082
   93.3018750000000        -8.072436469557407E-082
   93.5156250000000        -1.503110677283691E-081
   93.7293750000000        -2.266857723921740E-081
   93.9431250000000        -2.936842374601584E-081
   94.1568750000000        -3.267769944506020E-081
   94.3706250000000        -2.941557574100593E-081
   94.5843750000000        -1.605365421205270E-081
   94.7981250000000         1.055621202532978E-081
   95.0118750000000         5.207603997334526E-081
   95.2256250000000         1.072504762261063E-080
   95.4393750000000         1.703259318572934E-080
   95.6531250000000         2.296508423024723E-080
   95.8668750000000         2.669532105079369E-080
   96.0806250000000         2.579291779467538E-080
   96.2943750000000         1.748310357919314E-080
   96.5081250000000        -8.352939595397842E-082
   96.7218750000000        -3.078513441455219E-080
   96.9356250000000        -7.195126452186601E-080
   97.1493750000000        -1.206860513133288E-079
   97.3631250000000        -1.690127548885857E-079
   97.5768750000000        -2.039806384345986E-079
   97.7906250000000        -2.079290633431175E-079
   98.0043750000000        -1.601643167150697E-079
   98.2181250000000        -4.049445903476335E-080
   98.4318750000000         1.651461173419086E-079
   98.6456250000000         4.571595746673882E-079
   98.8593750000000         8.136292432808404E-079
   99.0731250000000         1.182131238811418E-078
   99.2868750000000         1.474461048477767E-078
   99.5006250000000         1.567472702012273E-078
   99.7143750000000         1.313595609463593E-078
   99.9281250000000         5.642454944836640E-079
   100.141875000000        -7.920685145251852E-079
   100.355625000000        -2.777900186926156E-078
   100.569375000000        -5.266450636894890E-078
   100.783125000000        -7.923165917660979E-078
   100.996875000000        -1.016587617707589E-077
   101.210625000000        -1.116521682438792E-077
   101.424375000000        -9.909726375967050E-078
   101.638125000000        -5.357852110792508E-078
   101.851875000000         3.310240947428382E-078
   102.065625000000         1.634654768046174E-077
   102.279375000000         3.302832361633131E-077
   102.493125000000         5.126006769615683E-077
   102.706875000000         6.729355989083756E-077
   102.920625000000         7.570962966902477E-077
   103.134375000000         6.982270957842618E-077
   103.348125000000         4.265465751486401E-077
   103.561875000000        -1.143739516063945E-077
   103.775625000000        -9.451506567219228E-077
   103.989375000000        -2.024132498752329E-076
   104.203125000000        -3.221472360282470E-076
   104.416875000000        -4.300770847679662E-076
   104.630625000000        -4.917505667987221E-076
   104.844375000000        -4.644484866029811E-076
   105.058125000000        -3.033509609119941E-076
   105.271875000000         2.816354344947438E-077
   105.485625000000         5.443517727916207E-076
   105.699375000000         1.220496237099511E-075
   105.913125000000         1.976735739885385E-075
   106.126875000000         2.666768590066217E-075
   106.340625000000         3.077149578242398E-075
   106.554375000000         2.943442513084877E-075
   106.768125000000         1.988714068688327E-075
   106.981875000000        -1.278784103923950E-077
   107.195625000000        -3.148812257289913E-075
   107.409375000000        -7.268310820417139E-075
   107.623125000000        -1.188463804617247E-074
   107.836875000000        -1.610983735134066E-074
   108.050625000000        -1.865437860367333E-074
   108.264375000000        -1.792922044338189E-074
   108.478125000000        -1.228149624869665E-074
   108.691875000000        -3.783937969538806E-076
   108.905625000000         1.827598528875765E-074
   109.119375000000         4.274842866738873E-074
   109.333125000000         7.011790390213245E-074
   109.546875000000         9.511081762479872E-074
   109.760625000000         1.101299069658392E-073
   109.974375000000         1.058862966537943E-073
   110.188125000000         7.280627390490502E-074
   110.401875000000         3.282081976204059E-075
   110.615625000000        -1.053394525412402E-073
   110.829375000000        -2.473805716776169E-073
   111.043125000000        -4.057062744343699E-073
   111.256875000000        -5.497680879941458E-073
   111.470625000000        -6.359409016601747E-073
   111.684375000000        -6.113059027971711E-073
   111.898125000000        -4.217900099361893E-073
   112.111875000000        -2.497246951426600E-074
   112.325625000000         5.931271489856552E-073
   112.539375000000         1.399319869304885E-072
   112.753125000000         2.296181961873617E-072
   112.966875000000         3.111754644249186E-072
   113.180625000000         3.602132214860433E-072
   113.394375000000         3.473109075302651E-072
   113.608125000000         2.425608423679669E-072
   113.821875000000         2.262525050808007E-073
   114.035625000000        -3.201010530302022E-072
   114.249375000000        -7.673576898193515E-072
   114.463125000000        -1.265876468998755E-071
   114.676875000000        -1.721964789692441E-071
   114.890625000000        -2.003057255065722E-071
   115.104375000000        -1.949460504106597E-071
   115.318125000000        -1.398710698741514E-071
   115.531875000000        -2.231643433604810E-072
   115.745625000000         1.621418022417846E-071
   115.959375000000         4.042307904856884E-071
   116.173125000000         6.761515364323105E-071
   116.386875000000         9.286942050174294E-071
   116.600625000000         1.091967925624933E-070
   116.814375000000         1.081397189361886E-070
   117.028125000000         8.102194609121316E-071
   117.241875000000         2.088024097144568E-071
   117.455625000000        -7.503458634687128E-071
   117.669375000000        -2.024894533945018E-070
   117.883125000000        -3.477476631793725E-070
   118.096875000000        -4.860046254501248E-070
   118.310625000000        -5.816175740053384E-070
   118.524375000000        -5.909605782831569E-070
   118.738125000000        -4.685354068240019E-070
   118.951875000000        -1.765252544040754E-070
   119.165625000000         3.027225583483795E-070
   119.379375000000         9.527194290850089E-070
   119.593125000000         1.709832898438729E-069
   119.806875000000         2.454694195838831E-069
   120.020625000000         3.012097708521769E-069
   120.234375000000         3.163502094333583E-069
   120.448125000000         2.675354506061054E-069
   120.661875000000         1.344424796442519E-069
   120.875625000000        -9.419237592362763E-070
   121.089375000000        -4.136927975410174E-069
   121.303125000000        -7.968406584151051E-069
   121.516875000000        -1.189155277643387E-068
   121.730625000000        -1.507988466204983E-068
   121.944375000000        -1.647428180768383E-068
   122.158125000000        -1.490648322694488E-068
   122.371875000000        -9.304623809226611E-069
   122.585625000000         1.026121848148090E-069
   122.799375000000         1.607436009145011E-068
   123.013125000000         3.479415067085156E-068
   123.226875000000         5.484937783303466E-068
   123.440625000000         7.251973379459151E-068
   123.654375000000         8.286278145491644E-068
   123.868125000000         8.021423769847752E-068