  -1.60312500000000         0.000000000000000E+000
  -1.38937500000000         0.000000000000000E+000
  -1.17562500000000         0.000000000000000E+000
 -0.961875000000000         0.000000000000000E+000
 -0.748125000000000         0.000000000000000E+000
 -0.534375000000000         0.000000000000000E+000
 -0.320625000000000         0.000000000000000E+000
 -0.106875000000000         0.000000000000000E+000
  0.106875000000000         0.000000000000000E+000
  0.320625000000000         0.000000000000000E+000
  0.534375000000000         0.000000000000000E+000
  0.748125000000000         0.000000000000000E+000
  0.961875000000000         0.000000000000000E+000
   1.17562500000000         0.000000000000000E+000
   1.38937500000000         0.000000000000000E+000
   1.60312500000000         0.000000000000000E+000
   1.81687500000000         0.000000000000000E+000
   2.03062500000000         0.000000000000000E+000
   2.24437500000000         0.000000000000000E+000
   2.45812500000000         0.000000000000000E+000
   2.67187500000000         0.000000000000000E+000
   2.88562500000000         0.000000000000000E+000
   3.09937500000000         0.000000000000000E+000
   3.31312500000000         0.000000000000000E+000
   3.52687500000000         0.000000000000000E+000
   3.74062500000000         0.000000000000000E+000
   3.95437500000000         0.000000000000000E+000
   4.16812500000000         0.000000000000000E+000
   4.38187500000000         0.000000000000000E+000
   4.59562500000000         0.000000000000000E+000
   4.80937500000000         0.000000000000000E+000
   5.02312500000000         0.000000000000000E+000
   5.23687500000000         0.000000000000000E+000
   5.45062500000000         0.000000000000000E+000
   5.66437500000000         0.000000000000000E+000
   5.87812500000000         0.000000000000000E+000
   6.09187500000000         0.000000000000000E+000
   6.30562500000000         0.000000000000000E+000
   6.51937500000000         0.000000000000000E+000
   6.73312500000000         0.000000000000000E+000
   6.94687500000000         0.000000000000000E+000
   7.16062500000000         0.000000000000000E+000
   7.37437500000000         0.000000000000000E+000
   7.58812500000000         0.000000000000000E+000
   7.80187500000000         0.000000000000000E+000
   8.01562500000000         0.000000000000000E+000
   8.22937500000000         0.000000000000000E+000
   8.44312500000000         0.000000000000000E+000
   8.65687500000000         0.000000000000000E+000
   8.87062500000000         0.000000000000000E+000
   9.08437500000000         0.000000000000000E+000
   9.29812500000000         0.000000000000000E+000
   9.51187500000000         0.000000000000000E+000
   9.72562500000000         0.000000000000000E+000
   9.93937500000000        -1.036949750650768E-216
   10.1531250000000        -1.846430405162626E-204
   10.3668750000000         5.624020638326257E-197
   10.5806250000000        -3.245839577979102E-193
   10.7943750000000         4.216574316369779E-190
   11.0081250000000        -8.872301187166107E-189
   11.2218750000000        -1.762640900489596E-186
   11.4356250000000        -9.362467385444424E-185
   11.6493750000000        -3.896722879855254E-183
   11.8631250000000        -1.345515476276367E-181
   12.0768750000000        -3.622472213301796E-180
   12.2906250000000        -7.473567977409539E-179
   12.5043750000000        -1.186487112439642E-177
   12.7181250000000        -1.437533488473863E-176
   12.9318750000000        -1.245512128676350E-175
   13.1456250000000        -5.252245206740539E-175
   13.3593750000000         5.515325300687911E-174
   13.5731250000000         1.639223471690553E-172
   13.7868750000000         2.404600143276020E-171
   14.0006250000000         2.680346843232084E-170
   14.2143750000000         2.501141974693698E-169
   14.4281250000000         2.034038169242134E-168
   14.6418750000000         1.473339136517943E-167
   14.8556250000000         9.638055982765678E-167
   15.0693750000000         5.752144956502678E-166
   15.2831250000000         3.159520985096092E-165
   15.4968750000000         1.611893982956881E-164
   15.7106250000000         7.725879361155660E-164
   15.9243750000000         3.534152934198164E-163
   16.1381250000000         1.575757694637569E-162
   16.3518750000000         7.014631442063970E-162
   16.5656250000000         3.178494161866183E-161
   16.7793750000000         1.473203501770400E-160
   16.9931250000000         6.899725616853415E-160
   17.2068750000000         3.194252776405205E-159
   17.4206250000000         1.429317012475670E-158
   17.6343750000000         6.069152923450834E-158
   17.8481250000000         2.409608756569397E-157
   18.0618750000000         8.818026203646362E-157
   18.2756250000000         2.918423250527608E-156
   18.4893750000000         8.439605653205099E-156
   18.7031250000000         1.959190755666276E-155
   18.9168750000000         2.531025986475171E-155
   19.1306250000000        -6.800200121063143E-155
   19.3443750000000        -7.087402860265527E-154
   19.5581250000000        -3.566367711221958E-153
   19.7718750000000        -1.368487263420946E-152
   19.9856250000000        -4.263482539885765E-152
   20.1993750000000        -1.027283072072382E-151
   20.4131250000000        -1.332954769927291E-151
   20.6268750000000         3.978738003806846E-151
   20.8406250000000         4.167598237598917E-150
   21.0543750000000         2.207029591544860E-149
   21.2681250000000         9.302852542755363E-149
   21.4818750000000         3.430494948226497E-148
   21.6956250000000         1.147175516169365E-147
   21.9093750000000         3.537941871766672E-147
   22.1231250000000         1.014603229361580E-146
   22.3368750000000         2.714268831528376E-146
   22.5506250000000         6.768560328318825E-146
   22.7643750000000         1.565496801389674E-145
   22.9781250000000         3.320569931784192E-145
   23.1918750000000         6.309318515637341E-145
   23.4056250000000         1.016888633231204E-144
   23.6193750000000         1.165443205967055E-144
   23.8331250000000        -5.524307849627901E-146
   24.0468750000000        -5.626280121189374E-144
   24.2606250000000        -2.205937207592726E-143
   24.4743750000000        -6.120580741225789E-143
   24.6881250000000        -1.398611709928983E-142
   24.9018750000000        -2.711027457398146E-142
   25.1156250000000        -4.362816141321078E-142
   25.3293750000000        -5.266122915905936E-142
   25.5431250000000        -2.707884853254647E-142
   25.7568750000000         7.210007687036795E-142
   25.9706250000000         2.338004313527504E-141
   26.1843750000000         1.541107959677605E-141
   26.3981250000000        -1.467092915789515E-140
   26.6118750000000        -8.639518961269382E-140
   26.8256250000000        -3.173781699571813E-139
   27.0393750000000        -9.441731554180062E-139
   27.2531250000000        -2.451706846713911E-138
   27.4668750000000        -5.740023944100935E-138
   27.6806250000000        -1.231930791587848E-137
   27.8943750000000        -2.445633127468896E-137
   28.1081250000000        -4.511529766177265E-137
   28.3218750000000        -7.743308311998491E-137
   28.5356250000000        -1.232901724225987E-136
   28.7493750000000        -1.799510294701849E-136
   28.9631250000000        -2.315567031228916E-136
   29.1768750000000        -2.252287915121509E-136
   29.3906250000000        -2.637956907328659E-138
   29.6043750000000         8.852716046051041E-136
   29.8181250000000         3.635836692468705E-135
   30.0318750000000         1.120895427809222E-134
   30.2456250000000         3.031533627118910E-134
   30.4593750000000         7.476022126437404E-134
   30.6731250000000         1.698775879110055E-133
   30.8868750000000         3.556469269066414E-133
   31.1006250000000         6.810223270620395E-133
   31.3143750000000         1.172338556194777E-132
   31.5281250000000         1.743611151313207E-132
   31.7418750000000         1.998964663631806E-132
   31.9556250000000         8.684723577413660E-133
   32.1693750000000        -3.956294474881420E-132
   32.3831250000000        -1.671876486149566E-131
   32.5968750000000        -4.412464094231647E-131
   32.8106250000000        -9.499584115468466E-131
   33.0243750000000        -1.778032918540330E-130
   33.2381250000000        -2.943022720822848E-130
   33.4518750000000        -4.272612691700303E-130
   33.6656250000000        -5.205380486913938E-130
   33.8793750000000        -4.500663934995752E-130
   34.0931250000000         1.730844344065616E-131
   34.3068750000000         1.287705307877203E-129
   34.5206250000000         4.054202505612059E-129
   34.7343750000000         9.507663177435721E-129
   34.9481250000000         1.967214623273636E-128
   35.1618750000000         3.772258228857591E-128
   35.3756250000000         6.760203925922862E-128
   35.5893750000000         1.110595501844175E-127
   35.8031250000000         1.582973873800188E-127
   36.0168750000000         1.666434657821926E-127
   36.2306250000000         2.345308875856891E-128
   36.4443750000000        -4.970995988726407E-127
   36.6581250000000        -1.734275040307345E-126
   36.8718750000000        -3.966704763235278E-126
   37.0856250000000        -6.805501734171869E-126
   37.2993750000000        -7.783647553341980E-126
   37.5131250000000         1.142950469702031E-127
   37.7268750000000         3.139532929380831E-125
   37.9406250000000         1.084116396725947E-124
   38.1543750000000         2.507483130921655E-124
   38.3681250000000         4.363859867247113E-124
   38.5818750000000         5.069017773165666E-124
   38.7956250000000        -1.373462992453264E-125
   39.0093750000000        -2.187656160694415E-123
   39.2231250000000        -7.909063971517426E-123
   39.4368750000000        -1.974888380723533E-122
   39.6506250000000        -3.950612885769707E-122
   39.8643750000000        -6.379827115904439E-122
   40.0781250000000        -7.422011635975280E-122
   40.2918750000000        -1.961070487374630E-122
   40.5056250000000         2.092403084060823E-121
   40.7193750000000         8.028966036987417E-121
   40.9331250000000         2.024018688507913E-120
   41.1468750000000         4.096644341099075E-120
   41.3606250000000         6.869115112213420E-120
   41.5743750000000         9.068799908934925E-120
   41.7881250000000         6.963649279777334E-120
   42.0018750000000        -7.580935842097507E-120
   42.2156250000000        -4.909209266405767E-119
   42.4293750000000        -1.386888924084597E-118
   42.6431250000000        -2.983472521702780E-118
   42.8568750000000        -5.317212132956568E-118
   43.0706250000000        -7.804553249167447E-118
   43.2843750000000        -8.440005356319562E-118
   43.4981250000000        -2.588854115100263E-118
   43.7118750000000         1.838824676860215E-117
   43.9256250000000         6.780891644114849E-117
   44.1393750000000         1.616233111472972E-116
   44.3531250000000         3.099316277103501E-116
   44.5668750000000         4.964501063657792E-116
   44.7806250000000         6.394128455589989E-116
   44.9943750000000         5.301462200693750E-116
   45.2081250000000        -2.433848394880882E-116
   45.4218750000000        -2.354703261470041E-115
   45.6356250000000        -6.697114618897263E-115
   45.8493750000000        -1.408770913702248E-114
   46.0631250000000        -2.447650355022122E-114
   46.2768750000000        -3.536360499858092E-114
   46.4906250000000        -3.919643099701446E-114
   46.7043750000000        -1.988468592799397E-114
   46.9181250000000         5.051926117043104E-114
   47.1318750000000         2.121985599032231E-113
   47.3456250000000         5.095407838836039E-113
   47.5593750000000         9.658827636345539E-113
   47.7731250000000         1.529515629949012E-112
   47.9868750000000         1.980400877740248E-112
   48.2006250000000         1.797133158682393E-112
   48.4143750000000         1.093636943919643E-114
   48.6281250000000        -4.872821127889532E-112
   48.8418750000000        -1.471883585343319E-111
   49.0556250000000        -3.109247798813483E-111
   49.2693750000000        -5.369272254143422E-111
   49.4831250000000        -7.748934639446992E-111
   49.6968750000000        -8.839611674317365E-111
   49.9106250000000        -5.801599713143015E-111
   50.1243750000000         6.054953366626705E-111
   50.3381250000000         3.314123630268471E-110
   50.5518750000000         8.214079981146788E-110
   50.7656250000000         1.561258101571892E-109
   50.9793750000000         2.469702981507141E-109
   51.1931250000000         3.232074490145948E-109
   51.4068750000000         3.140500901915939E-109
   51.6206250000000         9.375760396531699E-110
   51.8343750000000        -5.234676108372697E-109
   52.0481250000000        -1.759307370577438E-108
   52.2618750000000        -3.789491331958002E-108
   52.4756250000000        -6.569452688164193E-108
   52.6893750000000        -9.537763129977801E-108
   52.9031250000000        -1.119773084775802E-107
   53.1168750000000        -8.650002968876849E-108
   53.3306250000000         2.719359331696332E-108
   53.5443750000000         2.899440311842895E-107
   53.7581250000000         7.629010198984988E-107
   53.9718750000000         1.472817745296207E-106
   54.1856250000000         2.348727079311699E-106
   54.3993750000000         3.126533025783852E-106
   54.6131250000000         3.231350902335671E-106
   54.8268750000000         1.673060761755593E-106
   55.0406250000000        -2.969355960665315E-106
   55.2543750000000        -1.234753990382892E-105
   55.4681250000000        -2.775044127046007E-105
   55.6818750000000        -4.892173592839285E-105
   55.8956250000000        -7.215331350071314E-105
   56.1093750000000        -8.773279098907437E-105
   56.3231250000000        -7.726572178069285E-105
   56.5368750000000        -1.212315595443673E-105
   56.7506250000000         1.447392996501767E-104
   56.9643750000000         4.302702952930219E-104
   57.1781250000000         8.621018496423569E-104
   57.3918750000000         1.405102309414307E-103
   57.6056250000000         1.923092167729008E-103
   57.8193750000000         2.121866090324915E-103
   58.0331250000000         1.501509083994888E-103
   58.2468750000000        -6.468913524715776E-104
   58.4606250000000        -5.144871306747221E-103
   58.6743750000000        -1.265839813428136E-102
   58.8881250000000        -2.318417675293444E-102
   59.1018750000000        -3.524923717051616E-102
   59.3156250000000        -4.487269489761527E-102
   59.5293750000000        -4.450937684100287E-102
   59.7431250000000        -2.245729377594069E-102
   59.9568750000000         3.645557203515905E-102
   60.1706250000000         1.477614436873803E-101
   60.3843750000000         3.205121327761847E-101
   60.5981250000000         5.456585097870068E-101
   60.8118750000000         7.796296952441548E-101
   61.0256250000000         9.252643554923920E-101
   61.2393750000000         8.158221767778882E-101
   61.4531250000000         2.126865881888217E-101
   61.6668750000000        -1.167223433880608E-100
   61.8806250000000        -3.574231609413372E-100
   62.0943750000000        -7.079220364829520E-100
   62.3081250000000        -1.134738581862820E-099
   62.5218750000000        -1.534634437265924E-099
   62.7356250000000        -1.704558607902071E-099
   62.9493750000000        -1.322755989526879E-099
   63.1631250000000         3.921652630645437E-101
   63.3768750000000         2.846581475043322E-099
   63.5906250000000         7.443319481775730E-099
   63.8043750000000         1.378195445341656E-098
   64.0181250000000         2.103936607577051E-098
   64.2318750000000         2.716210153284997E-098
   64.4456250000000         2.845687188374216E-098
   64.6593750000000         1.943803914809728E-098
   64.8731250000000        -6.751697836307657E-099
   65.0868750000000        -5.695236000692262E-098
   65.3006250000000        -1.352368271859593E-097
   65.5143750000000        -2.385670433444321E-097
   65.7281250000000        -3.510255258911281E-097
   65.9418750000000        -4.375065447324639E-097
   66.1556250000000        -4.387937832228036E-097
   66.3693750000000        -2.712238502801052E-097
   66.5831250000000         1.646343447864366E-097
   66.7968750000000         9.611657477558400E-097
   67.0106250000000         2.162239152645850E-096
   67.2243750000000         3.701367728372274E-096
   67.4381250000000         5.323736094603860E-096
   67.6518750000000         6.506021403450216E-096
   67.8656250000000         6.401149089857152E-096
   68.0793750000000         3.850202770721208E-096
   68.2931250000000        -2.483060495747413E-096
   68.5068750000000        -1.379444349995885E-095
   68.7206250000000        -3.058907360002933E-095
   68.9343750000000        -5.188757337499258E-095
   69.1481250000000        -7.425158495459624E-095
   69.3618750000000        -9.080661292263737E-095
   69.5756250000000        -9.059165898599276E-095
   69.7893750000000        -5.873328384244003E-095
   70.0031250000000         2.191440506178544E-095
   70.2168750000000         1.669684496843142E-094
   70.4306250000000         3.839843851385245E-094
   70.6443750000000         6.630307598856823E-094
   70.8581250000000         9.650000493064127E-094
   71.0718750000000         1.209518999874859E-093
   71.2856250000000         1.265975094213765E-093
   71.4993750000000         9.530843229586170E-094
   71.7131250000000         5.422072378328998E-095
   71.9268750000000        -1.643213570031528E-093
   72.1406250000000        -4.276681298959604E-093
   72.3543750000000        -7.801343486116777E-093
   72.5681250000000        -1.184995024337141E-092
   72.7818750000000        -1.557554880938451E-092
   72.9956250000000        -1.751117864847836E-092
   73.2093750000000        -1.550424112511203E-092
   73.4231250000000        -6.809111463695758E-093
   73.6368750000000         1.155603845585004E-092
   73.8506250000000         4.207323339735712E-092
   74.0643750000000         8.551350419331289E-092
   74.2781250000000         1.392203214313072E-091
   74.4918750000000         1.949910307096635E-091
   74.7056250000000         2.368789302006359E-091
   74.9193750000000         2.395495918866815E-091
   75.1331250000000         1.682083582470276E-091
   75.3468750000000        -1.849034259314908E-092
   75.5606250000000        -3.608604626582779E-091
   75.7743750000000        -8.842684340366588E-091
   75.9881250000000        -1.577842315119373E-090
   76.2018750000000        -2.366294921630098E-090
   76.4156250000000        -3.078096137734313E-090
   76.6293750000000        -3.417346101257741E-090
   76.8431250000000        -2.952000064390915E-090
   77.0568750000000        -1.136802132942595E-090
   77.2706250000000         2.606219840429199E-090
   77.4843750000000         8.726204910212997E-090
   77.6981250000000         1.728421427306906E-089
   77.9118750000000         2.759822063506685E-089
   78.1256250000000         3.782837685609363E-089
   78.3393750000000         4.458999812949391E-089
   78.5531250000000         4.274755756741151E-089
   78.7668750000000         2.561310579863067E-089
   78.9806250000000        -1.417355028841983E-089
   79.1943750000000        -8.279998976213692E-089
   79.4081250000000        -1.822740539990873E-088
   79.6218750000000        -3.062801202069121E-088
   79.8356250000000        -4.353245297775434E-088
   80.0493750000000        -5.321837762322297E-088
   80.2631250000000        -5.394009737784049E-088
   80.4768750000000        -3.813244366896231E-088
   80.6906250000000         2.628922436680736E-089
   80.9043750000000         7.561281046717685E-088
   81.1181250000000         1.836711092437351E-087
   81.3318750000000         3.207909191138233E-087
   81.5456250000000         4.669527221447239E-087
   81.7593750000000         5.833987840490989E-087
   81.9731250000000         6.101477591983704E-087
   82.1868750000000         4.682993948469312E-087
   82.4006250000000         7.011095519451666E-088
   82.6143750000000        -6.603520776793276E-087
   82.8281250000000        -1.754395001690333E-086
   83.0418750000000        -3.154731711606027E-086
   83.2556250000000        -4.665686622113395E-086
   83.4693750000000        -5.908675937205293E-086
   83.6831250000000        -6.300740801627497E-086
   83.8968750000000        -5.079954360945816E-086
   84.1106250000000        -1.404640251861031E-086
   84.3243750000000         5.449579601748215E-086
   84.5381250000000         1.578331566590020E-085
   84.7518750000000         2.907089325816460E-085
   84.9656250000000         4.351402145185072E-085
   85.1793750000000         5.565472097850441E-085
   85.3931250000000         6.020649038283615E-085
   85.6068750000000         5.031037962159424E-085
   85.8206250000000         1.844202632246738E-085
   86.0343750000000        -4.183876928031746E-085
   86.2481250000000        -1.332198649161482E-084
   86.4618750000000        -2.511922613888497E-084
   86.6756250000000        -3.802989975942040E-084
   86.8893750000000        -4.909623121082209E-084
   87.1031250000000        -5.382148853242418E-084
   87.3168750000000        -4.640166991818700E-084
   87.5306250000000        -2.049485052853755E-084
   87.7443750000000         2.932615535081897E-084
   87.9581250000000         1.053901475302202E-083
   88.1718750000000         2.041427710537314E-083
   88.3856250000000         3.131497438642016E-083
   88.5993750000000         4.085984859102200E-083
   88.8131250000000         4.543415843028148E-083
   89.0268750000000         4.037836923494225E-083
   89.2406250000000         2.059746180854934E-083
   89.4543750000000        -1.830108780182950E-083
   89.6681250000000        -7.830969966201253E-083
   89.8818750000000        -1.568687521967723E-082
   90.0956250000000        -2.445614921412550E-082
   90.3093750000000        -3.231966270734678E-082
   90.5231250000000        -3.650646670682574E-082
   90.7368750000000        -3.343405328197586E-082
   90.9506250000000        -1.916431334212897E-082
   91.1643750000000         9.745349675390666E-083
   91.3781250000000         5.497373203968033E-082
   91.5918750000000         1.148288284080671E-081
   91.8056250000000         1.825240977827348E-081
   92.0193750000000         2.447347424981040E-081
   92.2331250000000         2.810088662326470E-081
   92.4468750000000         2.647432496104663E-081
   92.6606250000000         1.664606180845706E-081
   92.8743750000000        -4.003145214980793E-082
   93.0881250000000        -3.684348009495315E-081
   93.3018750000000        -8.082672560458671E-081
   93.5156250000000        -1.312273475204278E-080
   93.7293750000000        -1.785787677968191E-080
   93.9431250000000        -2.082173325025735E-080
   94.1568750000000        -2.009429352500729E-080
   94.3706250000000        -1.353242674975197E-080
   94.5843750000000         7.936015234698329E-082
   94.7981250000000         2.394578929966828E-080
   95.0118750000000         5.528607370060436E-080
   95.2256250000000         9.157927425119385E-080
   95.4393750000000         1.262333741592717E-079
   95.6531250000000         1.489688688698532E-079
   95.8668750000000         1.462754294338783E-079
   96.0806250000000         1.030247694343076E-079
   96.2943750000000         5.525386168619647E-081
   96.5081250000000        -1.539082773956627E-079
   96.7218750000000        -3.711656707194927E-079
   96.9356250000000        -6.241364617565728E-079
   97.1493750000000        -8.675145457994848E-079
   97.3631250000000        -1.030638163132500E-078
   97.5768750000000        -1.020824911049345E-078
   97.7906250000000        -7.346863735962331E-079
   98.0043750000000        -7.927138079678856E-080
   98.2181250000000         9.966445400512604E-079
   98.4318750000000         2.463364974477550E-078
   98.6456250000000         4.168931729167598E-078
   98.8593750000000         5.805492814067887E-078
   99.0731250000000         6.897146262953666E-078
   99.2868750000000         6.825567729305427E-078
   99.5006250000000         4.909371949594616E-078
   99.7143750000000         5.482421347673983E-079
   99.9281250000000        -6.568024214830125E-078
   100.141875000000        -1.620288343934546E-077
   100.355625000000        -2.730941985065044E-077
   100.569375000000        -3.782647970342117E-077
   100.783125000000        -4.462497914404125E-077
   100.996875000000        -4.370802215738210E-077
   101.210625000000        -3.076145002705887E-077
   101.424375000000        -2.114121984214922E-078
   101.638125000000         4.390814442424304E-077
   101.851875000000         1.053663851655998E-076
   102.065625000000         1.751089320466930E-076
   102.279375000000         2.396257854247560E-076
   102.493125000000         2.789271118418201E-076
   102.706875000000         2.680726942628339E-076
   102.920625000000         1.809001181928713E-076
   103.134375000000        -3.772189194024972E-078
   103.348125000000        -2.936928263165689E-076
   103.561875000000        -6.734309984757673E-076
   103.775625000000        -1.095180824821346E-075
   103.989375000000        -1.472865803374052E-075
   104.203125000000        -1.682977474252289E-075
   104.416875000000        -1.575739916109725E-075
   104.630625000000        -9.994834256889117E-076
   104.844375000000         1.607607023229077E-076
   105.058125000000         1.932619710392468E-075
   105.271875000000         4.200258860869693E-075
   105.485625000000         6.654443747538000E-075
   105.699375000000         8.765294772950971E-075
   105.913125000000         9.797419842300279E-075
   106.126875000000         8.886862512599715E-075
   106.340625000000         5.193817603424842E-075
   106.554375000000        -1.867071980535745E-075
   106.768125000000        -1.233624898586296E-074
   106.981875000000        -2.540113736637565E-074
   107.195625000000        -3.914056165213269E-074
   107.409375000000        -5.041613645703090E-074
   107.623125000000        -5.501789119296172E-074
   107.836875000000        -4.816328797782492E-074
   108.050625000000        -2.541071567540685E-074
   108.264375000000         1.602554651085468E-074
   108.478125000000         7.568190705298562E-074
   108.691875000000         1.482330681904197E-073
   108.905625000000         2.222618640224672E-073
   109.119375000000         2.799258303134973E-073
   109.333125000000         2.980760106468670E-073
   109.546875000000         2.513041587058583E-073
   109.760625000000         1.171527406888632E-073
   109.974375000000        -1.167042253855101E-073
   110.188125000000        -4.440989347536037E-073
   110.401875000000        -8.323202399038784E-073
   110.615625000000        -1.216558889645776E-072
   110.829375000000        -1.499518785431844E-072
   111.043125000000        -1.558931408687171E-072
   111.256875000000        -1.265122902984208E-072
   111.470625000000        -5.093605119211347E-073
   111.684375000000         7.586152622923286E-073
   111.898125000000         2.488552764141686E-072
   112.111875000000         4.491289287509143E-072
   112.325625000000         6.415298763346535E-072
   112.539375000000         7.751430305214713E-072
   112.753125000000         7.878695126742194E-072
   112.966875000000         6.160209616704163E-072
   113.180625000000         2.090566986453660E-072
   113.394375000000        -4.516074558672913E-072
   113.608125000000        -1.332310407741713E-071
   113.821875000000        -2.329594321365705E-071
   114.035625000000        -3.260991109176353E-071
   114.249375000000        -3.870434115030782E-071
   114.463125000000        -3.854070208379706E-071
   114.676875000000        -2.910088140328399E-071
   114.890625000000        -8.121111855481746E-072
   115.104375000000         2.500195605273541E-071
   115.318125000000         6.826821826442575E-071
   115.531875000000         1.163024055314039E-070
   115.745625000000         1.600195810517462E-070
   115.959375000000         1.870147221114346E-070
   116.173125000000         1.829255047931195E-070
   116.386875000000         1.339025725000141E-070
   116.600625000000         3.012125384105684E-071
   116.814375000000        -1.300089747436764E-070
   117.028125000000        -3.356057491440602E-070
   117.241875000000        -5.600308184402927E-070
   117.455625000000        -7.597775316403327E-070
   117.669375000000        -8.767925945512031E-070
   117.883125000000        -8.452703955776242E-070
   118.096875000000        -6.033865107980697E-070
   118.310625000000        -1.094963863003065E-070
   118.524375000000         6.389308713952305E-070
   118.738125000000         1.586794066325386E-069
   118.951875000000         2.607735151076143E-069
   119.165625000000         3.500772005510879E-069
   119.379375000000         4.002593688423441E-069
   119.593125000000         3.819734972322530E-069
   119.806875000000         2.682159229959127E-069
   120.020625000000         4.155475265064997E-070
   120.234375000000        -2.975891284661072E-069
   120.448125000000        -7.230303548292204E-069
   120.661875000000        -1.177241736347264E-068
   120.875625000000        -1.570410975304940E-068
   121.089375000000        -1.786389828741460E-068
   121.303125000000        -1.697223099360707E-068
   121.516875000000        -1.186744263497294E-068
   121.730625000000        -1.818938599697569E-069
   121.944375000000         1.311902829797533E-068
   122.158125000000         3.177459498692911E-068
   122.371875000000         5.163006022670946E-068
   122.585625000000         6.879436866368403E-068
   122.799375000000         7.826912645543594E-068
   123.013125000000         7.457555635226323E-068
   123.226875000000         5.275864762913201E-068
   123.440625000000         9.708326910591652E-069
   123.654375000000        -5.435799524086602E-068
   123.868125000000        -1.345086377754513E-067