  -1.60312500000000         0.000000000000000E+000
  -1.38937500000000         0.000000000000000E+000
  -1.17562500000000         0.000000000000000E+000
 -0.961875000000000         0.000000000000000E+000
 -0.748125000000000         0.000000000000000E+000
 -0.534375000000000         0.000000000000000E+000
 -0.320625000000000         0.000000000000000E+000
 -0.106875000000000         0.000000000000000E+000
  0.106875000000000         0.000000000000000E+000
  0.320625000000000         0.000000000000000E+000
  0.534375000000000         0.000000000000000E+000
  0.748125000000000         0.000000000000000E+000
  0.961875000000000         0.000000000000000E+000
   1.17562500000000         0.000000000000000E+000
   1.38937500000000         0.000000000000000E+000
   1.60312500000000         0.000000000000000E+000
   1.81687500000000         0.000000000000000E+000
   2.03062500000000         0.000000000000000E+000
   2.24437500000000         0.000000000000000E+000
   2.45812500000000         0.000000000000000E+000
   2.67187500000000         0.000000000000000E+000
   2.88562500000000         0.000000000000000E+000
   3.09937500000000         0.000000000000000E+000
   3.31312500000000         0.000000000000000E+000
   3.52687500000000         0.000000000000000E+000
   3.74062500000000         0.000000000000000E+000
   3.95437500000000         0.000000000000000E+000
   4.16812500000000         0.000000000000000E+000
   4.38187500000000         0.000000000000000E+000
   4.59562500000000         0.000000000000000E+000
   4.80937500000000         0.000000000000000E+000
   5.02312500000000         0.000000000000000E+000
   5.23687500000000         0.000000000000000E+000
   5.45062500000000         0.000000000000000E+000
   5.66437500000000         0.000000000000000E+000
   5.87812500000000         0.000000000000000E+000
   6.09187500000000         0.000000000000000E+000
   6.30562500000000         0.000000000000000E+000
   6.51937500000000         0.000000000000000E+000
   6.73312500000000         0.000000000000000E+000
   6.94687500000000         0.000000000000000E+000
   7.16062500000000         0.000000000000000E+000
   7.37437500000000         0.000000000000000E+000
   7.58812500000000         0.000000000000000E+000
   7.80187500000000         0.000000000000000E+000
   8.01562500000000         0.000000000000000E+000
   8.22937500000000         0.000000000000000E+000
   8.44312500000000         0.000000000000000E+000
   8.65687500000000         0.000000000000000E+000
   8.87062500000000         0.000000000000000E+000
   9.08437500000000         0.000000000000000E+000
   9.29812500000000         0.000000000000000E+000
   9.51187500000000         0.000000000000000E+000
   9.72562500000000         0.000000000000000E+000
   9.93937500000000         1.005047980241532E-218
   10.1531250000000        -1.213349417717793E-206
   10.3668750000000         5.914936563187014E-200
   10.5806250000000         2.580427570876374E-196
   10.7943750000000        -3.030367559689990E-192
   11.0081250000000        -4.700642113837707E-190
   11.2218750000000        -3.173519769056383E-188
   11.4356250000000        -1.227086458189050E-186
   11.6493750000000        -3.656786222400238E-185
   11.8631250000000        -9.321449861335487E-184
   12.0768750000000        -1.931594470490536E-182
   12.2906250000000        -2.978921815067206E-181
   12.5043750000000        -2.977757968306782E-180
   12.7181250000000        -8.083691957020964E-180
   12.9318750000000         3.366732785484719E-178
   13.1456250000000         7.518879560407293E-177
   13.3593750000000         8.797035278067174E-176
   13.5731250000000         5.497247176988975E-175
   13.7868750000000        -1.690994521588097E-174
   14.0006250000000        -1.011618780238588E-172
   14.2143750000000        -1.677536809008533E-171
   14.4281250000000        -1.983628509220658E-170
   14.6418750000000        -1.917914014315742E-169
   14.8556250000000        -1.594922865345642E-168
   15.0693750000000        -1.169355754375990E-167
   15.2831250000000        -7.660919593297591E-167
   15.4968750000000        -4.515470799401458E-166
   15.7106250000000        -2.398437130554169E-165
   15.9243750000000        -1.143463416918473E-164
   16.1381250000000        -4.832042104848450E-164
   16.3518750000000        -1.756143643367562E-163
   16.5656250000000        -5.063548849163111E-163
   16.7793750000000        -8.161171988325716E-163
   16.9931250000000         2.423464212199304E-162
   17.2068750000000         3.096139428039798E-161
   17.4206250000000         1.825686964407780E-160
   17.6343750000000         7.982647886592726E-160
   17.8481250000000         2.706261537702144E-159
   18.0618750000000         6.211883969438282E-159
   18.2756250000000        -2.837032916979802E-160
   18.4893750000000        -1.069472739343198E-157
   18.7031250000000        -7.876861416169392E-157
   18.9168750000000        -4.086073253390313E-156
   19.1306250000000        -1.760964975752863E-155
   19.3443750000000        -6.603934738061755E-155
   19.5581250000000        -2.176292648689624E-154
   19.7718750000000        -6.194582461630055E-154
   19.9856250000000        -1.420804679351075E-153
   20.1993750000000        -1.911164984996840E-153
   20.4131250000000         3.967845510167813E-153
   20.6268750000000         4.604662073139267E-152
   20.8406250000000         2.439654697395639E-151
   21.0543750000000         1.021926802199241E-150
   21.2681250000000         3.754203350499857E-150
   21.4818750000000         1.257722367634239E-149
   21.6956250000000         3.916998898522137E-149
   21.9093750000000         1.146510846539243E-148
   22.1231250000000         3.175750734454657E-148
   22.3368750000000         8.362936787233124E-148
   22.5506250000000         2.100375027885470E-147
   22.7643750000000         5.041773140550067E-147
   22.9781250000000         1.157972471807592E-146
   23.1918750000000         2.544138946536931E-146
   23.4056250000000         5.334076718688868E-146
   23.6193750000000         1.060333548301401E-145
   23.8331250000000         1.969236597515439E-145
   24.0468750000000         3.302231114170472E-145
   24.2606250000000         4.549192276211471E-145
   24.4743750000000         3.210498620197910E-145
   24.6881250000000        -9.170307092743082E-145
   24.9018750000000        -5.698446027955707E-144
   25.1156250000000        -2.036789456096976E-143
   25.3293750000000        -6.013728054007407E-143
   25.5431250000000        -1.590090801603452E-142
   25.7568750000000        -3.885947057949353E-142
   25.9706250000000        -8.934918763035152E-142
   26.1843750000000        -1.963000231911909E-141
   26.3981250000000        -4.201192253962270E-141
   26.6118750000000        -8.993084187654309E-141
   26.8256250000000        -1.985276944114318E-140
   27.0393750000000        -4.622255404327542E-140
   27.2531250000000        -1.134851832290938E-139
   27.4668750000000        -2.871617288761245E-139
   27.6806250000000        -7.257506006557445E-139
   27.8943750000000        -1.782549503018488E-138
   28.1081250000000        -4.169490402300620E-138
   28.3218750000000        -9.139229214380344E-138
   28.5356250000000        -1.845132100194108E-137
   28.7493750000000        -3.340074498368689E-137
   28.9631250000000        -5.114279444402706E-137
   29.1768750000000        -5.465805582577981E-137
   29.3906250000000         1.005201618100440E-137
   29.6043750000000         2.784931137366362E-136
   29.8181250000000         1.041346099771357E-135
   30.0318750000000         2.839489217293168E-135
   30.2456250000000         6.524745032625397E-135
   30.4593750000000         1.311985186618129E-134
   30.6731250000000         2.310192502325889E-134
   30.8868750000000         3.441479109876856E-134
   31.1006250000000         3.817438271875307E-134
   31.3143750000000         1.100134370892975E-134
   31.5281250000000        -9.599256109577017E-134
   31.7418750000000        -3.677737647190162E-133
   31.9556250000000        -9.229321617025267E-133
   32.1693750000000        -1.869300902319107E-132
   32.3831250000000        -3.164582890162412E-132
   32.5968750000000        -4.304243591829736E-132
   32.8106250000000        -3.758687259600255E-132
   33.0243750000000         1.837215927212496E-132
   33.2381250000000         1.847400672159907E-131
   33.4518750000000         5.467114046722919E-131
   33.6656250000000         1.185506223723839E-130
   33.8793750000000         2.085749141996683E-130
   34.0931250000000         2.928453468522963E-130
   34.3068750000000         2.716674694888212E-130
   34.5206250000000        -7.748959111911821E-131
   34.7343750000000        -1.158738545136953E-129
   34.9481250000000        -3.572720851993896E-129
   35.1618750000000        -7.978313259283660E-129
   35.3756250000000        -1.459672066003005E-128
   35.5893750000000        -2.203946606675509E-128
   35.8031250000000        -2.506673515063603E-128
   36.0168750000000        -1.099217638844742E-128
   36.2306250000000         4.496135032567297E-128
   36.4443750000000         1.834730417953356E-127
   36.6581250000000         4.588952140350475E-127
   36.8718750000000         9.198162593325939E-127
   37.0856250000000         1.552157170361585E-126
   37.2993750000000         2.153637312755109E-126
   37.5131250000000         2.101948920358147E-126
   37.7268750000000        -6.179630222388668E-129
   37.9406250000000        -6.795019829781565E-126
   38.1543750000000        -2.238131495749242E-125
   38.3681250000000        -5.180654838007540E-125
   38.5818750000000        -9.820261888840579E-125
   38.7956250000000        -1.551578169462069E-124
   39.0093750000000        -1.906276865174264E-124
   39.2231250000000        -1.187827061069050E-124
   39.4368750000000         2.397397500527974E-124
   39.6506250000000         1.195089376980180E-123
   39.8643750000000         3.177049003642965E-123
   40.0781250000000         6.569544763849785E-123
   40.2918750000000         1.119296535192016E-122
   40.5056250000000         1.513414565439375E-122
   40.7193750000000         1.259508969996417E-122
   40.9331250000000        -9.319393193912999E-123
   41.1468750000000        -7.403547912347607E-122
   41.3606250000000        -2.161258302894170E-121
   41.5743750000000        -4.718823769157697E-121
   41.7881250000000        -8.461485231054452E-121
   42.0018750000000        -1.234237314720503E-120
   42.2156250000000        -1.274404740099487E-120
   42.4293750000000        -1.194677377346518E-121
   42.6431250000000         3.830835493011075E-120
   42.8568750000000         1.306628184163798E-119
   43.0706250000000         3.055466306531383E-119
   43.2843750000000         5.798131705861524E-119
   43.4981250000000         9.137857596817888E-119
   43.7118750000000         1.126066843420899E-118
   43.9256250000000         7.567567575851362E-119
   44.1393750000000        -1.105995867206461E-118
   44.3531250000000        -5.958541851617381E-118
   44.5668750000000        -1.577467143085106E-117
   44.7806250000000        -3.226860298758174E-117
   44.9943750000000        -5.489943411561980E-117
   45.2081250000000        -7.681196380288151E-117
   45.4218750000000        -7.805721179342391E-117
   45.6356250000000        -1.640306300710417E-117
   45.8493750000000         1.814139889725221E-116
   46.0631250000000         6.201360364940506E-116
   46.2768750000000         1.412205281964577E-115
   46.4906250000000         2.603444251561735E-115
   46.7043750000000         4.012988610968265E-115
   46.9181250000000         4.954347798075376E-115
   47.1318750000000         3.835354607091608E-115
   47.3456250000000        -2.278193184427368E-115
   47.5593750000000        -1.787423081585560E-114
   47.7731250000000        -4.843123370817510E-114
   47.9868750000000        -9.814512684487163E-114
   48.2006250000000        -1.646469108156509E-113
   48.4143750000000        -2.293620810343693E-113
   48.6281250000000        -2.429862372495002E-113
   48.8418750000000        -1.081072003920806E-113
   49.0556250000000         3.336561993831579E-113
   49.2693750000000         1.293679293564619E-112
   49.4831250000000         2.978965845773812E-112
   49.6968750000000         5.444376321204636E-112
   49.9106250000000         8.308770366812499E-112
   50.1243750000000         1.030783029993224E-111
   50.3381250000000         8.721584509273156E-112
   50.5518750000000        -1.143995476259926E-112
   50.7656250000000        -2.600020063911404E-111
   50.9793750000000        -7.338426059375219E-111
   51.1931250000000        -1.481111916588226E-110
   51.4068750000000        -2.450527802287164E-110
   51.6206250000000        -3.372761666914512E-110
   51.8343750000000        -3.600437295712570E-110
   52.0481250000000        -1.944861217541976E-110
   52.2618750000000         3.394695848595354E-110
   52.4756250000000         1.463111825065509E-109
   52.6893750000000         3.364930922807720E-109
   52.9031250000000         6.039735391742496E-109
   53.1168750000000         9.013606843511359E-109
   53.3306250000000         1.095702351144423E-108
   53.5443750000000         9.257931201377187E-109
   53.7581250000000        -2.503695539746571E-110
   53.9718750000000        -2.303382482986102E-108
   54.1856250000000        -6.449885767110378E-108
   54.3993750000000        -1.268094610072513E-107
   54.6131250000000        -2.032342063070398E-107
   54.8268750000000        -2.699210523395459E-107
   55.0406250000000        -2.763203519579324E-107
   55.2543750000000        -1.378501628130880E-107
   55.4681250000000         2.621442498702738E-107
   55.6818750000000         1.050076840864443E-106
   55.8956250000000         2.305361778554747E-106
   56.1093750000000         3.955993616993861E-106
   56.3231250000000         5.622518563223695E-106
   56.5368750000000         6.429618833407110E-106
   56.7506250000000         4.846396906164435E-106
   56.9643750000000        -1.322439553021288E-106
   57.1781250000000        -1.460115049791975E-105
   57.3918750000000        -3.691479323155403E-105
   57.6056250000000        -6.782988422905396E-105
   57.8193750000000        -1.018750227567419E-104
   58.0331250000000        -1.252312829043987E-104
   58.2468750000000        -1.127656666113435E-104
   58.4606250000000        -2.737394114747736E-105
   58.6743750000000         1.752515013291846E-104
   58.8881250000000         5.324251483826425E-104
   59.1018750000000         1.046987053505521E-103
   59.3156250000000         1.645006403960107E-103
   59.5293750000000         2.122989677619824E-103
   59.7431250000000         2.099369906003002E-103
   59.9568750000000         1.000069301506039E-103
   60.1706250000000        -1.874956634850621E-103
   60.3843750000000        -7.144441211884388E-103
   60.5981250000000        -1.494095458009413E-102
   60.8118750000000        -2.428683867899280E-102
   61.0256250000000        -3.231563485166974E-102
   61.2393750000000        -3.355537744912376E-102
   61.4531250000000        -1.970413084862449E-102
   61.6668750000000         1.943344151647630E-102
   61.8806250000000         9.300968276319274E-102
   62.0943750000000         2.034194490558700E-101
   62.3081250000000         3.375472226185552E-101
   62.5218750000000         4.559407213593118E-101
   62.7356250000000         4.829810939166309E-101
   62.9493750000000         3.040299261986946E-101
   63.1631250000000        -2.213094167759066E-101
   63.3768750000000        -1.218566303361206E-100
   63.5906250000000        -2.720285075325656E-100
   63.8043750000000        -4.547624799282914E-100
   64.0181250000000        -6.165610983238797E-100
   64.2318750000000        -6.554094990441980E-100
   64.4456250000000        -4.174612867535692E-100
   64.6593750000000         2.846257331476271E-100
   64.8731250000000         1.617092203862133E-099
   65.0868750000000         3.621376999998488E-099
   65.3006250000000         6.058341496135108E-099
   65.5143750000000         8.219318558490059E-099
   65.7281250000000         8.759072520637875E-099
   65.9418750000000         5.654187152647631E-099
   66.1556250000000        -3.558983025365760E-099
   66.3693750000000        -2.108150623328449E-098
   66.5831250000000        -4.752236418676579E-098
   66.7968750000000        -7.990461588438317E-098
   67.0106250000000        -1.092417170832416E-097
   67.2243750000000        -1.183655870983550E-097
   67.4381250000000        -8.128420866973094E-098
   67.6518750000000         3.402943126442459E-098
   67.8656250000000         2.571215599693580E-097
   68.0793750000000         5.987723527558135E-097
   68.2931250000000         1.026342984067394E-096
   68.5068750000000         1.433350028950598E-096
   68.7206250000000         1.611135125800410E-096
   68.9343750000000         1.237580711294632E-096
   69.1481250000000        -9.463146458811920E-098
   69.3618750000000        -2.782607157397787E-096
   69.5756250000000        -7.025063322814854E-096
   69.7893750000000        -1.253108601245209E-095
   70.0031250000000        -1.815056573518890E-095
   70.2168750000000        -2.150997696686988E-095
   70.4306250000000        -1.881778469099295E-095
   70.6443750000000        -5.092404410621541E-096
   70.8581250000000         2.486800081760589E-095
   71.0718750000000         7.446047730630427E-095
   71.2856250000000         1.420287412250464E-094
   71.4993750000000         2.165793657942811E-094
   71.7131250000000         2.732701130360224E-094
   71.9268750000000         2.703496338904649E-094
   72.1406250000000         1.502272443095623E-094
   72.3543750000000        -1.518161917486244E-094
   72.5681250000000        -6.876006081358950E-094
   72.7818750000000        -1.462220143499158E-093
   72.9956250000000        -2.387259700677175E-093
   73.2093750000000        -3.227967615370317E-093
   73.4231250000000        -3.560182220810143E-093
   73.6368750000000        -2.763504193969771E-093
   73.8506250000000        -8.706985957069395E-095
   74.0643750000000         5.171376279143064E-093
   74.2781250000000         1.334029589882677E-092
   74.4918750000000         2.389822570595628E-092
   74.7056250000000         3.489691481344564E-092
   74.9193750000000         4.241860463536094E-092
   75.1331250000000         4.030986690740179E-092
   75.3468750000000         2.054334535180212E-092
   75.5606250000000        -2.537171124371236E-092
   75.7743750000000        -1.035401491686428E-091
   75.9881250000000        -2.132097204073213E-091
   76.2018750000000        -3.409512382880508E-091
   76.4156250000000        -4.545113817313954E-091
   76.6293750000000        -4.983676573188251E-091
   76.8431250000000        -3.941276619626139E-091
   77.0568750000000        -4.980591695457183E-092
   77.2706250000000         6.178362171629828E-091
   77.4843750000000         1.644965633618590E-090
   77.6981250000000         2.966844936715503E-090
   77.9118750000000         4.355039519569777E-090
   78.1256250000000         5.360956303979992E-090
   78.3393750000000         5.291465629509988E-090
   78.5531250000000         3.252171334896800E-090
   78.7668750000000        -1.700982403932897E-090
   78.9806250000000        -1.026628176045719E-089
   79.1943750000000        -2.244353413915292E-089
   79.4081250000000        -3.695522743583783E-089
   79.6218750000000        -5.064227897942708E-089
   79.8356250000000        -5.802518411331905E-089
   80.0493750000000        -5.131687611816940E-089
   80.2631250000000        -2.124570614310219E-089
   80.4768750000000         4.094758487824823E-089
   80.6906250000000         1.400901221275633E-088
   80.9043750000000         2.722756526487482E-088
   81.1181250000000         4.192248519290757E-088
   81.3318750000000         5.430570210093284E-088
   81.5456250000000         5.835539852487337E-088
   81.7593750000000         4.607685250365473E-088
   81.9731250000000         8.623952114191035E-089
   82.1868750000000        -6.142847149027177E-088
   82.4006250000000        -1.665304433715283E-087
   82.6143750000000        -2.995115504874511E-087
   82.8281250000000        -4.385357254550857E-087
   83.0418750000000        -5.429956799582622E-087
   83.2556250000000        -5.523821308145005E-087
   83.4693750000000        -3.907162876987735E-087
   83.6831250000000         2.073588850700513E-088
   83.8968750000000         7.403910450975105E-087
   84.1106250000000         1.772608463742005E-086
   84.3243750000000         3.026118236344947E-086
   84.5381250000000         4.271971178061942E-086
   84.7518750000000         5.113821345303028E-086
   84.9656250000000         4.988716532335810E-086
   85.1793750000000         3.220118588304572E-086
   85.3931250000000        -8.557631780300079E-087
   85.6068750000000        -7.676791593461103E-086
   85.8206250000000        -1.715830069484265E-085
   86.0343750000000        -2.834423648421250E-085
   86.2481250000000        -3.907476063321625E-085
   86.4618750000000        -4.578187655724277E-085
   86.6756250000000        -4.356356267192517E-085
   86.8893750000000        -2.670769305937710E-085
   87.1031250000000         1.017869847099022E-085
   87.3168750000000         7.035142772305152E-085
   87.5306250000000         1.524843508484026E-084
   87.7443750000000         2.478844969262505E-084
   87.9581250000000         3.379460085947718E-084
   88.1718750000000         3.927414216765859E-084
   88.3856250000000         3.719225909281634E-084
   88.5993750000000         2.292233838709451E-084
   88.8131250000000        -7.831226569345978E-085
   89.0268750000000        -5.758500035648288E-084
   89.2406250000000        -1.251639830211140E-083
   89.4543750000000        -2.035555461053420E-083
   89.6681250000000        -2.779769229200748E-083
   89.8818750000000        -3.248351144435904E-083
   90.0956250000000        -3.124516768980134E-083
   90.3093750000000        -2.045030567599918E-083
   90.5231250000000         3.300451191613387E-084
   90.7368750000000         4.208449797027293E-083
   90.9506250000000         9.522070860309057E-083
   91.1643750000000         1.576515361090824E-082
   91.3781250000000         2.184648185747824E-082
   91.5918750000000         2.600431598189289E-082
   91.8056250000000         2.584706852169450E-082
   92.0193750000000         1.858910329264543E-082
   92.2331250000000         1.543126311697349E-083
   92.4468750000000        -2.709844144825975E-082
   92.6606250000000        -6.721651420209610E-082
   92.8743750000000        -1.155607928722849E-081
   93.0881250000000        -1.646048504047746E-081
   93.3018750000000        -2.017990318928430E-081
   93.5156250000000        -2.096679875852387E-081
   93.7293750000000        -1.672603077250532E-081
   93.9431250000000        -5.342495534019282E-082
   94.1568750000000         1.477866612560578E-081
   94.3706250000000         4.396569272352523E-081
   94.5843750000000         8.039135650474535E-081
   94.7981250000000         1.191820854656941E-080
   95.0118750000000         1.517541115274699E-080
   95.2256250000000         1.656909068697429E-080
   95.4393750000000         1.455339593461408E-080
   95.6531250000000         7.485730130356348E-081
   95.8668750000000        -6.010172133770463E-081
   96.0806250000000        -2.652124892586055E-080
   96.2943750000000        -5.319638637228482E-080
   96.5081250000000        -8.306003765406483E-080
   96.7218750000000        -1.104413399095905E-079
   96.9356250000000        -1.267384191129322E-079
   97.1493750000000        -1.207892685549815E-079
   97.3631250000000        -8.013467796624617E-080
   97.5768750000000         6.592233883945516E-081
   97.7906250000000         1.460591172448917E-079
   98.0043750000000         3.355772613308482E-079
   98.2181250000000         5.579382870178464E-079
   98.4318750000000         7.767614182169802E-079
   98.6456250000000         9.338735363569075E-079
   98.8593750000000         9.506708430441227E-079
   99.0731250000000         7.355973700868192E-079
   99.2868750000000         1.996217760244167E-079
   99.5006250000000        -7.193101725712077E-079
   99.7143750000000        -2.023594905884670E-078
   99.9281250000000        -3.618416215115011E-078
   100.141875000000        -5.276024636033158E-078
   100.355625000000        -6.612245578275555E-078
   100.569375000000        -7.088865360179352E-078
   100.783125000000        -6.057242439452790E-078
   100.996875000000        -2.857220524745798E-078
   101.210625000000         3.020320929303136E-078
   101.424375000000         1.171040199236718E-077
   101.638125000000         2.271116473952118E-077
   101.851875000000         3.462524697504549E-077
   102.065625000000         4.497484550147160E-077
   102.279375000000         5.018313392670259E-077
   102.493125000000         4.582764705618930E-077
   102.706875000000         2.726442853508272E-077
   102.920625000000        -9.315012933274669E-078
   103.134375000000        -6.540700379050834E-077
   103.348125000000        -1.384291811805455E-076
   103.561875000000        -2.199470817829777E-076
   103.775625000000        -2.943475292313712E-076
   103.989375000000        -3.385668785193139E-076
   104.203125000000        -3.235700804598294E-076
   104.416875000000        -2.182355967724595E-076
   104.630625000000         3.934054664784116E-078
   104.844375000000         3.553391235994759E-076
   105.058125000000         8.228598761058200E-076
   105.271875000000         1.356276170278468E-075
   105.485625000000         1.859408245602440E-075
   105.699375000000         2.187833659877184E-075
   105.913125000000         2.157583037537644E-075
   106.126875000000         1.568946954792014E-075
   106.340625000000         2.480355540501767E-076
   106.554375000000        -1.894296126329814E-075
   106.768125000000        -4.791212149386750E-075
   106.981875000000        -8.147447410633016E-075
   107.195625000000        -1.138339460746503E-074
   107.409375000000        -1.361936557330813E-074
   107.623125000000        -1.372685925711311E-074
   107.836875000000        -1.047181867987391E-074
   108.050625000000        -2.765594075091726E-075
   108.264375000000         9.979156288685913E-075
   108.478125000000         2.741856088128695E-074
   108.691875000000         4.784064496127979E-074
   108.905625000000         6.782772671242894E-074
   109.119375000000         8.215858000495572E-074
   109.333125000000         8.410854049640605E-074
   109.546875000000         6.629329336531085E-074
   109.760625000000         2.214601573446313E-074
   109.974375000000        -5.199201651078099E-074
   110.188125000000        -1.543520796735963E-073
   110.401875000000        -2.751835357004192E-073
   110.615625000000        -3.947824488603911E-073
   110.829375000000        -4.829139575351462E-073
   111.043125000000        -5.005338031245421E-073
   111.256875000000        -4.046347463382753E-073
   111.470625000000        -1.567151117234941E-073
   111.684375000000         2.652629641371603E-073
   111.898125000000         8.524942708265315E-073
   112.111875000000         1.550773884072143E-072
   112.325625000000         2.249256978681047E-072
   112.539375000000         2.777085277628148E-072
   112.753125000000         2.912928772242152E-072
   112.966875000000         2.412012743030113E-072
   113.180625000000         1.053344614426378E-072
   113.394375000000        -1.293649075284798E-072
   113.608125000000        -4.589028314642324E-072
   113.821875000000        -8.541171185227273E-072
   114.035625000000        -1.254370719862571E-071
   114.249375000000        -1.565541653685251E-071
   114.463125000000        -1.665058369581448E-071
   114.676875000000        -1.416462321815879E-071
   114.890625000000        -6.949728405578582E-072
   115.104375000000         5.763562804476210E-072
   115.318125000000         2.383062450876455E-071
   115.531875000000         4.574883716530484E-071
   115.745625000000         6.830762474860686E-071
   115.959375000000         8.646471841690576E-071
   116.173125000000         9.359495493010695E-071
   116.386875000000         8.224420961061213E-071
   116.600625000000         4.546879872243098E-071
   116.814375000000        -2.125724271253348E-071
   117.028125000000        -1.177280311543207E-070
   117.241875000000        -2.366237744295139E-070
   117.455625000000        -3.615873604883645E-070
   117.669375000000        -4.664442425047829E-070
   117.883125000000        -5.163267759892055E-070
   118.096875000000        -4.714005054764021E-070
   118.310625000000        -2.936313182612701E-070
   118.524375000000         4.345730590444682E-071
   118.738125000000         5.428085744474414E-070
   118.951875000000         1.171308090367338E-069
   119.165625000000         1.849335315591334E-069
   119.379375000000         2.445832241808390E-069
   119.593125000000         2.782754732802709E-069
   119.806875000000         2.652513701742387E-069
   120.020625000000         1.850800675892808E-069
   120.234375000000         2.248413864056317E-070
   120.448125000000        -2.266379847795082E-069
   120.661875000000        -5.487787387864350E-069
   120.875625000000        -9.072376022047643E-069
   121.089375000000        -1.239062899993444E-068
   121.303125000000        -1.456431181884609E-068
   121.516875000000        -1.454292785683870E-068
   121.730625000000        -1.125577258923290E-068
   121.944375000000        -3.841726833606510E-069
   122.158125000000         8.057457167777125E-069
   122.371875000000         2.397555708168113E-068
   122.585625000000         4.233008486291976E-068
   122.799375000000         6.023917081390102E-068
   123.013125000000         7.353896475916868E-068
   123.226875000000         7.709206080171995E-068
   123.440625000000         6.545551534419033E-068
   123.654375000000         3.392982694649107E-068
   123.868125000000        -2.006344023389815E-068