  -1.60312500000000         0.000000000000000E+000
  -1.38937500000000         3.238912338330173E-012
  -1.17562500000000         2.267814230127056E-011
 -0.961875000000000         1.086149493636890E-010
 -0.748125000000000         4.195172818235051E-010
 -0.534375000000000         1.360665549973967E-009
 -0.320625000000000         3.774407830666467E-009
 -0.106875000000000         9.082325578248162E-009
  0.106875000000000         1.923429059679770E-008
  0.320625000000000         3.641152172035097E-008
  0.534375000000000         6.258350138793638E-008
  0.748125000000000         9.917101810995398E-008
  0.961875000000000         1.469893674377971E-007
   1.17562500000000         2.062145953124974E-007
   1.38937500000000         2.765185658302238E-007
   1.60312500000000         3.571819156740133E-007
   1.81687500000000         4.470850631446501E-007
   2.03062500000000         5.446572993972279E-007
   2.24437500000000         6.487314364126761E-007
   2.45812500000000         7.551798824303581E-007
   2.67187500000000         8.625930378432821E-007
   2.88562500000000         9.660781496616602E-007
   3.09937500000000         1.062933506870483E-006
   3.31312500000000         1.150890276307044E-006
   3.52687500000000         1.226895184810630E-006
   3.74062500000000         1.288412026944129E-006
   3.95437500000000         1.333654864492619E-006
   4.16812500000000         1.361636281252069E-006
   4.38187500000000         1.372979805210231E-006
   4.59562500000000         1.368644387920094E-006
   4.80937500000000         1.349953486222919E-006
   5.02312500000000         1.320547263300486E-006
   5.23687500000000         1.283765093758878E-006
   5.45062500000000         1.244098134767529E-006
   5.66437500000000         1.206256817196820E-006
   5.87812500000000         1.174935568390186E-006
   6.09187500000000         1.154474302549669E-006
   6.30562500000000         1.148753868362364E-006
   6.51937500000000         1.161706265668345E-006
   6.73312500000000         1.193870342343556E-006
   6.94687500000000         1.246698427120928E-006
   7.16062500000000         1.316574347188436E-006
   7.37437500000000         1.401711358318946E-006
   7.58812500000000         1.498271679388598E-006
   7.80187500000000         1.601148233540579E-006
   8.01562500000000         1.704435751538022E-006
   8.22937500000000         1.801875531900104E-006
   8.44312500000000         1.887289560916819E-006
   8.65687500000000         1.955040007933270E-006
   8.87062500000000         2.000358174042394E-006
   9.08437500000000         2.019509815423304E-006
   9.29812500000000         2.010742579202384E-006
   9.51187500000000         1.974715021451974E-006
   9.72562500000000         1.911789924886684E-006
   9.93937500000000         1.824740192859196E-006
   10.1531250000000         1.717128294319858E-006
   10.3668750000000         1.593705641603818E-006
   10.5806250000000         1.459473548391003E-006
   10.7943750000000         1.319663775566016E-006
   11.0081250000000         1.179265174590107E-006
   11.2218750000000         1.040154050605597E-006
   11.4356250000000         9.114536099402985E-007
   11.6493750000000         7.901482233187239E-007
   11.8631250000000         6.873853014063892E-007
   12.0768750000000         5.940096188029997E-007
   12.2906250000000         5.233509727500601E-007
   12.5043750000000         4.639481746179710E-007
   12.7181250000000         4.270266867861507E-007
   12.9318750000000         4.033133338303331E-007
   13.1456250000000         3.990643078042186E-007
   13.3593750000000         4.055045057553095E-007
   13.5731250000000         4.222013856295920E-007
   13.7868750000000         4.470231732911496E-007
   14.0006250000000         4.768959782248139E-007
   14.2143750000000         5.084836812091081E-007
   14.4281250000000         5.383264351952509E-007
   14.6418750000000         5.631169438443668E-007
   14.8556250000000         5.799136991046411E-007
   15.0693750000000         5.871550661791102E-007
   15.2831250000000         5.832343260021682E-007
   15.4968750000000         5.671456089013765E-007
   15.7106250000000         5.422118974296728E-007
   15.9243750000000         5.108257592782737E-007
   16.1381250000000         4.760942844950356E-007
   16.3518750000000         4.417800040508076E-007
   16.5656250000000         4.117075393170979E-007
   16.7793750000000         3.893130458823712E-007
   16.9931250000000         3.768515647992225E-007
   17.2068750000000         3.765342313829139E-007
   17.4206250000000         3.922486963112828E-007
   17.6343750000000         4.179653305074343E-007
   17.8481250000000         4.424134252843956E-007
   18.0618750000000         4.756630101101342E-007
   18.2756250000000         4.984927336080862E-007
   18.4893750000000         5.220842972279016E-007
   18.7031250000000         5.314207513599858E-007
   18.9168750000000         5.342103538711681E-007
   19.1306250000000         5.276267103924079E-007
   19.3443750000000         5.132516189954587E-007
   19.5581250000000         4.937143093967040E-007
   19.7718750000000         4.725340666411291E-007
   19.9856250000000         4.536811994151944E-007
   20.1993750000000         4.409730755019992E-007
   20.4131250000000         4.376764664971591E-007
   20.6268750000000         4.461424334653076E-007
   20.8406250000000         4.673493258001872E-007
   21.0543750000000         5.001933030273440E-007
   21.2681250000000         5.433381430792124E-007
   21.4818750000000         5.946233827515377E-007
   21.6956250000000         6.499103966703785E-007
   21.9093750000000         7.063193714669544E-007
   22.1231250000000         7.609649158453469E-007
   22.3368750000000         8.117704288605093E-007
   22.5506250000000         8.575657847274278E-007
   22.7643750000000         8.981248067520954E-007
   22.9781250000000         9.345681320297699E-007
   23.1918750000000         9.682613118905409E-007
   23.4056250000000         1.000542352711025E-006
   23.6193750000000         1.032647351407365E-006
   23.8331250000000         1.065240515647464E-006
   24.0468750000000         1.098380564446626E-006
   24.2606250000000         1.131180434106121E-006
   24.4743750000000         1.162418108239328E-006
   24.6881250000000         1.189801215174828E-006
   24.9018750000000         1.210821099162845E-006
   25.1156250000000         1.222659539385055E-006
   25.3293750000000         1.223387062745062E-006
   25.5431250000000         1.211994097289718E-006
   25.7568750000000         1.186223135975096E-006
   25.9706250000000         1.145781180396304E-006
   26.1843750000000         1.089429204756597E-006
   26.3981250000000         1.028849473028528E-006
   26.6118750000000         9.548155726820315E-007
   26.8256250000000         8.838622716394162E-007
   27.0393750000000         8.063802164045558E-007
   27.2531250000000         7.372524503066284E-007
   27.4668750000000         6.719266306663871E-007
   27.6806250000000         6.131662032458517E-007
   27.8943750000000         5.626266755389601E-007
   28.1081250000000         5.212642295567478E-007
   28.3218750000000         4.876334814732897E-007
   28.5356250000000         4.618520984050169E-007
   28.7493750000000         4.428452492693590E-007
   28.9631250000000         4.293456802644917E-007
   29.1768750000000         4.197257037340735E-007
   29.3906250000000         4.123921651575841E-007
   29.6043750000000         4.057348948247056E-007
   29.8181250000000         3.983063370021120E-007
   30.0318750000000         3.886987929719612E-007
   30.2456250000000         3.773856063430844E-007
   30.4593750000000         3.605345734814278E-007
   30.6731250000000         3.390132642101723E-007
   30.8868750000000         3.124604983009846E-007
   31.1006250000000         2.806620478964057E-007
   31.3143750000000         2.437288043864206E-007
   31.5281250000000         2.019723707594591E-007
   31.7418750000000         1.560466120933383E-007
   31.9556250000000         1.068206773841969E-007
   32.1693750000000         5.544931141037421E-008
   32.3831250000000         3.307725177364661E-009
   32.5968750000000        -4.818715242498614E-008
   32.8106250000000        -9.730029502903793E-008
   33.0243750000000        -1.422794393185856E-007
   33.2381250000000        -1.817542417398320E-007
   33.4518750000000        -2.144029188065477E-007
   33.6656250000000        -2.391777104290145E-007
   33.8793750000000        -2.553206758689357E-007
   34.0931250000000        -2.623984446133098E-007
   34.3068750000000        -2.602666719000774E-007
   34.5206250000000        -2.491270738984022E-007
   34.7343750000000        -2.298673586054676E-007
   34.9481250000000        -2.028796928392423E-007
   35.1618750000000        -1.693842696014055E-007
   35.3756250000000        -1.310520168232299E-007
   35.5893750000000        -8.952640262504773E-008
   35.8031250000000        -4.669177745098526E-008
   36.0168750000000        -4.746086830766854E-009
   36.2306250000000         3.391119569787713E-008
   36.4443750000000         6.672999915743545E-008
   36.6581250000000         9.109014325780183E-008
   36.8718750000000         1.006098600252267E-007
   37.0856250000000         1.060960347803454E-007
   37.2993750000000         9.389371191213833E-008
   37.5131250000000         7.157913021961770E-008
   37.7268750000000         2.930861468431911E-008
   37.9406250000000        -1.560464776163915E-008
   38.1543750000000        -7.098328523001238E-008
   38.3681250000000        -1.298174766292155E-007
   38.5818750000000        -1.872712612827087E-007
   38.7956250000000        -2.377849764518713E-007
   39.0093750000000        -2.757862884588505E-007
   39.2231250000000        -2.957984856981811E-007
   39.4368750000000        -2.930427283424634E-007
   39.6506250000000        -2.615047757095069E-007
   39.8643750000000        -2.093739972916668E-007
   40.0781250000000        -1.330289618198917E-007
   40.2918750000000        -3.641720126901697E-008
   40.5056250000000         7.519961397550286E-008
   40.7193750000000         1.960549228356487E-007
   40.9331250000000         3.165179526794886E-007
   41.1468750000000         4.394421724231101E-007
   41.3606250000000         5.479012186447218E-007
   41.5743750000000         6.420360459541326E-007
   41.7881250000000         7.184588236918226E-007
   42.0018750000000         7.741735291164597E-007
   42.2156250000000         8.076751904945637E-007
   42.4293750000000         8.185995544365095E-007
   42.6431250000000         8.069650362887015E-007
   42.8568750000000         7.717084984754995E-007
   43.0706250000000         7.260435938133532E-007
   43.2843750000000         6.592509238060047E-007
   43.4981250000000         5.824867489115700E-007
   43.7118750000000         4.910404366897822E-007
   43.9256250000000         3.860895837184450E-007
   44.1393750000000         2.685305360845302E-007
   44.3531250000000         1.392366745958548E-007
   44.5668750000000        -6.011232746395150E-010
   44.7806250000000        -1.492803234993183E-007
   44.9943750000000        -3.044353815246828E-007
   45.2081250000000        -4.630910510583577E-007
   45.4218750000000        -6.216193541755548E-007
   45.6356250000000        -7.760463793606177E-007
   45.8493750000000        -9.222723545223324E-007
   46.0631250000000        -1.056396155419826E-006
   46.2768750000000        -1.175046121279326E-006
   46.4906250000000        -1.275631584916606E-006
   46.7043750000000        -1.356386499964420E-006
   46.9181250000000        -1.416616769087028E-006
   47.1318750000000        -1.456577797155419E-006
   47.3456250000000        -1.478527533634680E-006
   47.5593750000000        -1.484833597622118E-006
   47.7731250000000        -1.475081735783832E-006
   47.9868750000000        -1.454934926884543E-006
   48.2006250000000        -1.419150444828140E-006
   48.4143750000000        -1.378836793132499E-006
   48.6281250000000        -1.327451240335543E-006
   48.8418750000000        -1.269834381306515E-006
   49.0556250000000        -1.204571093909169E-006
   49.2693750000000        -1.136890818345698E-006
   49.4831250000000        -1.067041629755672E-006
   49.6968750000000        -9.965738903450832E-007
   49.9106250000000        -9.271436425217827E-007
   50.1243750000000        -8.606757571246665E-007
   50.3381250000000        -7.989474945507053E-007
   50.5518750000000        -7.433844092727284E-007
   50.7656250000000        -6.918023936547761E-007
   50.9793750000000        -6.547824635965058E-007
   51.1931250000000        -6.225407209967101E-007
   51.4068750000000        -6.064434475790789E-007
   51.6206250000000        -5.930126297712594E-007
   51.8343750000000        -5.954642152180093E-007
   52.0481250000000        -5.967192929861637E-007
   52.2618750000000        -6.104003645084990E-007
   52.4756250000000        -6.221985067753122E-007
   52.6893750000000        -6.354792794238430E-007
   52.9031250000000        -6.500676268423565E-007
   53.1168750000000        -6.600614567597913E-007
   53.3306250000000        -6.666064098537511E-007
   53.5443750000000        -6.701166672923174E-007
   53.7581250000000        -6.703363220026942E-007
   53.9718750000000        -6.676577107655577E-007
   54.1856250000000        -6.625677411392931E-007
   54.3993750000000        -6.557063450048061E-007
   54.6131250000000        -6.475204242115279E-007
   54.8268750000000        -6.383843278651650E-007
   55.0406250000000        -6.285681144303824E-007
   55.2543750000000        -6.183143525914288E-007
   55.4681250000000        -6.078679261194008E-007
   55.6818750000000        -5.976143892597870E-007
   55.8956250000000        -5.882399852874287E-007
   56.1093750000000        -5.806401050521960E-007
   56.3231250000000        -5.761685558984944E-007
   56.5368750000000        -5.769779259859185E-007
   56.7506250000000        -5.847659013351425E-007
   56.9643750000000        -6.001258366523399E-007
   57.1781250000000        -6.251913538420948E-007
   57.3918750000000        -6.620174661152798E-007
   57.6056250000000        -7.122525679215675E-007
   57.8193750000000        -7.766164149610568E-007
   58.0331250000000        -8.559370507319337E-007
   58.2468750000000        -9.500107441038588E-007
   58.4606250000000        -1.057978198718656E-006
   58.6743750000000        -1.178380387098390E-006
   58.8881250000000        -1.312551542035422E-006
   59.1018750000000        -1.450354130719069E-006
   59.3156250000000        -1.598257892493450E-006
   59.5293750000000        -1.743706081764513E-006
   59.7431250000000        -1.887004934571888E-006
   59.9568750000000        -2.023880583727429E-006
   60.1706250000000        -2.150655444210063E-006
   60.3843750000000        -2.264697220109138E-006
   60.5981250000000        -2.363315656192339E-006
   60.8118750000000        -2.444541215801754E-006
   61.0256250000000        -2.504801047207179E-006
   61.2393750000000        -2.552732081751310E-006
   61.4531250000000        -2.575384878624060E-006
   61.6668750000000        -2.582669103750289E-006
   61.8806250000000        -2.574794020818860E-006
   62.0943750000000        -2.550774599665134E-006
   62.3081250000000        -2.511565778255781E-006
   62.5218750000000        -2.456820750311503E-006
   62.7356250000000        -2.388517108281305E-006
   62.9493750000000        -2.303791914008689E-006
   63.1631250000000        -2.213715851640771E-006
   63.3768750000000        -2.110720497134108E-006
   63.5906250000000        -2.004701240976484E-006
   63.8043750000000        -1.894466832884828E-006
   64.0181250000000        -1.779237151778499E-006
   64.2318750000000        -1.671700309839561E-006
   64.4456250000000        -1.572069784572128E-006
   64.6593750000000        -1.483568864091968E-006
   64.8731250000000        -1.410684765726342E-006
   65.0868750000000        -1.357070507370444E-006
   65.3006250000000        -1.325457766696189E-006
   65.5143750000000        -1.317475700205353E-006
   65.7281250000000        -1.331832503854204E-006
   65.9418750000000        -1.369514290264028E-006
   66.1556250000000        -1.425453794686220E-006
   66.3693750000000        -1.496508376979318E-006
   66.5831250000000        -1.578032302940652E-006
   66.7968750000000        -1.664587777906642E-006
   67.0106250000000        -1.750741982442875E-006
   67.2243750000000        -1.831435482523076E-006
   67.4381250000000        -1.902281372614418E-006
   67.6518750000000        -1.955185570413242E-006
   67.8656250000000        -2.000981980672170E-006
   68.0793750000000        -2.022327198624126E-006
   68.2931250000000        -2.035890144849610E-006
   68.5068750000000        -2.030690865034281E-006
   68.7206250000000        -2.017073315941153E-006
   68.9343750000000        -1.990907402568707E-006
   69.1481250000000        -1.956578175878307E-006
   69.3618750000000        -1.916702711734991E-006
   69.5756250000000        -1.873986452160352E-006
   69.7893750000000        -1.831047956842073E-006
   70.0031250000000        -1.790441374325191E-006
   70.2168750000000        -1.754746070811846E-006
   70.4306250000000        -1.726523059248587E-006
   70.6443750000000        -1.707899538577117E-006
   70.8581250000000        -1.702579743050323E-006
   71.0718750000000        -1.713819482727248E-006
   71.2856250000000        -1.746100574873350E-006
   71.4993750000000        -1.801286965789827E-006
   71.7131250000000        -1.873224237118740E-006
   71.9268750000000        -1.973972502360894E-006
   72.1406250000000        -2.093263111476544E-006
   72.3543750000000        -2.239958856927723E-006
   72.5681250000000        -2.401271074761849E-006
   72.7818750000000        -2.578512839177858E-006
   72.9956250000000        -2.768593089896804E-006
   73.2093750000000        -2.962135370918229E-006
   73.4231250000000        -3.152136450515109E-006
   73.6368750000000        -3.333948705234099E-006
   73.8506250000000        -3.501265229740623E-006
   74.0643750000000        -3.648723516501870E-006
   74.2781250000000        -3.772364376772507E-006
   74.4918750000000        -3.869430281075614E-006
   74.7056250000000        -3.938774004772961E-006
   74.9193750000000        -3.980694892248988E-006
   75.1331250000000        -3.997030714607056E-006
   75.3468750000000        -3.996799551637736E-006
   75.5606250000000        -3.968417015387483E-006
   75.7743750000000        -3.929609561186930E-006
   75.9881250000000        -3.872226411893205E-006
   76.2018750000000        -3.802756549028522E-006
   76.4156250000000        -3.721315043622390E-006
   76.6293750000000        -3.632542577538123E-006
   76.8431250000000        -3.536287997439762E-006
   77.0568750000000        -3.433011391229859E-006
   77.2706250000000        -3.323176076028505E-006
   77.4843750000000        -3.207519608751478E-006
   77.6981250000000        -3.082734213466753E-006
   77.9118750000000        -2.962375906434935E-006
   78.1256250000000        -2.837735322628617E-006
   78.3393750000000        -2.726761318901025E-006
   78.5531250000000        -2.619622761635469E-006
   78.7668750000000        -2.535964288389823E-006
   78.9806250000000        -2.465997852894595E-006
   79.1943750000000        -2.426827097861611E-006
   79.4081250000000        -2.412642947532641E-006
   79.6218750000000        -2.427600249267834E-006
   79.8356250000000        -2.467542619600455E-006
   80.0493750000000        -2.532678860461471E-006
   80.2631250000000        -2.620278467242725E-006
   80.4768750000000        -2.725558811210413E-006
   80.6906250000000        -2.843245967764203E-006
   80.9043750000000        -2.968004780883797E-006
   81.1181250000000        -3.098465351843694E-006
   81.3318750000000        -3.219612518678054E-006
   81.5456250000000        -3.337177166835689E-006
   81.7593750000000        -3.439692025625929E-006
   81.9731250000000        -3.530680997120045E-006
   82.1868750000000        -3.611792775788287E-006
   82.4006250000000        -3.672060339569435E-006
   82.6143750000000        -3.720414480463297E-006
   82.8281250000000        -3.752739424580540E-006
   83.0418750000000        -3.769195748397120E-006
   83.2556250000000        -3.771409223459598E-006
   83.4693750000000        -3.758884814880623E-006
   83.6831250000000        -3.731066947295144E-006
   83.8968750000000        -3.687388067517768E-006
   84.1106250000000        -3.626122660945448E-006
   84.3243750000000        -3.558000820432205E-006
   84.5381250000000        -3.475836316749062E-006
   84.7518750000000        -3.395047381453275E-006
   84.9656250000000        -3.316723687252947E-006
   85.1793750000000        -3.249325586800961E-006
   85.3931250000000        -3.199591216854445E-006
   85.6068750000000        -3.177098316795016E-006
   85.8206250000000        -3.181499530870286E-006
   86.0343750000000        -3.224790792599144E-006
   86.2481250000000        -3.300725753817317E-006
   86.4618750000000        -3.412240052116435E-006
   86.6756250000000        -3.556187412501624E-006
   86.8893750000000        -3.727455903573154E-006
   87.1031250000000        -3.924266922827591E-006
   87.3168750000000        -4.124182755448021E-006
   87.5306250000000        -4.332041072739914E-006
   87.7443750000000        -4.524917834298038E-006
   87.9581250000000        -4.708659126878908E-006
   88.1718750000000        -4.866973301929605E-006
   88.3856250000000        -5.002041085432625E-006
   88.5993750000000        -5.113800511126140E-006
   88.8131250000000        -5.203188894124360E-006
   89.0268750000000        -5.272992455093927E-006
   89.2406250000000        -5.327548496728827E-006
   89.4543750000000        -5.370251935776789E-006
   89.6681250000000        -5.404119061090452E-006
   89.8818750000000        -5.431154647878917E-006
   90.0956250000000        -5.451823620004697E-006
   90.3093750000000        -5.465953538054857E-006
   90.5231250000000        -5.470742722606175E-006
   90.7368750000000        -5.462899686322764E-006
   90.9506250000000        -5.438873021453889E-006
   91.1643750000000        -5.395531190266150E-006
   91.3781250000000        -5.331127833259179E-006
   91.5918750000000        -5.245712533565273E-006
   91.8056250000000        -5.141598940679521E-006
   92.0193750000000        -5.023469062377630E-006
   92.2331250000000        -4.897847723139446E-006
   92.4468750000000        -4.772603807949583E-006
   92.6606250000000        -4.656118022278965E-006
   92.8743750000000        -4.556190958511217E-006
   93.0881250000000        -4.479281229596492E-006
   93.3018750000000        -4.429671436510009E-006
   93.5156250000000        -4.408379305523110E-006
   93.7293750000000        -4.415039378094434E-006
   93.9431250000000        -4.445055903261793E-006
   94.1568750000000        -4.493166616689401E-006
   94.3706250000000        -4.551411964391271E-006
   94.5843750000000        -4.612365552539162E-006
   94.7981250000000        -4.668836068654152E-006
   95.0118750000000        -4.714623304645318E-006
   95.2256250000000        -4.746923691730435E-006
   95.4393750000000        -4.764561595498003E-006
   95.6531250000000        -4.769038862210938E-006
   95.8668750000000        -4.761695977309269E-006
   96.0806250000000        -4.758049213775934E-006
   96.2943750000000        -4.754994094990622E-006
   96.5081250000000        -4.759732144624077E-006
   96.7218750000000        -4.776692287992718E-006
   96.9356250000000        -4.808193540284371E-006
   97.1493750000000        -4.855200068558841E-006
   97.3631250000000        -4.915784998558632E-006
   97.5768750000000        -4.987027248339313E-006
   97.7906250000000        -5.062430875682674E-006
   98.0043750000000        -5.135388284147394E-006
   98.2181250000000        -5.199569894967816E-006
   98.4318750000000        -5.250368542912832E-006
   98.6456250000000        -5.284831101846157E-006
   98.8593750000000        -5.301748930467490E-006
   99.0731250000000        -5.302759822957706E-006
   99.2868750000000        -5.291115875898694E-006
   99.5006250000000        -5.267693208046531E-006
   99.7143750000000        -5.252122974451196E-006
   99.9281250000000        -5.236866529362539E-006
   100.141875000000        -5.244337024841029E-006
   100.355625000000        -5.268959635504473E-006
   100.569375000000        -5.318201780253074E-006
   100.783125000000        -5.392028135166742E-006
   100.996875000000        -5.487829207797416E-006
   101.210625000000        -5.601827451238574E-006
   101.424375000000        -5.728521478794794E-006
   101.638125000000        -5.861441497701403E-006
   101.851875000000        -5.994017022639605E-006
   102.065625000000        -6.123651027294140E-006
   102.279375000000        -6.237160131176133E-006
   102.493125000000        -6.340476836251420E-006
   102.706875000000        -6.422494976036587E-006
   102.920625000000        -6.491088870465126E-006
   103.134375000000        -6.548264635006400E-006
   103.348125000000        -6.596912500494237E-006
   103.561875000000        -6.639413533512189E-006
   103.775625000000        -6.680656529775611E-006
   103.989375000000        -6.723210680936644E-006
   104.203125000000        -6.768038375554781E-006
   104.416875000000        -6.814447129695078E-006
   104.630625000000        -6.860429552268936E-006
   104.844375000000        -6.903052251816237E-006
   105.058125000000        -6.938875964163312E-006
   105.271875000000        -6.964232500984619E-006
   105.485625000000        -6.977832625198497E-006
   105.699375000000        -6.978623319319361E-006
   105.913125000000        -6.966644974527193E-006
   106.126875000000        -6.944725971228743E-006
   106.340625000000        -6.916672095601937E-006
   106.554375000000        -6.887344037178698E-006
   106.768125000000        -6.861949083550721E-006
   106.981875000000        -6.844921937210742E-006
   107.195625000000        -6.840016592058090E-006
   107.409375000000        -6.849366071939766E-006
   107.623125000000        -6.873116712316241E-006
   107.836875000000        -6.909673200070654E-006
   108.050625000000        -6.955729113714127E-006
   108.264375000000        -7.006922912537370E-006
   108.478125000000        -7.057353890030864E-006
   108.691875000000        -7.100564535129833E-006
   108.905625000000        -7.135547974599214E-006
   109.119375000000        -7.158083750482236E-006
   109.333125000000        -7.167138425006783E-006
   109.546875000000        -7.163087227855576E-006
   109.760625000000        -7.147161093550491E-006
   109.974375000000        -7.122437038969918E-006
   110.188125000000        -7.092102786589349E-006
   110.401875000000        -7.058536005265550E-006
   110.615625000000        -7.023860965820679E-006
   110.829375000000        -6.989963734411215E-006
   111.043125000000        -6.957467298265268E-006
   111.256875000000        -6.921477193463356E-006
   111.470625000000        -6.894234562148774E-006
   111.684375000000        -6.865508036953871E-006
   111.898125000000        -6.831606901287682E-006
   112.111875000000        -6.806156588885821E-006
   112.325625000000        -6.781008984367981E-006
   112.539375000000        -6.760169840165422E-006
   112.753125000000        -6.748956823762961E-006
   112.966875000000        -6.748985298789729E-006
   113.180625000000        -6.764683317256274E-006
   113.394375000000        -6.799310505489272E-006
   113.608125000000        -6.854935598604692E-006
   113.821875000000        -6.932029618390982E-006
   114.035625000000        -7.029673792954397E-006
   114.249375000000        -7.144671978264132E-006
   114.463125000000        -7.272236789651415E-006
   114.676875000000        -7.406708586290772E-006
   114.890625000000        -7.542093421236193E-006
   115.104375000000        -7.672766513886923E-006
   115.318125000000        -7.794093058231302E-006
   115.531875000000        -7.902915510077347E-006
   115.745625000000        -7.997793360489810E-006
   115.959375000000        -8.079063456373652E-006
   116.173125000000        -8.148578345420488E-006
   116.386875000000        -8.209132513998715E-006
   116.600625000000        -8.264030730412236E-006
   116.814375000000        -8.316299831520397E-006
   117.028125000000        -8.368171827998343E-006
   117.241875000000        -8.419950026310098E-006
   117.455625000000        -8.472136284580038E-006
   117.669375000000        -8.523677466367908E-006
   117.883125000000        -8.571657771365988E-006
   118.096875000000        -8.612024793557190E-006
   118.310625000000        -8.642346861896594E-006
   118.524375000000        -8.660084765954347E-006
   118.738125000000        -8.664151629330437E-006
   118.951875000000        -8.655183152898437E-006
   119.165625000000        -8.636155619662141E-006
   119.379375000000        -8.608240478930031E-006
   119.593125000000        -8.577035538413815E-006
   119.806875000000        -8.547876363677780E-006
   120.020625000000        -8.526213179559667E-006
   120.234375000000        -8.516566499928628E-006
   120.448125000000        -8.521406024407330E-006
   120.661875000000        -8.541675551370095E-006
   120.875625000000        -8.575885151386020E-006
   121.089375000000        -8.622432911053261E-006
   121.303125000000        -8.679229710035782E-006
   121.516875000000        -8.742613949573047E-006
   121.730625000000        -8.807500409890346E-006
   121.944375000000        -8.867607368330580E-006
   122.158125000000        -8.920496153594833E-006
   122.371875000000        -8.963678972539628E-006
   122.585625000000        -8.996783620648852E-006
   122.799375000000        -9.020950668410531E-006
   123.013125000000        -9.038739840278946E-006
   123.226875000000        -9.053315900497519E-006
   123.440625000000        -9.068664775259253E-006
   123.654375000000        -9.089647721086719E-006
   123.868125000000        -9.120501658809766E-006