  -1.60312500000000         0.000000000000000E+000
  -1.38937500000000         0.000000000000000E+000
  -1.17562500000000         0.000000000000000E+000
 -0.961875000000000         0.000000000000000E+000
 -0.748125000000000         0.000000000000000E+000
 -0.534375000000000         0.000000000000000E+000
 -0.320625000000000         0.000000000000000E+000
 -0.106875000000000         0.000000000000000E+000
  0.106875000000000         0.000000000000000E+000
  0.320625000000000         0.000000000000000E+000
  0.534375000000000         0.000000000000000E+000
  0.748125000000000         0.000000000000000E+000
  0.961875000000000         0.000000000000000E+000
   1.17562500000000         0.000000000000000E+000
   1.38937500000000         0.000000000000000E+000
   1.60312500000000         0.000000000000000E+000
   1.81687500000000         0.000000000000000E+000
   2.03062500000000         0.000000000000000E+000
   2.24437500000000         0.000000000000000E+000
   2.45812500000000         0.000000000000000E+000
   2.67187500000000         0.000000000000000E+000
   2.88562500000000         0.000000000000000E+000
   3.09937500000000         0.000000000000000E+000
   3.31312500000000         0.000000000000000E+000
   3.52687500000000         0.000000000000000E+000
   3.74062500000000         0.000000000000000E+000
   3.95437500000000         0.000000000000000E+000
   4.16812500000000         0.000000000000000E+000
   4.38187500000000         0.000000000000000E+000
   4.59562500000000         0.000000000000000E+000
   4.80937500000000         0.000000000000000E+000
   5.02312500000000         0.000000000000000E+000
   5.23687500000000         0.000000000000000E+000
   5.45062500000000         0.000000000000000E+000
   5.66437500000000         0.000000000000000E+000
   5.87812500000000         0.000000000000000E+000
   6.09187500000000         0.000000000000000E+000
   6.30562500000000         0.000000000000000E+000
   6.51937500000000         0.000000000000000E+000
   6.73312500000000         0.000000000000000E+000
   6.94687500000000         0.000000000000000E+000
   7.16062500000000         0.000000000000000E+000
   7.37437500000000         0.000000000000000E+000
   7.58812500000000         0.000000000000000E+000
   7.80187500000000         0.000000000000000E+000
   8.01562500000000         0.000000000000000E+000
   8.22937500000000         0.000000000000000E+000
   8.44312500000000         0.000000000000000E+000
   8.65687500000000         0.000000000000000E+000
   8.87062500000000         0.000000000000000E+000
   9.08437500000000         0.000000000000000E+000
   9.29812500000000        -1.077149980627605E-214
   9.51187500000000         7.611060348321252E-208
   9.72562500000000         4.267027890170444E-203
   9.93937500000000         6.268602251751494E-201
   10.1531250000000        -1.330094120718396E-198
   10.3668750000000        -2.873794286663408E-196
   10.5806250000000        -1.161644799470159E-194
   10.7943750000000        -1.783647155022398E-193
   11.0081250000000        -1.149715948516867E-192
   11.2218750000000        -6.444062896734689E-191
   11.4356250000000        -4.158726785262457E-189
   11.6493750000000        -1.381225322902908E-187
   11.8631250000000        -3.056278882805797E-186
   12.0768750000000        -5.073660607304258E-185
   12.2906250000000        -6.696295100913860E-184
   12.5043750000000        -7.221326999601501E-183
   12.7181250000000        -6.375815892313552E-182
   12.9318750000000        -4.420646902273488E-181
   13.1456250000000        -1.950760749596264E-180
   13.3593750000000         4.109725355487569E-180
   13.5731250000000         2.231203444601756E-178
   13.7868750000000         3.329740393821563E-177
   14.0006250000000         3.733617378164801E-176
   14.2143750000000         3.593023543239833E-175
   14.4281250000000         3.104622502840771E-174
   14.6418750000000         2.457035036465051E-173
   14.8556250000000         1.798495651962607E-172
   15.0693750000000         1.223612700168087E-171
   15.2831250000000         7.754982341456820E-171
   15.4968750000000         4.579899328275244E-170
   15.7106250000000         2.516489094263962E-169
   15.9243750000000         1.281290343663089E-168
   16.1381250000000         5.996343293857107E-168
   16.3518750000000         2.538141705834048E-167
   16.5656250000000         9.383205030397875E-167
   16.7793750000000         2.755546640304841E-166
   16.9931250000000         3.989750871735997E-166
   17.2068750000000        -2.340263007220262E-165
   17.4206250000000        -2.829766164379879E-164
   17.6343750000000        -1.932275173051342E-163
   17.8481250000000        -1.068357542091665E-162
   18.0618750000000        -5.187460389890137E-162
   18.2756250000000        -2.278512672865278E-161
   18.4893750000000        -9.154561366260217E-161
   18.7031250000000        -3.366211581693124E-160
   18.9168750000000        -1.121553061170335E-159
   19.1306250000000        -3.291851303286215E-159
   19.3443750000000        -7.871217942963303E-159
   19.5581250000000        -1.088925723131289E-158
   19.7718750000000         2.751585592604405E-158
   19.9856250000000         3.250821013291726E-157
   20.1993750000000         1.842250960966651E-156
   20.4131250000000         8.305722396878970E-156
   20.6268750000000         3.283932937540055E-155
   20.8406250000000         1.179141432356434E-154
   21.0543750000000         3.901597760628095E-154
   21.2681250000000         1.195390206109846E-153
   21.4818750000000         3.383257107261473E-153
   21.6956250000000         8.749831647615414E-153
   21.9093750000000         2.013880154910761E-152
   22.1231250000000         3.853309337679113E-152
   22.3368750000000         4.712158798685321E-152
   22.5506250000000        -4.914419298029817E-152
   22.7643750000000        -6.153370246154678E-151
   22.9781250000000        -2.821535650213199E-150
   23.1918750000000        -9.969547027443004E-150
   23.4056250000000        -3.037829827755595E-149
   23.6193750000000        -8.259371416217644E-149
   23.8331250000000        -2.017050386325147E-148
   24.0468750000000        -4.364080346665003E-148
   24.2606250000000        -7.965782173740422E-148
   24.4743750000000        -1.029625329516370E-147
   24.6881250000000         8.931600814258231E-149
   24.9018750000000         6.666515155286903E-147
   25.1156250000000         3.019642095910267E-146
   25.3293750000000         9.890479079735745E-146
   25.5431250000000         2.742123583542633E-145
   25.7568750000000         6.726295736034820E-145
   25.9706250000000         1.474974074498469E-144
   26.1843750000000         2.857566698529731E-144
   26.3981250000000         4.668643952787926E-144
   26.6118750000000         5.451310251823127E-144
   26.8256250000000         5.339223971867015E-146
   27.0393750000000        -2.533734519310650E-143
   27.2531250000000        -1.018319733306183E-142
   27.4668750000000        -2.892250698096157E-142
   27.6806250000000        -6.816899995918718E-142
   27.8943750000000        -1.379519787010319E-141
   28.1081250000000        -2.355670517346270E-141
   28.3218750000000        -3.067877567751169E-141
   28.5356250000000        -1.554549707071407E-141
   28.7493750000000         7.345419144759626E-141
   28.9631250000000         3.491650720919722E-140
   29.1768750000000         1.021788810170731E-139
   29.3906250000000         2.414873093789843E-139
   29.6043750000000         4.881518394062249E-139
   29.8181250000000         8.439344818193967E-139
   30.0318750000000         1.178055612035247E-138
   30.2456250000000         1.012138728437569E-138
   30.4593750000000        -8.720825870705265E-139
   30.6731250000000        -7.020386727791398E-138
   30.8868750000000        -2.193159319715701E-137
   31.1006250000000        -5.211511969457808E-137
   31.3143750000000        -1.040621568205203E-136
   31.5281250000000        -1.770756191320743E-136
   31.7418750000000        -2.458596070026316E-136
   31.9556250000000        -2.261433412811164E-136
   32.1693750000000         8.190141333703920E-137
   32.3831250000000         1.067267899691137E-135
   32.5968750000000         3.363865603181273E-135
   32.8106250000000         7.789718319760763E-135
   33.0243750000000         1.495822307776720E-134
   33.2381250000000         2.418899186159448E-134
   33.4518750000000         3.118707945562142E-134
   33.6656250000000         2.397034638448315E-134
   33.8793750000000        -2.290763045753617E-134
   34.0931250000000        -1.539387463176316E-133
   34.3068750000000        -4.318806807683597E-133
   34.5206250000000        -9.164821541421312E-133
   34.7343750000000        -1.596431100485344E-132
   34.9481250000000        -2.234812205633342E-132
   35.1618750000000        -2.085141699263612E-132
   35.3756250000000         5.290222460823990E-133
   35.5893750000000         8.644867298583797E-132
   35.8031250000000         2.665042874680139E-131
   36.0168750000000         5.874813448739234E-131
   36.2306250000000         1.037980733282630E-130
   36.4443750000000         1.432694148071510E-130
   36.6581250000000         1.185957469135730E-130
   36.8718750000000        -1.030723725168356E-130
   37.0856250000000        -7.650578381497271E-130
   37.2993750000000        -2.223053623364696E-129
   37.5131250000000        -4.824219193651025E-129
   37.7268750000000        -8.491851763174957E-129
   37.9406250000000        -1.174667273839130E-128
   38.1543750000000        -9.857364066888206E-129
   38.3681250000000         7.980597331807321E-129
   38.5818750000000         6.172130919491011E-128
   38.7956250000000         1.810757908465349E-127
   39.0093750000000         3.970542838826410E-127
   39.2231250000000         7.118366517207396E-127
   39.4368750000000         1.027546685786386E-126
   39.6506250000000         1.012112875340014E-126
   39.8643750000000        -1.049940650588115E-127
   40.0781250000000        -3.759148919619554E-126
   40.2918750000000        -1.211994594926327E-125
   40.5056250000000        -2.757968417079514E-125
   40.7193750000000        -5.087084175889255E-125
   40.9331250000000        -7.662837448516715E-125
   41.1468750000000        -8.511275343258331E-125
   41.3606250000000        -2.972897083689103E-125
   41.5743750000000         1.767979076346737E-124
   41.7881250000000         6.673904223417128E-124
   42.0018750000000         1.593352475440639E-123
   42.2156250000000         3.022600490883448E-123
   42.4293750000000         4.702108779118203E-123
   42.6431250000000         5.621127626064785E-123
   42.8568750000000         3.362246241475941E-123
   43.0706250000000        -6.609413781449513E-123
   43.2843750000000        -3.121385220600822E-122
   43.4981250000000        -7.846399967367083E-122
   43.7118750000000        -1.526586408578816E-121
   43.9256250000000        -2.433228182835810E-121
   44.1393750000000        -3.052033605475784E-121
   44.3531250000000        -2.290317380568707E-121
   44.5668750000000         1.900419624533322E-121
   44.7806250000000         1.264488102262037E-120
   44.9943750000000         3.360257663740295E-120
   45.2081250000000         6.697286144283188E-120
   45.4218750000000         1.089738733699264E-119
   45.6356250000000         1.417917632570734E-119
   45.8493750000000         1.219878037045290E-119
   46.0631250000000        -3.187425960593843E-120
   46.2768750000000        -4.440756878720004E-119
   46.4906250000000        -1.261889403350813E-118
   46.7043750000000        -2.582673089955899E-118
   46.9181250000000        -4.290602790184626E-118
   47.1318750000000        -5.769584349098540E-118
   47.3456250000000        -5.494400279535715E-118
   47.5593750000000        -5.964123888712502E-119
   47.7731250000000         1.331793803413952E-117
   47.9868750000000         4.153528926832906E-117
   48.2006250000000         8.788606856401247E-117
   48.4143750000000         1.495156837617723E-116
   48.6281250000000         2.077651194843331E-116
   48.8418750000000         2.152628917463624E-116
   49.0556250000000         8.216456527814241E-117
   49.2693750000000        -3.302071489556556E-116
   49.4831250000000        -1.192028003781464E-115
   49.6968750000000        -2.638135501923582E-115
   49.9106250000000        -4.619081508619426E-115
   50.1243750000000        -6.642167583406145E-115
   50.3381250000000        -7.405243231717185E-115
   50.5518750000000        -4.401849481611486E-115
   50.7656250000000         6.284683353964975E-115
   50.9793750000000         2.957460780838909E-114
   51.1931250000000         6.971042044200586E-114
   51.4068750000000         1.264732175724128E-113
   51.6206250000000         1.885904419443886E-113
   51.8343750000000         2.243775364317089E-113
   52.0481250000000         1.714677922079144E-113
   52.2618750000000        -6.924881323705334E-114
   52.4756250000000        -6.255929029959379E-113
   52.6893750000000        -1.616644408097291E-112
   52.9031250000000        -3.066819091355568E-112
   53.1168750000000        -4.755063303831597E-112
   53.3306250000000        -5.999017374515403E-112
   53.5443750000000        -5.412868998389356E-112
   53.7581250000000        -7.468565024443286E-113
   53.9718750000000         1.098375170773242E-111
   54.1856250000000         3.275928042696184E-111
   54.3993750000000         6.580694879063511E-111
   54.6131250000000         1.064929497967460E-110
   54.8268750000000         1.418211115130533E-110
   55.0406250000000         1.442557513187585E-110
   55.2543750000000         6.791556779809796E-111
   55.4681250000000        -1.499105512210373E-110
   55.6818750000000        -5.758244558017962E-110
   55.8956250000000        -1.248341177582242E-109
   56.1093750000000        -2.120025929939672E-109
   56.3231250000000        -2.972403291153190E-109
   56.5368750000000        -3.315460857047598E-109
   56.7506250000000        -2.306777804524881E-109
   56.9643750000000         1.241543980263124E-109
   57.1781250000000         8.662442658645630E-109
   57.3918750000000         2.090698655101091E-108
   57.6056250000000         3.756788884033878E-108
   57.8193750000000         5.541685039639721E-108
   58.0331250000000         6.662876380193779E-108
   58.2468750000000         5.723603720635874E-108
   58.4606250000000         6.885674068358651E-109
   58.6743750000000        -1.084245916858176E-107
   58.8881250000000        -3.084981926313510E-107
   59.1018750000000        -5.939393419330427E-107
   59.3156250000000        -9.231882683323007E-107
   59.5293750000000        -1.183829292912245E-106
   59.7431250000000        -1.165833708133622E-106
   59.9568750000000        -5.522007516775234E-107
   60.1706250000000         1.048531346061294E-106
   60.3843750000000         3.996279911956658E-106
   60.5981250000000         8.408550169716111E-106
   60.8118750000000         1.382908046814084E-105
   61.0256250000000         1.880106581836504E-105
   61.2393750000000         2.044347232307460E-105
   61.4531250000000         1.423581384409249E-105
   61.6668750000000        -5.657451106081214E-106
   61.8806250000000        -4.508597675210530E-105
   62.0943750000000        -1.071844890119485E-104
   62.3081250000000        -1.879447279771149E-104
   62.5218750000000        -2.703168838130869E-104
   62.7356250000000        -3.179935394679071E-104
   62.9493750000000        -2.714010481441718E-104
   63.1631250000000        -5.008380959050715E-105
   63.3768750000000         4.328386656727292E-104
   63.5906250000000         1.237983166883707E-103
   63.8043750000000         2.344427343031022E-103
   64.0181250000000         3.573121164099003E-103
   64.2318750000000         4.501129289202454E-103
   64.4456250000000         4.395492869144723E-103
   64.6593750000000         2.216445978276142E-103
   64.8731250000000        -3.239875067227460E-103
   65.0868750000000        -1.297871712872955E-102
   65.3006250000000        -2.715777754668795E-102
   65.5143750000000        -4.414343849974395E-102
   65.7281250000000        -5.938301793553116E-102
   65.9418750000000        -6.439575287713008E-102
   66.1556250000000        -4.643961314777442E-102
   66.3693750000000         1.031827077342836E-102
   66.5831250000000         1.211115360476799E-101
   66.7968750000000         2.934043891442978E-101
   67.0106250000000         5.157979907369856E-101
   67.2243750000000         7.437879358037064E-101
   67.4381250000000         8.852474688733327E-101
   67.6518750000000         7.914873107250545E-101
   67.8656250000000         2.632210028911575E-101
   68.0793750000000        -9.162020308223806E-101
   68.2931250000000        -2.907032221188753E-100
   68.5068750000000        -5.689250359877996E-100
   68.7206250000000        -8.890277415204929E-100
   68.9343750000000        -1.158756930962345E-099
   69.1481250000000        -1.214268494586217E-099
   69.3618750000000        -8.166193752576547E-100
   69.5756250000000         3.243046914178443E-100
   69.7893750000000         2.481169723587747E-099
   70.0031250000000         5.779885721267113E-099
   70.2168750000000         1.000256485126067E-098
   70.4306250000000         1.433620499307412E-098
   70.6443750000000         1.711557875387039E-098
   70.8581250000000         1.565835520795382E-098
   71.0718750000000         6.348773954191006E-099
   71.2856250000000        -1.482160239109867E-098
   71.4993750000000        -5.102806380113446E-098
   71.7131250000000        -1.025263298473755E-097
   71.9268750000000        -1.637025599748849E-097
   72.1406250000000        -2.195960565861725E-097
   72.3543750000000        -2.427618854172733E-097
   72.5681250000000        -1.920366076886637E-097
   72.7818750000000        -1.551432877662360E-098
   72.9956250000000         3.394139112584005E-097
   73.2093750000000         9.061570367332352E-097
   73.4231250000000         1.667549736704385E-096
   73.6368750000000         2.514336944026105E-096
   73.8506250000000         3.200016534169968E-096
   74.0643750000000         3.306018848141196E-096
   74.2781250000000         2.240246420097798E-096
   74.4918750000000        -6.994208226700189E-097
   74.7056250000000        -6.160636276544883E-096
   74.9193750000000        -1.444033521740616E-095
   75.1331250000000        -2.504761661080348E-095
   75.3468750000000        -3.616141909813339E-095
   75.5606250000000        -4.409042246005641E-095
   75.7743750000000        -4.293863633045231E-095
   75.9881250000000        -2.478618003523323E-095
   76.2018750000000         1.921971403211962E-095
   76.4156250000000         9.645307965109541E-095
   76.6293750000000         2.087883901551881E-094
   76.8431250000000         3.470155447860441E-094
   77.0568750000000         4.843425845978420E-094
   77.2706250000000         5.705330280887435E-094
   77.4843750000000         5.293310711657874E-094
   77.6981250000000         2.629283739613395E-094
   77.9118750000000        -3.320763115452558E-094
   78.1256250000000        -1.333063048862791E-093
   78.3393750000000        -2.741955614652939E-093
   78.5531250000000        -4.420208448927382E-093
   78.7668750000000        -6.017727592490737E-093
   78.9806250000000        -6.915179670872778E-093
   79.1943750000000        -6.210503601612147E-093
   79.4081250000000        -2.790480819462995E-093
   79.6218750000000         4.467511031643992E-093
   79.8356250000000         1.632593531823790E-092
   80.0493750000000         3.263808863909543E-092
   80.2631250000000         5.165826002888727E-092
   80.4768750000000         6.932636570581738E-092
   80.6906250000000         7.874072730560110E-092
   80.9043750000000         7.013728777067138E-092
   81.1181250000000         3.177557996796415E-092
   81.3318750000000        -4.785180865880358E-092
   81.5456250000000        -1.761724447280989E-091
   81.7593750000000        -3.510137916676566E-091
   81.9731250000000        -5.538670412700265E-091
   82.1868750000000        -7.431067859727374E-091
   82.4006250000000        -8.492140199013944E-091
   82.6143750000000        -7.749389736317208E-091
   82.8281250000000        -4.039882509491229E-091
   83.0418750000000         3.781299358816949E-091
   83.2556250000000         1.648444885288758E-090
   83.4693750000000         3.395812858622557E-090
   83.6831250000000         5.459090487960574E-090
   83.8968750000000         7.464049972397871E-090
   84.1106250000000         8.776121238603708E-090
   84.3243750000000         8.493486764119005E-090
   84.5381250000000         5.510869107644549E-090
   84.7518750000000        -1.314047660037322E-090
   84.9656250000000        -1.286539241486527E-089
   85.1793750000000        -2.933537932560709E-089
   85.3931250000000        -4.967239078883848E-089
   85.6068750000000        -7.097614892852825E-089
   85.8206250000000        -8.796399822778545E-089
   86.0343750000000        -9.269973514387914E-089
   86.2481250000000        -7.484205640706073E-089
   86.4618750000000        -2.271651142352164E-089
   86.6756250000000         7.448161767031992E-089
   86.8893750000000         2.231175282671667E-088
   87.1031250000000         4.201276796608611E-088
   87.3168750000000         6.468915941122016E-088
   87.5306250000000         8.627562751977620E-088
   87.7443750000000         9.996986624080307E-088
   87.9581250000000         9.604458320015679E-088
   88.1718750000000         6.232292382018233E-088
   88.3856250000000        -1.429985690418082E-088
   88.5993750000000        -1.448971349495352E-087
   88.8131250000000        -3.338215474599415E-087
   89.0268750000000        -5.722604992419228E-087
   89.2406250000000        -8.305092889320322E-087
   89.4543750000000        -1.050203856111077E-086
   89.6681250000000        -1.138784772925383E-086
   89.8818750000000        -9.696478521946977E-087
   90.0956250000000        -3.925257483787561E-087
   90.3093750000000         7.407919324934736E-087
   90.5231250000000         2.530879282555216E-086
   90.7368750000000         4.963221483061335E-086
   90.9506250000000         7.822080193944106E-086
   91.1643750000000         1.059730364464044E-085
   91.3781250000000         1.240727471836553E-085
   91.5918750000000         1.197467417814185E-085
   91.8056250000000         7.704308307703161E-086
   92.0193750000000        -2.080891633448879E-086
   92.2331250000000        -1.869520286852730E-085
   92.4468750000000        -4.241238612251118E-085
   92.6606250000000        -7.158474248023334E-085
   92.8743750000000        -1.016755944074430E-084
   93.0881250000000        -1.244385357564320E-084
   93.3018750000000        -1.276090352909187E-084
   93.5156250000000        -9.559146795433854E-085
   93.7293750000000        -1.167894876652805E-085
   93.9431250000000         1.377301366406264E-084
   94.1568750000000         3.567283157161296E-084
   94.3706250000000         6.316524413252448E-084
   94.5843750000000         9.221605428257135E-084
   94.7981250000000         1.153859273133945E-083
   95.0118750000000         1.215852580297423E-083
   95.2256250000000         9.675127885115204E-084
   95.4393750000000         2.590523090846473E-084
   95.6531250000000        -1.030453452346119E-083
   95.8668750000000        -2.936641922678314E-083
   96.0806250000000        -5.338981999663283E-083
   96.2943750000000        -7.886508072829400E-083
   96.5081250000000        -9.939989526979360E-083
   96.7218750000000        -1.055918807820640E-082
   96.9356250000000        -8.570158913274412E-083
   97.1493750000000        -2.747696119224249E-083
   97.3631250000000         7.862225026638966E-083
   97.5768750000000         2.347975700748031E-082
   97.7906250000000         4.302925122737769E-082
   98.0043750000000         6.357589208510125E-082
   98.2181250000000         7.992449015074377E-082
   98.4318750000000         8.460532586691078E-082
   98.6456250000000         6.850768550208194E-082
   98.8593750000000         2.240468799029318E-082
   99.0731250000000        -6.048624507973232E-082
   99.2868750000000        -1.809686620047524E-081
   99.5006250000000        -3.297404478280317E-081
   99.7143750000000        -4.834745266857941E-081
   99.9281250000000        -6.023594394328247E-081
   100.141875000000        -6.307342548374493E-081
   100.355625000000        -5.026077091129577E-081
   100.569375000000        -1.535933363547589E-081
   100.783125000000         4.600642996833816E-081
   100.996875000000         1.336280570131046E-080
   101.210625000000         2.398957146427190E-080
   101.424375000000         3.472890880835440E-080
   101.638125000000         4.270678215264879E-080
   101.851875000000         4.402644913152149E-080
   102.065625000000         3.421147625776025E-080
   102.279375000000         9.079327257909014E-081
   102.493125000000        -3.393449138227177E-080
   102.706875000000        -9.409433534803026E-080
   102.920625000000        -1.655712377520713E-079
   103.134375000000        -2.359633330513237E-079
   103.348125000000        -2.857207411872758E-079
   103.561875000000        -2.891675223298876E-079
   103.775625000000        -2.177850099438079E-079
   103.989375000000        -4.619450731173710E-080
   104.203125000000         2.391998286532825E-079
   104.416875000000         6.296895547893295E-079
   104.630625000000         1.083601605723164E-078
   104.844375000000         1.518275412465514E-078
   105.058125000000         1.808333442053990E-078
   105.271875000000         1.794297345926151E-078
   105.485625000000         1.305135886208329E-078
   105.699375000000         1.966443964086916E-079
   105.913125000000        -1.595580549195078E-078
   106.126875000000        -3.994360850532456E-078
   106.340625000000        -6.721681707649789E-078
   106.554375000000        -9.258893166980715E-078
   106.768125000000        -1.084751026411692E-077
   106.981875000000        -1.055270432576622E-077
   107.195625000000        -7.407252618661767E-078
   107.409375000000        -6.424034126472804E-079
   107.623125000000         1.000696635782475E-077
   107.836875000000         2.396153729476734E-077
   108.050625000000         3.948956788868095E-077
   108.264375000000         5.352820670747486E-077
   108.478125000000         6.174839612840707E-077
   108.691875000000         5.897547464200394E-077
   108.905625000000         4.004549128473041E-077
   109.119375000000         1.108011480125667E-078
   109.333125000000        -5.872157532534152E-077
   109.546875000000        -1.355957462123160E-076
   109.760625000000        -2.194396522556736E-076
   109.974375000000        -2.932404846123700E-076
   110.188125000000        -3.336985850566896E-076
   110.401875000000        -3.137681199148514E-076
   110.615625000000        -2.074086416458940E-076
   110.829375000000         3.520840219439260E-078
   111.043125000000         3.208592860860094E-076
   111.256875000000         7.215530169687181E-076
   111.470625000000         1.150892585463028E-075
   111.684375000000         1.520127560380709E-075
   111.898125000000         1.711174456175821E-075
   112.111875000000         1.590709362231063E-075
   112.325625000000         1.034748528085568E-075
   112.539375000000        -3.720289164087434E-077
   112.753125000000        -1.622108483391511E-075
   112.966875000000        -3.594294202950433E-075
   113.180625000000        -5.677079298729643E-075
   113.394375000000        -7.436926364808624E-075
   113.608125000000        -8.311945813266721E-075
   113.821875000000        -7.683824279291934E-075
   114.035625000000        -4.996051357626093E-075
   114.249375000000         8.835776772581324E-077
   114.463125000000         7.508838221099410E-075
   114.676875000000         1.664149013922436E-074
   114.890625000000         2.618960700438260E-074
   115.104375000000         3.418077878981248E-074
   115.318125000000         3.811788192002064E-074
   115.531875000000         3.531595178469372E-074
   115.745625000000         2.342758966811671E-074
   115.959375000000         1.117158547760536E-075
   116.173125000000        -3.120694842731606E-074
   116.386875000000        -7.074385459957679E-074
   116.600625000000        -1.119169542710791E-073
   116.814375000000        -1.464511464842969E-073
   117.028125000000        -1.640805026269659E-073
   117.241875000000        -1.539820171982990E-073
   117.455625000000        -1.069056154704916E-073
   117.669375000000        -1.780289066343582E-074
   117.883125000000         1.114305960288607E-073
   118.096875000000         2.696567091268577E-073
   118.310625000000         4.353083219623474E-073
   118.524375000000         5.769859141767583E-073
   118.738125000000         6.563610116386720E-073
   118.951875000000         6.335936519486841E-073
   119.165625000000         4.749967344471513E-073
   119.379375000000         1.621011730212414E-073
   119.593125000000        -2.993116901172580E-073
   119.806875000000        -8.721087756858990E-073
   120.020625000000        -1.484728957390203E-072
   120.234375000000        -2.034020143304041E-072
   120.448125000000        -2.395192314739857E-072
   120.661875000000        -2.438933546064298E-072
   120.875625000000        -2.054238879682406E-072
   121.089375000000        -1.173915538608739E-072
   121.303125000000         2.015947319030447E-073
   121.516875000000         1.987099985831919E-072
   121.730625000000         4.006935225533821E-072
   121.944375000000         6.003796300257659E-072
   122.158125000000         7.662674121871180E-072
   122.371875000000         8.647140320487952E-072
   122.585625000000         8.642035047335074E-072
   122.799375000000         7.394498467538575E-072
   123.013125000000         4.745286665509120E-072
   123.226875000000         6.451391617881747E-073
   123.440625000000        -4.843323379024249E-072
   123.654375000000        -1.155002135338333E-071
   123.868125000000        -1.919244606849653E-071