  -1.60312500000000         0.000000000000000E+000
  -1.38937500000000         2.962995647487171E-012
  -1.17562500000000         2.074164549939930E-011
 -0.961875000000000         9.932452478219464E-011
 -0.748125000000000         3.835643789036640E-010
 -0.534375000000000         1.243810894755036E-009
 -0.320625000000000         3.449722390166613E-009
 -0.106875000000000         8.299870309032794E-009
  0.106875000000000         1.757388556557486E-008
  0.320625000000000         3.325811121646334E-008
  0.534375000000000         5.713935179724364E-008
  0.748125000000000         9.049821747745435E-008
  0.961875000000000         1.340526916819163E-007
   1.17562500000000         1.879377705172138E-007
   1.38937500000000         2.518266156851380E-007
   1.60312500000000         3.250531986848684E-007
   1.81687500000000         4.065810997812551E-007
   2.03062500000000         4.949762601094956E-007
   2.24437500000000         5.892342219164662E-007
   2.45812500000000         6.855985230518399E-007
   2.67187500000000         7.826651881022211E-007
   2.88562500000000         8.761295304264962E-007
   3.09937500000000         9.633694441145668E-007
   3.31312500000000         1.042496420813561E-006
   3.52687500000000         1.110690241663691E-006
   3.74062500000000         1.165672603137233E-006
   3.95437500000000         1.205830469487046E-006
   4.16812500000000         1.230272294289718E-006
   4.38187500000000         1.239569103269489E-006
   4.59562500000000         1.234684364591954E-006
   4.80937500000000         1.216764615929848E-006
   5.02312500000000         1.189202915443027E-006
   5.23687500000000         1.155191430721211E-006
   5.45062500000000         1.118885323189332E-006
   5.66437500000000         1.084639714106447E-006
   5.87812500000000         1.056835608123537E-006
   6.09187500000000         1.039448766460603E-006
   6.30562500000000         1.036149608052385E-006
   6.51937500000000         1.050512837228568E-006
   6.73312500000000         1.082824932087126E-006
   6.94687500000000         1.134668180410598E-006
   7.16062500000000         1.202197655040535E-006
   7.37437500000000         1.283777007941518E-006
   7.58812500000000         1.375707225256309E-006
   7.80187500000000         1.473115631143299E-006
   8.01562500000000         1.570428388743495E-006
   8.22937500000000         1.661756056294728E-006
   8.44312500000000         1.741345763133864E-006
   8.65687500000000         1.803939933498795E-006
   8.87062500000000         1.845182532564190E-006
   9.08437500000000         1.861805005017697E-006
   9.29812500000000         1.852054379300479E-006
   9.51187500000000         1.816983860592458E-006
   9.72562500000000         1.756968872587329E-006
   9.93937500000000         1.674660584413377E-006
   10.1531250000000         1.573530587749351E-006
   10.3668750000000         1.457950579328334E-006
   10.5806250000000         1.332676611094777E-006
   10.7943750000000         1.202470195693634E-006
   11.0081250000000         1.071873482684246E-006
   11.2218750000000         9.424935602762768E-007
   11.4356250000000         8.227837257170636E-007
   11.6493750000000         7.098221945450229E-007
   11.8631250000000         6.141446405976145E-007
   12.0768750000000         5.269272894464938E-007
   12.2906250000000         4.609312469900448E-007
   12.5043750000000         4.051379108896239E-007
   12.7181250000000         3.710671497960778E-007
   12.9318750000000         3.492957482257081E-007
   13.1456250000000         3.463980244671150E-007
   13.3593750000000         3.538859832701112E-007
   13.5731250000000         3.714967649518405E-007
   13.7868750000000         3.970990948741821E-007
   14.0006250000000         4.279264035666914E-007
   14.2143750000000         4.607322483586481E-007
   14.4281250000000         4.921041714483098E-007
   14.6418750000000         5.185660945331259E-007
   14.8556250000000         5.370916630679794E-007
   15.0693750000000         5.461098291588391E-007
   15.2831250000000         5.441065576880722E-007
   15.4968750000000         5.297585018051770E-007
   15.7106250000000         5.061347650273823E-007
   15.9243750000000         4.757908680166547E-007
   16.1381250000000         4.417001313466122E-007
   16.3518750000000         4.075237987861481E-007
   16.5656250000000         3.772025634351172E-007
   16.7793750000000         3.540897900854203E-007
   16.9931250000000         3.403980989896689E-007
   17.2068750000000         3.385673483282490E-007
   17.4206250000000         3.526268269398439E-007
   17.6343750000000         3.767946473362316E-007
   17.8481250000000         3.995764182865704E-007
   18.0618750000000         4.318878971717523E-007
   18.2756250000000         4.540138404739126E-007
   18.4893750000000         4.779816292500177E-007
   18.7031250000000         4.885256801362825E-007
   18.9168750000000         4.938148259584821E-007
   19.1306250000000         4.905217806827287E-007
   19.3443750000000         4.807208934028806E-007
   19.5581250000000         4.666776748263478E-007
   19.7718750000000         4.516965978902788E-007
   19.9856250000000         4.394089137929605E-007
   20.1993750000000         4.332289643096044E-007
   20.4131250000000         4.359941445661685E-007
   20.6268750000000         4.495854624934448E-007
   20.8406250000000         4.744490455943600E-007
   21.0543750000000         5.093121386387024E-007
   21.2681250000000         5.524457542165543E-007
   21.4818750000000         6.016290548671740E-007
   21.6956250000000         6.527219521330763E-007
   21.9093750000000         7.029486583755133E-007
   22.1231250000000         7.496862504181788E-007
   22.3368750000000         7.911945026666194E-007
   22.5506250000000         8.267643918089086E-007
   22.7643750000000         8.566045748955974E-007
   22.9781250000000         8.822013915556725E-007
   23.1918750000000         9.053724229238388E-007
   23.4056250000000         9.277691823335614E-007
   23.6193750000000         9.509913835739674E-007
   23.8331250000000         9.758894596179127E-007
   24.0468750000000         1.002565622200198E-006
   24.2606250000000         1.030290468548437E-006
   24.4743750000000         1.057985972666255E-006
   24.6881250000000         1.083434390694190E-006
   24.9018750000000         1.103918833828270E-006
   25.1156250000000         1.116747513625102E-006
   25.3293750000000         1.120014586063050E-006
   25.5431250000000         1.112609285582712E-006
   25.7568750000000         1.092373459994516E-006
   25.9706250000000         1.058448316779033E-006
   26.1843750000000         1.009551443792687E-006
   26.3981250000000         9.574234064426039E-007
   26.6118750000000         8.919796099019811E-007
   26.8256250000000         8.297263182567205E-007
   27.0393750000000         7.603439277688965E-007
   27.2531250000000         6.984911204294202E-007
   27.4668750000000         6.391384970816431E-007
   27.6806250000000         5.848374295225368E-007
   27.8943750000000         5.370743554674609E-007
   28.1081250000000         4.968719316463016E-007
   28.3218750000000         4.631184901849513E-007
   28.5356250000000         4.360363662882918E-007
   28.7493750000000         4.151674969561207E-007
   28.9631250000000         3.998484930432535E-007
   29.1768750000000         3.887690574698894E-007
   29.3906250000000         3.809637370949420E-007
   29.6043750000000         3.753220423743805E-007
   29.8181250000000         3.705477165328035E-007
   30.0318750000000         3.652323404332975E-007
   30.2456250000000         3.597744375966519E-007
   30.4593750000000         3.500650329246988E-007
   30.6731250000000         3.365146348940835E-007
   30.8868750000000         3.183114829500343E-007
   31.1006250000000         2.947470266804216E-007
   31.3143750000000         2.655384470091583E-007
   31.5281250000000         2.307079949219170E-007
   31.7418750000000         1.907941660635690E-007
   31.9556250000000         1.467150005778010E-007
   32.1693750000000         9.983306925096986E-008
   32.3831250000000         5.184177386856626E-008
   32.5968750000000         4.526033555324922E-009
   32.8106250000000        -3.997961503429692E-008
   33.0243750000000        -7.960611848095264E-008
   33.2381250000000        -1.128988666465971E-007
   33.4518750000000        -1.385922661567398E-007
   33.6656250000000        -1.558878685816748E-007
   33.8793750000000        -1.645167322341337E-007
   34.0931250000000        -1.646247342569121E-007
   34.3068750000000        -1.566965136526933E-007
   34.5206250000000        -1.414963677677399E-007
   34.7343750000000        -1.206486245365699E-007
   34.9481250000000        -9.462345867569923E-008
   35.1618750000000        -6.522090394925160E-008
   35.3756250000000        -3.371884451178809E-008
   35.5893750000000        -1.369042018399356E-009
   35.8031250000000         3.055390110931647E-008
   36.0168750000000         6.070662761386529E-008
   36.2306250000000         8.759286933572525E-008
   36.4443750000000         1.095083710780862E-007
   36.6581250000000         1.247598083666146E-007
   36.8718750000000         1.275775954512889E-007
   37.0856250000000         1.289070909972787E-007
   37.2993750000000         1.156194507354208E-007
   37.5131250000000         9.515704675361984E-008
   37.7268750000000         5.679445410151764E-008
   37.9406250000000         1.794074447617318E-008
   38.1543750000000        -3.000077728178938E-008
   38.3681250000000        -8.076951968703107E-008
   38.5818750000000        -1.300816965546194E-007
   38.7956250000000        -1.728862538484338E-007
   39.0093750000000        -2.040138424277136E-007
   39.2231250000000        -2.182503604071877E-007
   39.4368750000000        -2.110966546412773E-007
   39.6506250000000        -1.763419664036976E-007
   39.8643750000000        -1.224561291860024E-007
   40.0781250000000        -4.601272429490842E-008
   40.2918750000000         4.949610373228981E-008
   40.5056250000000         1.587056215378353E-007
   40.7193750000000         2.757062872372961E-007
   40.9331250000000         3.910688158987871E-007
   41.1468750000000         5.071677958205933E-007
   41.3606250000000         6.077220502281463E-007
   41.5743750000000         6.926964121966869E-007
   41.7881250000000         7.592096258701483E-007
   42.0018750000000         8.047698390688405E-007
   42.2156250000000         8.284824876271491E-007
   42.4293750000000         8.306994777752338E-007
   42.6431250000000         8.122771841687750E-007
   42.8568750000000         7.728126690874466E-007
   43.0706250000000         7.256452412384012E-007
   43.2843750000000         6.611554392394502E-007
   43.4981250000000         5.901902763404069E-007
   43.7118750000000         5.081031613442994E-007
   43.9256250000000         4.157130369130860E-007
   44.1393750000000         3.132965706938145E-007
   44.3531250000000         2.010001678058383E-007
   44.5668750000000         7.914360801641729E-008
   44.7806250000000        -5.143317988132209E-008
   44.9943750000000        -1.891424351182420E-007
   45.2081250000000        -3.316580527254239E-007
   45.4218750000000        -4.757981732998104E-007
   45.6356250000000        -6.178248902157560E-007
   45.8493750000000        -7.537115052999541E-007
   46.0631250000000        -8.794034316203157E-007
   46.2768750000000        -9.912710490593766E-007
   46.4906250000000        -1.086434539157504E-006
   46.7043750000000        -1.162803059629491E-006
   46.9181250000000        -1.219561387573321E-006
   47.1318750000000        -1.256682173251223E-006
   47.3456250000000        -1.276485011013354E-006
   47.5593750000000        -1.281588719348945E-006
   47.7731250000000        -1.271250705561993E-006
   47.9868750000000        -1.251604210323964E-006
   48.2006250000000        -1.217504469495779E-006
   48.4143750000000        -1.180086341399178E-006
   48.6281250000000        -1.132709517447337E-006
   48.8418750000000        -1.080020078971259E-006
   49.0556250000000        -1.020317832052622E-006
   49.2693750000000        -9.583664862543595E-007
   49.4831250000000        -8.940819632576481E-007
   49.6968750000000        -8.283259474101335E-007
   49.9106250000000        -7.624718202655540E-007
   50.1243750000000        -6.980256726915796E-007
   50.3381250000000        -6.366556591294153E-007
   50.5518750000000        -5.797582549563854E-007
   50.7656250000000        -5.250419421444324E-007
   50.9793750000000        -4.838158182316219E-007
   51.1931250000000        -4.460175553429283E-007
   51.4068750000000        -4.240646386961723E-007
   51.6206250000000        -4.043104719140934E-007
   51.8343750000000        -4.007935118050602E-007
   52.0481250000000        -3.964019350723950E-007
   52.2618750000000        -4.052540500459842E-007
   52.4756250000000        -4.128320103472284E-007
   52.6893750000000        -4.229880432502717E-007
   52.9031250000000        -4.349191990000764E-007
   53.1168750000000        -4.434249929967408E-007
   53.3306250000000        -4.494925123956465E-007
   53.5443750000000        -4.528422250491641E-007
   53.7581250000000        -4.538201356830367E-007
   53.9718750000000        -4.525318429098550E-007
   54.1856250000000        -4.495250135197361E-007
   54.3993750000000        -4.452718012412657E-007
   54.6131250000000        -4.401572594365084E-007
   54.8268750000000        -4.343884341281722E-007
   55.0406250000000        -4.280399474835539E-007
   55.2543750000000        -4.210730481094654E-007
   55.4681250000000        -4.134787027464664E-007
   55.6818750000000        -4.053662972620733E-007
   55.8956250000000        -3.972076068472738E-007
   56.1093750000000        -3.897213292235308E-007
   56.3231250000000        -3.839495331729839E-007
   56.5368750000000        -3.820537300493874E-007
   56.7506250000000        -3.861035554465022E-007
   56.9643750000000        -3.966902233731373E-007
   57.1781250000000        -4.162695138790208E-007
   57.3918750000000        -4.471281764658453E-007
   57.6056250000000        -4.910785601359851E-007
   57.8193750000000        -5.493346174104322E-007
   58.0331250000000        -6.225226756521488E-007
   58.2468750000000        -7.105714380841421E-007
   58.4606250000000        -8.125874502250621E-007
   58.6743750000000        -9.268834809054572E-007
   58.8881250000000        -1.054254931242320E-006
   59.1018750000000        -1.185198047922828E-006
   59.3156250000000        -1.325133050437752E-006
   59.5293750000000        -1.461728483422097E-006
   59.7431250000000        -1.595512281426172E-006
   59.9568750000000        -1.722200395763643E-006
   60.1706250000000        -1.838188942303096E-006
   60.3843750000000        -1.941458173928137E-006
   60.5981250000000        -2.029721883353827E-006
   60.8118750000000        -2.101470834316658E-006
   61.0256250000000        -2.152989595381658E-006
   61.2393750000000        -2.193914977914344E-006
   61.4531250000000        -2.210928154077541E-006
   61.6668750000000        -2.214097008507192E-006
   61.8806250000000        -2.203825473005098E-006
   62.0943750000000        -2.178910161434780E-006
   62.3081250000000        -2.139783495374397E-006
   62.5218750000000        -2.086502299772481E-006
   62.7356250000000        -2.020449811093533E-006
   62.9493750000000        -1.939217403780298E-006
   63.1631250000000        -1.853075581630993E-006
   63.3768750000000        -1.755547851591949E-006
   63.5906250000000        -1.655755245852930E-006
   63.8043750000000        -1.553119556313857E-006
   64.0181250000000        -1.446757904545522E-006
   64.2318750000000        -1.348860291723920E-006
   64.4456250000000        -1.259599792079244E-006
   64.6593750000000        -1.181508345827596E-006
   64.8731250000000        -1.118372056858429E-006
   65.0868750000000        -1.073082390896536E-006
   65.3006250000000        -1.047451486892587E-006
   65.5143750000000        -1.042322914109529E-006
   65.7281250000000        -1.055727049382701E-006
   65.9418750000000        -1.088775533899103E-006
   66.1556250000000        -1.135487152415933E-006
   66.3693750000000        -1.193990538331062E-006
   66.5831250000000        -1.259779119824541E-006
   66.7968750000000        -1.328508236274866E-006
   67.0106250000000        -1.395870884023191E-006
   67.2243750000000        -1.458072042042924E-006
   67.4381250000000        -1.511897136504686E-006
   67.6518750000000        -1.550228963996687E-006
   67.8656250000000        -1.584795629755412E-006
   68.0793750000000        -1.598270560014404E-006
   68.2931250000000        -1.607805218785530E-006
   68.5068750000000        -1.601759892756687E-006
   68.7206250000000        -1.589896438939250E-006
   68.9343750000000        -1.567285233222102E-006
   69.1481250000000        -1.537418569999406E-006
   69.3618750000000        -1.502129652463891E-006
   69.5756250000000        -1.463438481969967E-006
   69.7893750000000        -1.423534054825079E-006
   70.0031250000000        -1.384717840992138E-006
   70.2168750000000        -1.349632612217657E-006
   70.4306250000000        -1.321071310606166E-006
   70.6443750000000        -1.301362929276934E-006
   70.8581250000000        -1.294633527616201E-006
   71.0718750000000        -1.304384230788076E-006
   71.2856250000000        -1.335136741890240E-006
   71.4993750000000        -1.388910891903277E-006
   71.7131250000000        -1.459033970997020E-006
   71.9268750000000        -1.556922753055633E-006
   72.1406250000000        -1.672282746910980E-006
   72.3543750000000        -1.812678364984609E-006
   72.5681250000000        -1.965872241278874E-006
   72.7818750000000        -2.131992558021512E-006
   72.9956250000000        -2.308323085189054E-006
   73.2093750000000        -2.486046518229110E-006
   73.4231250000000        -2.658459649655580E-006
   73.6368750000000        -2.821821347368294E-006
   73.8506250000000        -2.970919253882414E-006
   74.0643750000000        -3.101513338572314E-006
   74.2781250000000        -3.210493532900990E-006
   74.4918750000000        -3.295954006473521E-006
   74.7056250000000        -3.357310233413859E-006
   74.9193750000000        -3.394943442313034E-006
   75.1331250000000        -3.410588888207737E-006
   75.3468750000000        -3.412750934702122E-006
   75.5606250000000        -3.389270160826565E-006
   75.7743750000000        -3.356931857533401E-006
   75.9881250000000        -3.306610041433599E-006
   76.2018750000000        -3.244196725776565E-006
   76.4156250000000        -3.169216986117721E-006
   76.6293750000000        -3.086006220205926E-006
   76.8431250000000        -2.994351398193419E-006
   77.0568750000000        -2.894860992320989E-006
   77.2706250000000        -2.788376495265361E-006
   77.4843750000000        -2.676082488548550E-006
   77.6981250000000        -2.555116272910644E-006
   77.9118750000000        -2.439179328631046E-006
   78.1256250000000        -2.319922876914900E-006
   78.3393750000000        -2.215015730587900E-006
   78.5531250000000        -2.114442084553418E-006
   78.7668750000000        -2.037065148699964E-006
   78.9806250000000        -1.972753025037206E-006
   79.1943750000000        -1.937508365802239E-006
   79.4081250000000        -1.925118584087086E-006
   79.6218750000000        -1.938884227157428E-006
   79.8356250000000        -1.974924690749147E-006
   80.0493750000000        -2.032973920206228E-006
   80.2631250000000        -2.110801698010935E-006
   80.4768750000000        -2.203986355061740E-006
   80.6906250000000        -2.308093413318376E-006
   80.9043750000000        -2.418384844331516E-006
   81.1181250000000        -2.534460642230681E-006
   81.3318750000000        -2.642424575180916E-006
   81.5456250000000        -2.747864755031727E-006
   81.7593750000000        -2.840589850537444E-006
   81.9731250000000        -2.923547464915935E-006
   82.1868750000000        -2.998456508587603E-006
   82.4006250000000        -3.054576359170105E-006
   82.6143750000000        -3.100301150926750E-006
   82.8281250000000        -3.130664484684871E-006
   83.0418750000000        -3.145821160278706E-006
   83.2556250000000        -3.146842737550112E-006
   83.4693750000000        -3.133086578084545E-006
   83.6831250000000        -3.103891594464392E-006
   83.8968750000000        -3.058741447111814E-006
   84.1106250000000        -2.995873930420504E-006
   84.3243750000000        -2.926130971737617E-006
   84.5381250000000        -2.842826115974515E-006
   84.7518750000000        -2.760950942546092E-006
   84.9656250000000        -2.681898861982023E-006
   85.1793750000000        -2.613605661458324E-006
   85.3931250000000        -2.562739295927224E-006
   85.6068750000000        -2.538908449633920E-006
   85.8206250000000        -2.540523689869942E-006
   86.0343750000000        -2.579326810340847E-006
   86.2481250000000        -2.648921095600335E-006
   86.4618750000000        -2.751412096789288E-006
   86.6756250000000        -2.883655675288485E-006
   86.8893750000000        -3.040308431407255E-006
   87.1031250000000        -3.220078575696238E-006
   87.3168750000000        -3.400971024376167E-006
   87.5306250000000        -3.588232757861756E-006
   87.7443750000000        -3.759900235356605E-006
   87.9581250000000        -3.922515062034306E-006
   88.1718750000000        -4.060967877150285E-006
   88.3856250000000        -4.178081725588765E-006
   88.5993750000000        -4.274489969712263E-006
   88.8131250000000        -4.351863878546778E-006
   89.0268750000000        -4.413339860867301E-006
   89.2406250000000        -4.463208137121643E-006
   89.4543750000000        -4.504912955792469E-006
   89.6681250000000        -4.541221591870777E-006
   89.8818750000000        -4.573484395111007E-006
   90.0956250000000        -4.601784743861306E-006
   90.3093750000000        -4.625096956528430E-006
   90.5231250000000        -4.640043656621568E-006
   90.7368750000000        -4.642706894392356E-006
   90.9506250000000        -4.628987121663120E-006
   91.1643750000000        -4.595339805903907E-006
   91.3781250000000        -4.539744474963009E-006
   91.5918750000000        -4.462131611311098E-006
   91.8056250000000        -4.364862661035326E-006
   92.0193750000000        -4.252644621012973E-006
   92.2331250000000        -4.132037299601752E-006
   92.4468750000000        -4.011017394664421E-006
   92.6606250000000        -3.898036211956189E-006
   92.8743750000000        -3.800952393143803E-006
   93.0881250000000        -3.726035651463517E-006
   93.3018750000000        -3.677428303670724E-006
   93.5156250000000        -3.655801196083198E-006
   93.7293750000000        -3.660954486415718E-006
   93.9431250000000        -3.687554746463319E-006
   94.1568750000000        -3.730576987068212E-006
   94.3706250000000        -3.781976235104807E-006
   94.5843750000000        -3.834367178203640E-006
   94.7981250000000        -3.880990811765065E-006
   95.0118750000000        -3.916162061058911E-006
   95.2256250000000        -3.937452258102240E-006
   95.4393750000000        -3.944503467660063E-006
   95.6531250000000        -3.939390500765899E-006
   95.8668750000000        -3.923731436195218E-006
   96.0806250000000        -3.913946592369503E-006
   96.2943750000000        -3.906769757516051E-006
   96.5081250000000        -3.909247471369666E-006
   96.7218750000000        -3.925420295847964E-006
   96.9356250000000        -3.957194449272172E-006
   97.1493750000000        -4.004690605219828E-006
   97.3631250000000        -4.065076500488935E-006
   97.5768750000000        -4.134800861003558E-006
   97.7906250000000        -4.206375071002435E-006
   98.0043750000000        -4.272859763169967E-006
   98.2181250000000        -4.327766496077409E-006
   98.4318750000000        -4.366663382964610E-006
   98.6456250000000        -4.387294403550205E-006
   98.8593750000000        -4.389090672230504E-006
   99.0731250000000        -4.374636719774878E-006
   99.2868750000000        -4.348196917159450E-006
   99.5006250000000        -4.311540162447148E-006
   99.7143750000000        -4.285432600045179E-006
   99.9281250000000        -4.262184164054145E-006
   100.141875000000        -4.264874313480620E-006
   100.355625000000        -4.287261797712565E-006
   100.569375000000        -4.336362064885549E-006
   100.783125000000        -4.411372502993665E-006
   100.996875000000        -4.508341976008414E-006
   101.210625000000        -4.622692263248811E-006
   101.424375000000        -4.748001910626537E-006
   101.638125000000        -4.877182986991054E-006
   101.851875000000        -5.003373454728934E-006
   102.065625000000        -5.123885948746652E-006
   102.279375000000        -5.226508654045509E-006
   102.493125000000        -5.317343640554972E-006
   102.706875000000        -5.386459664678614E-006
   102.920625000000        -5.442582054899129E-006
   103.134375000000        -5.488566003518662E-006
   103.348125000000        -5.528048434351471E-006
   103.561875000000        -5.563442351072055E-006
   103.775625000000        -5.600074297945342E-006
   103.989375000000        -5.639851819648052E-006
   104.203125000000        -5.683083886143721E-006
   104.416875000000        -5.728306287802835E-006
   104.630625000000        -5.772958975905445E-006
   104.844375000000        -5.813424601664378E-006
   105.058125000000        -5.845585743962016E-006
   105.271875000000        -5.865584447983051E-006
   105.485625000000        -5.872694163226429E-006
   105.699375000000        -5.865957804247282E-006
   105.913125000000        -5.846505544532993E-006
   106.126875000000        -5.817958075013129E-006
   106.340625000000        -5.785020055884887E-006
   106.554375000000        -5.753111033766614E-006
   106.768125000000        -5.727985900961262E-006
   106.981875000000        -5.713946814699598E-006
   107.195625000000        -5.714325485478688E-006
   107.409375000000        -5.730471074887876E-006
   107.623125000000        -5.761419527204911E-006
   107.836875000000        -5.804294963428402E-006
   108.050625000000        -5.854559655591645E-006
   108.264375000000        -5.906862018670556E-006
   108.478125000000        -5.954561045290920E-006
   108.691875000000        -5.990860513854604E-006
   108.905625000000        -6.015753519955881E-006
   109.119375000000        -6.025127439056991E-006
   109.333125000000        -6.019457901501107E-006
   109.546875000000        -6.000464504364853E-006
   109.760625000000        -5.971014096630961E-006
   109.974375000000        -5.935523373133666E-006
   110.188125000000        -5.898252419431484E-006
   110.401875000000        -5.862162221960441E-006
   110.615625000000        -5.829576395279827E-006
   110.829375000000        -5.801693350791048E-006
   111.043125000000        -5.778174153210692E-006
   111.256875000000        -5.752920554145696E-006
   111.470625000000        -5.736416830708224E-006
   111.684375000000        -5.717044178163436E-006
   111.898125000000        -5.689699344736867E-006
   112.111875000000        -5.667137809952053E-006
   112.325625000000        -5.640598058005795E-006
   112.539375000000        -5.614095125237304E-006
   112.753125000000        -5.593299774092750E-006
   112.966875000000        -5.580985096539573E-006
   113.180625000000        -5.582561876283589E-006
   113.394375000000        -5.602380030193155E-006
   113.608125000000        -5.643449595234336E-006
   113.821875000000        -5.707383907452991E-006
   114.035625000000        -5.793540883689476E-006
   114.249375000000        -5.898751542037041E-006
   114.463125000000        -6.017946050044309E-006
   114.676875000000        -6.144896296062896E-006
   114.890625000000        -6.272824841966856E-006
   115.104375000000        -6.395306602672286E-006
   115.318125000000        -6.507078898411011E-006
   115.531875000000        -6.604552781120075E-006
   115.745625000000        -6.686274231999952E-006
   115.959375000000        -6.752857349873927E-006
   116.173125000000        -6.806732871163099E-006
   116.386875000000        -6.851633641076654E-006
   116.600625000000        -6.891837743644840E-006
   116.814375000000        -6.931426738690164E-006
   117.028125000000        -6.973445505332111E-006
   117.241875000000        -7.018625132778088E-006
   117.455625000000        -7.067872741680985E-006
   117.669375000000        -7.119615005601392E-006
   117.883125000000        -7.170461849409368E-006
   118.096875000000        -7.215491093679598E-006
   118.310625000000        -7.250908866693151E-006
   118.524375000000        -7.273010556021667E-006
   118.738125000000        -7.279682405386465E-006
   118.951875000000        -7.270682267203322E-006
   119.165625000000        -7.248299660327868E-006
   119.379375000000        -7.213936886725890E-006
   119.593125000000        -7.173503813588438E-006
   119.806875000000        -7.132734322691899E-006
   120.020625000000        -7.098104930083601E-006
   120.234375000000        -7.075159237278120E-006
   120.448125000000        -7.067660259391125E-006
   120.661875000000        -7.077406994276720E-006
   120.875625000000        -7.103639253430070E-006
   121.089375000000        -7.145079181859544E-006
   121.303125000000        -7.200169097119037E-006
   121.516875000000        -7.264712341178359E-006
   121.730625000000        -7.333366214243190E-006
   121.944375000000        -7.399020563219184E-006
   122.158125000000        -7.458485003602865E-006
   122.371875000000        -7.508453219670256E-006
   122.585625000000        -7.547699422834838E-006
   122.799375000000        -7.576741635799474E-006
   123.013125000000        -7.597530513108360E-006
   123.226875000000        -7.612948537262169E-006
   123.440625000000        -7.626939667308152E-006
   123.654375000000        -7.644014140182555E-006
   123.868125000000        -7.668367968095317E-006