  -1.60312500000000         0.000000000000000E+000
  -1.38937500000000         0.000000000000000E+000
  -1.17562500000000         0.000000000000000E+000
 -0.961875000000000         0.000000000000000E+000
 -0.748125000000000         0.000000000000000E+000
 -0.534375000000000         0.000000000000000E+000
 -0.320625000000000         0.000000000000000E+000
 -0.106875000000000         0.000000000000000E+000
  0.106875000000000         0.000000000000000E+000
  0.320625000000000         0.000000000000000E+000
  0.534375000000000         0.000000000000000E+000
  0.748125000000000         0.000000000000000E+000
  0.961875000000000         0.000000000000000E+000
   1.17562500000000         0.000000000000000E+000
   1.38937500000000         0.000000000000000E+000
   1.60312500000000         0.000000000000000E+000
   1.81687500000000         0.000000000000000E+000
   2.03062500000000         0.000000000000000E+000
   2.24437500000000         0.000000000000000E+000
   2.45812500000000         0.000000000000000E+000
   2.67187500000000         0.000000000000000E+000
   2.88562500000000         0.000000000000000E+000
   3.09937500000000         0.000000000000000E+000
   3.31312500000000         0.000000000000000E+000
   3.52687500000000         0.000000000000000E+000
   3.74062500000000         0.000000000000000E+000
   3.95437500000000         0.000000000000000E+000
   4.16812500000000         0.000000000000000E+000
   4.38187500000000         0.000000000000000E+000
   4.59562500000000         0.000000000000000E+000
   4.80937500000000         0.000000000000000E+000
   5.02312500000000         0.000000000000000E+000
   5.23687500000000         0.000000000000000E+000
   5.45062500000000         0.000000000000000E+000
   5.66437500000000         0.000000000000000E+000
   5.87812500000000         0.000000000000000E+000
   6.09187500000000         0.000000000000000E+000
   6.30562500000000         0.000000000000000E+000
   6.51937500000000         0.000000000000000E+000
   6.73312500000000         0.000000000000000E+000
   6.94687500000000         0.000000000000000E+000
   7.16062500000000         0.000000000000000E+000
   7.37437500000000         0.000000000000000E+000
   7.58812500000000         0.000000000000000E+000
   7.80187500000000         0.000000000000000E+000
   8.01562500000000         0.000000000000000E+000
   8.22937500000000         0.000000000000000E+000
   8.44312500000000         0.000000000000000E+000
   8.65687500000000         0.000000000000000E+000
   8.87062500000000         0.000000000000000E+000
   9.08437500000000         0.000000000000000E+000
   9.29812500000000         0.000000000000000E+000
   9.51187500000000        -4.921397278676843E-216
   9.72562500000000         3.477421135177761E-209
   9.93937500000000         1.949634588060031E-204
   10.1531250000000         2.903057944698233E-202
   10.3668750000000        -6.019209145803373E-200
   10.5806250000000        -1.325077116626128E-197
   10.7943750000000        -5.571859686989849E-196
   11.0081250000000        -9.250437800608249E-195
   11.2218750000000        -7.047313346155114E-194
   11.4356250000000        -3.075927753550922E-192
   11.6493750000000        -1.960897103859211E-190
   11.8631250000000        -6.699792503487661E-189
   12.0768750000000        -1.528420121905334E-187
   12.2906250000000        -2.617092197786702E-186
   12.5043750000000        -3.567608692179258E-185
   12.7181250000000        -3.986707422635286E-184
   12.9318750000000        -3.674715905529338E-183
   13.1456250000000        -2.714828232963561E-182
   13.3593750000000        -1.397502785645924E-181
   13.5731250000000        -6.458277617484292E-182
   13.7868750000000         1.020474408927740E-179
   14.0006250000000         1.726067879168174E-178
   14.2143750000000         2.040863609164934E-177
   14.4281250000000         2.032530815351864E-176
   14.6418750000000         1.804570442690706E-175
   14.8556250000000         1.463185053842037E-174
   15.0693750000000         1.096307108826478E-173
   15.2831250000000         7.636867425646094E-173
   15.4968750000000         4.960921503098739E-172
   15.7106250000000         3.008328692896044E-171
   15.9243750000000         1.701816798632166E-170
   16.1381250000000         8.956896187201663E-170
   16.3518750000000         4.360870592822048E-169
   16.5656250000000         1.942258307009477E-168
   16.7793750000000         7.735527965578377E-168
   16.9931250000000         2.611863189120257E-167
   17.2068750000000         6.273053351064439E-167
   17.4206250000000        -7.581987673238425E-168
   17.6343750000000        -1.370788140304497E-165
   17.8481250000000        -1.156237840780984E-164
   18.0618750000000        -7.056622318828770E-164
   18.2756250000000        -3.665802699387302E-163
   18.4893750000000        -1.703625395865009E-162
   18.7031250000000        -7.223303786022767E-162
   18.9168750000000        -2.812288731060061E-161
   19.1306250000000        -1.002651787440562E-160
   19.3443750000000        -3.228090701140620E-160
   19.5581250000000        -9.049815300312395E-160
   19.7718750000000        -1.984673944168449E-159
   19.9856250000000        -1.807192697159637E-159
   20.1993750000000         1.322298499510907E-158
   20.4131250000000         1.124238819836681E-157
   20.6268750000000         5.911054486708799E-157
   20.8406250000000         2.570185187648853E-156
   21.0543750000000         9.936651586554085E-156
   21.2681250000000         3.512915237897904E-155
   21.4818750000000         1.149379110102446E-154
   21.6956250000000         3.493245150687489E-154
   21.9093750000000         9.834827241396314E-154
   22.1231250000000         2.537763895862788E-153
   22.3368750000000         5.852585979196489E-153
   22.5506250000000         1.132034924116078E-152
   22.7643750000000         1.454276039853616E-152
   22.9781250000000        -1.034900022030859E-152
   23.1918750000000        -1.641540795077224E-151
   23.4056250000000        -7.734584160286687E-151
   23.6193750000000        -2.770718721196512E-150
   23.8331250000000        -8.541608394827166E-150
   24.0468750000000        -2.352821218510371E-149
   24.2606250000000        -5.845388994676011E-149
   24.4743750000000        -1.297744796681578E-148
   24.6881250000000        -2.481376854214119E-148
   24.9018750000000        -3.624201264963891E-148
   25.1156250000000        -1.721157399842658E-148
   25.3293750000000         1.397834811004608E-147
   25.5431250000000         7.486652530283374E-147
   25.7568750000000         2.610397582868245E-146
   25.9706250000000         7.545311375479937E-146
   26.1843750000000         1.921924343565565E-145
   26.3981250000000         4.394912984453571E-145
   26.6118750000000         9.000961278833322E-145
   26.8256250000000         1.609766212123745E-144
   27.0393750000000         2.321875737741678E-144
   27.2531250000000         1.876345715247694E-144
   27.4668750000000        -3.221791701247241E-144
   27.6806250000000        -2.153435140884056E-143
   27.8943750000000        -7.099268811341189E-143
   28.1081250000000        -1.834799905866844E-142
   28.3218750000000        -4.035956705563977E-142
   28.5356250000000        -7.638798004614423E-142
   28.7493750000000        -1.195189849092229E-141
   28.9631250000000        -1.290894583329397E-141
   29.1768750000000         2.087031625961485E-142
   29.3906250000000         6.376758189490812E-141
   29.6043750000000         2.357814198755872E-140
   29.8181250000000         6.308272568574758E-140
   30.0318750000000         1.411458846696881E-139
   30.2456250000000         2.730333001403826E-139
   30.4593750000000         4.511643852333319E-139
   30.6731250000000         5.894508345004538E-139
   30.8868750000000         4.069823957873444E-139
   31.1006250000000        -7.775199752352456E-139
   31.3143750000000        -4.343113307178395E-138
   31.5281250000000        -1.266320902597909E-137
   31.7418750000000        -2.907372377453133E-137
   31.9556250000000        -5.671733347365222E-137
   32.1693750000000        -9.469322042652488E-137
   32.3831250000000        -1.289271085866032E-136
   32.5968750000000        -1.143985269734495E-136
   32.8106250000000         5.382192042505356E-137
   33.0243750000000         5.779472949925013E-136
   33.2381250000000         1.785499858648996E-135
   33.4518750000000         4.098224783281873E-135
   33.6656250000000         7.835858130355103E-135
   33.8793750000000         1.266867413153563E-134
   34.0931250000000         1.645486197301489E-134
   34.3068750000000         1.320773281281623E-134
   34.5206250000000        -9.771619763550547E-135
   34.7343750000000        -7.462418276065183E-134
   34.9481250000000        -2.124161860847717E-133
   35.1618750000000        -4.523146639478360E-133
   35.3756250000000        -7.874813112299120E-133
   35.5893750000000        -1.098477428046839E-132
   35.8031250000000        -1.014497662554564E-132
   36.0168750000000         2.871152076021161E-133
   36.2306250000000         4.272875266111668E-132
   36.4443750000000         1.300107198429581E-131
   36.6581250000000         2.827511394994230E-131
   36.8718750000000         4.896768440855721E-131
   37.0856250000000         6.495097479722714E-131
   37.2993750000000         4.597948980255932E-131
   37.5131250000000        -7.456123113086949E-131
   37.7268750000000        -4.155160043167195E-130
   37.9406250000000        -1.144455523451005E-129
   38.1543750000000        -2.410089507496697E-129
   38.3681250000000        -4.126097214479698E-129
   38.5818750000000        -5.477478911182421E-129
   38.7956250000000        -4.008871854497073E-129
   39.0093750000000         5.732918327412535E-129
   39.2231250000000         3.361574650152886E-128
   39.4368750000000         9.402172394590479E-128
   39.6506250000000         2.013753461388427E-127
   39.8643750000000         3.549714567502453E-127
   40.0781250000000         5.037704869610468E-127
   40.2918750000000         4.808175272365433E-127
   40.5056250000000        -9.588440046047151E-128
   40.7193750000000        -1.932676241967207E-126
   40.9331250000000        -6.093709152023594E-126
   41.1468750000000        -1.375582065320619E-125
   41.3606250000000        -2.530665406551717E-125
   41.5743750000000        -3.821577628445554E-125
   41.7881250000000        -4.304716785160408E-125
   42.0018750000000        -1.738611670048071E-125
   42.2156250000000         8.107371528557969E-125
   42.4293750000000         3.176333300121446E-124
   42.6431250000000         7.690278866296397E-124
   42.8568750000000         1.477246494674885E-123
   43.0706250000000         2.339082981387315E-123
   43.2843750000000         2.898941548750736E-123
   43.4981250000000         2.032668471808086E-123
   43.7118750000000        -2.418551190224888E-123
   43.9256250000000        -1.384460103557867E-122
   44.1393750000000        -3.638784233316712E-122
   44.3531250000000        -7.287553904602391E-122
   44.5668750000000        -1.198274811534447E-121
   44.7806250000000        -1.580965841607125E-121
   44.9943750000000        -1.385924112332238E-121
   45.2081250000000         3.443878410899913E-122
   45.4218750000000         5.134627046777607E-121
   45.6356250000000         1.490378036373087E-120
   45.8493750000000         3.115126641412177E-120
   46.0631250000000         5.297226085220662E-120
   46.2768750000000         7.333695025101453E-120
   46.4906250000000         7.341223779190812E-120
   46.7043750000000         1.583298151501871E-120
   46.9181250000000        -1.597461869859338E-119
   47.1318750000000        -5.313589745303062E-119
   47.3456250000000        -1.166578661999663E-118
   47.5593750000000        -2.052832347240745E-118
   47.7731250000000        -2.966335555392740E-118
   47.9868750000000        -3.271354660331807E-118
   48.2006250000000        -1.678665337934608E-118
   48.4143750000000         3.929456063963040E-118
   48.6281250000000         1.636880888598254E-117
   48.8418750000000         3.830075523744170E-117
   49.0556250000000         7.006786130383114E-117
   49.2693750000000         1.055889893284989E-116
   49.4831250000000         1.260232622865850E-116
   49.6968750000000         9.199489327814957E-117
   49.9106250000000        -6.256741356114126E-117
   50.1243750000000        -4.281712241403393E-116
   50.3381250000000        -1.097249444573255E-115
   50.5518750000000        -2.104666285847798E-115
   50.7656250000000        -3.313199503203282E-115
   50.9793750000000        -4.234591430006751E-115
   51.1931250000000        -3.804747252239742E-115
   51.4068750000000        -1.898993179966487E-116
   51.6206250000000         9.203391358488505E-115
   51.8343750000000         2.721320252387345E-114
   52.0481250000000         5.547461297488279E-114
   52.2618750000000         9.157022610081652E-114
   52.4756250000000         1.245019258707117E-113
   52.6893750000000         1.288508723960690E-113
   52.9031250000000         5.933685151959370E-114
   53.1168750000000        -1.502972584980193E-113
   53.3306250000000        -5.771857529958503E-113
   53.5443750000000        -1.278163727256502E-112
   53.7581250000000        -2.226450611488876E-112
   53.9718750000000        -3.208860669139962E-112
   54.1856250000000        -3.689433408531981E-112
   54.3993750000000        -2.673265337041512E-112
   54.6131250000000         1.349560530678582E-112
   54.8268750000000         1.023794943747157E-111
   55.0406250000000         2.560601197200392E-111
   55.2543750000000         4.756498454452348E-111
   55.4681250000000         7.262695573889331E-111
   55.6818750000000         9.083965438911577E-111
   55.8956250000000         8.274347348918143E-111
   56.1093750000000         1.761175450536841E-111
   56.3231250000000        -1.443819616930789E-110
   56.5368750000000        -4.421819976362300E-110
   56.7506250000000        -8.914623318933325E-110
   56.9643750000000        -1.446137181434985E-109
   57.1781250000000        -1.944087050465897E-109
   57.3918750000000        -2.046258035463282E-109
   57.6056250000000        -1.193208405244872E-109
   57.8193750000000         1.376282846192830E-109
   58.0331250000000         6.477718038944672E-109
   58.2468750000000         1.462335898534099E-108
   58.4606250000000         2.538406081291096E-108
   58.6743750000000         3.645936263334478E-108
   58.8881250000000         4.258084650770832E-108
   59.1018750000000         3.460733717780101E-108
   59.3156250000000        -5.027038668939402E-110
   59.5293750000000        -7.779235140269012E-108
   59.7431250000000        -2.091700494916847E-107
   59.9568750000000        -3.938135967362032E-107
   60.1706250000000        -6.036866786366629E-107
   60.3843750000000        -7.656533463337191E-107
   60.5981250000000        -7.450337313658931E-107
   60.8118750000000        -3.402353421595220E-107
   61.0256250000000         6.964007688732647E-107
   61.2393750000000         2.592039951147945E-106
   61.4531250000000         5.421722218108602E-106
   61.6668750000000         8.901825473530366E-106
   61.8806250000000         1.212344509177569E-105
   62.0943750000000         1.328512870032053E-105
   62.3081250000000         9.549653491367892E-106
   62.5218750000000        -2.772840140676655E-106
   62.7356250000000        -2.744585877206256E-105
   62.9493750000000        -6.664770410279388E-105
   63.1631250000000        -1.182496088847498E-104
   63.3768750000000        -1.721397959733245E-104
   63.5906250000000        -2.062539902135612E-104
   63.8043750000000        -1.838058941681003E-104
   64.0181250000000        -5.424311072018625E-105
   64.2318750000000         2.385722289143198E-104
   64.4456250000000         7.370399459637774E-104
   64.6593750000000         1.436333611429893E-103
   64.8731250000000         2.236894615725340E-103
   65.0868750000000         2.889428765582040E-103
   65.3006250000000         2.948977497374395E-103
   65.5143750000000         1.767712833475030E-103
   65.7281250000000        -1.430424151004042E-103
   65.9418750000000        -7.341715553378219E-103
   66.1556250000000        -1.619518853369015E-102
   66.3693750000000        -2.717044390158656E-102
   66.5831250000000        -3.767426715122389E-102
   66.7968750000000        -4.264461786090775E-102
   67.0106250000000        -3.420959709720349E-102
   67.2243750000000        -2.208249697342684E-103
   67.4381250000000         6.377607118819965E-102
   67.6518750000000         1.702065190070625E-101
   67.8656250000000         3.127992800335993E-101
   68.0793750000000         4.674183619125429E-101
   68.2931250000000         5.801770319426157E-101
   68.5068750000000         5.601161251292818E-101
   68.7206250000000         2.801187030453350E-101
   68.9343750000000        -4.060671595042484E-101
   69.1481250000000        -1.621678200464300E-100
   69.3618750000000        -3.392077132833656E-100
   69.5756250000000        -5.535581801951593E-100
   69.7893750000000        -7.530914697917198E-100
   70.0031250000000        -8.392624408141719E-100
   70.2168750000000        -6.613558518747939E-100
   70.4306250000000        -2.644145228586358E-101
   70.6443750000000         1.263480713244441E-099
   70.8581250000000         3.335397626184002E-099
   71.0718750000000         6.122730108866966E-099
   71.2856250000000         9.200132121541334E-099
   71.4993750000000         1.160034901621865E-098
   71.7131250000000         1.166914151463194E-098
   71.9268750000000         7.053602120752878E-099
   72.1406250000000        -5.041353767228706E-099
   72.3543750000000        -2.716944760932944E-098
   72.5681250000000        -6.038910440687783E-098
   72.7818750000000        -1.023827337754016E-097
   72.9956250000000        -1.450851982810460E-097
   73.2093750000000        -1.722801593818359E-097
   73.4231250000000        -1.580736549965062E-097
   73.6368750000000        -6.767836646903136E-098
   73.8506250000000         1.375946198401112E-097
   74.0643750000000         4.890733615799785E-097
   74.2781250000000         9.916010050987472E-097
   74.4918750000000         1.596483407320765E-096
   74.7056250000000         2.169409927862011E-096
   74.9193750000000         2.460862752524431E-096
   75.1331250000000         2.092550198917829E-096
   75.3468750000000         5.798355245041899E-097
   75.5606250000000        -2.585060487172758E-096
   75.7743750000000        -7.764406566278627E-096
   75.9881250000000        -1.490557868435130E-095
   76.2018750000000        -2.317920813119000E-095
   76.4156250000000        -3.057470686238305E-095
   76.6293750000000        -3.356335480907974E-095
   76.8431250000000        -2.701265694870165E-095
   77.0568750000000        -4.607144174122453E-096
   77.2706250000000         3.992752721955908E-095
   77.4843750000000         1.105293177919015E-094
   77.6981250000000         2.053157487579294E-094
   77.9118750000000         3.121151306349004E-094
   78.1256250000000         4.037422571589107E-094
   78.3393750000000         4.344629827269886E-094
   78.5531250000000         3.399063268449622E-094
   78.7668750000000         4.339449087686479E-095
   78.9806250000000        -5.280616771725165E-094
   79.1943750000000        -1.415465921403134E-093
   79.4081250000000        -2.586622252844283E-093
   79.6218750000000        -3.885273036850929E-093
   79.8356250000000        -4.979807430113353E-093
   80.0493750000000        -5.328425144249848E-093
   80.2631250000000        -4.185839186674172E-093
   80.4768750000000        -6.830357579974172E-094
   80.6906250000000         5.987224326310288E-093
   80.9043750000000         1.625507442177906E-092
   81.1181250000000         2.972743144178251E-092
   81.3318750000000         4.465158492091602E-092
   81.5456250000000         5.738943412349943E-092
   81.7593750000000         6.207812948812294E-092
   81.9731250000000         5.072933378688088E-092
   82.1868750000000         1.407487222036254E-092
   82.4006250000000        -5.653144173463833E-092
   82.6143750000000        -1.659375481207902E-091
   82.8281250000000        -3.107498897068877E-091
   83.0418750000000        -4.740200757398654E-091
   83.2556250000000        -6.200138594992232E-091
   83.4693750000000        -6.906917418668179E-091
   83.6831250000000        -6.062181182985026E-091
   83.8968750000000        -2.723237682326015E-091
   84.1106250000000         4.025960275253093E-091
   84.3243750000000         1.478488575061362E-090
   84.5381250000000         2.942440570206171E-090
   84.7518750000000         4.658179008439472E-090
   84.9656250000000         6.313879841005346E-090
   85.1793750000000         7.381772955441418E-090
   85.3931250000000         7.109360090408619E-090
   85.6068750000000         4.567462258100154E-090
   85.8206250000000        -1.217269278613144E-090
   86.0343750000000        -1.102099342810562E-089
   86.2481250000000        -2.506008157032023E-089
   86.4618750000000        -4.251863310534557E-089
   86.6756250000000        -6.101508075058215E-089
   86.8893750000000        -7.610853311097840E-089
   87.1031250000000        -8.100795477753052E-089
   87.3168750000000        -6.671213663007758E-089
   87.5306250000000        -2.286044800850768E-089
   87.7443750000000         6.040976599283998E-089
   87.9581250000000         1.893552746621145E-088
   88.1718750000000         3.621826529775732E-088
   88.3856250000000         5.634847909090623E-088
   88.5993750000000         7.582534582821896E-088
   88.8131250000000         8.868199831075145E-088
   89.0268750000000         8.628665724753998E-088
   89.2406250000000         5.774527046818308E-088
   89.4543750000000        -8.741307120019981E-089
   89.6681250000000        -1.232107143278230E-087
   89.8818750000000        -2.897101301998622E-087
   90.0956250000000        -5.005118473938156E-087
   90.3093750000000        -7.292476980383053E-087
   90.5231250000000        -9.241374597796052E-087
   90.7368750000000        -1.003393719800284E-086
   90.9506250000000        -8.558850432800316E-087
   91.1643750000000        -3.509928558986545E-087
   91.3781250000000         6.380802000341770E-087
   91.5918750000000         2.194030006029082E-086
   91.8056250000000         4.297091448966245E-086
   92.0193750000000         6.752155515693325E-086
   92.2331250000000         9.112145594524035E-086
   92.4468750000000         1.061796938104442E-085
   92.6606250000000         1.018601100723927E-085
   92.8743750000000         6.483412860208324E-086
   93.0881250000000        -1.864647874428927E-086
   93.3018750000000        -1.589818864665030E-085
   93.5156250000000        -3.576206660784315E-085
   93.7293750000000        -5.999342912286852E-085
   93.9431250000000        -8.475839185802209E-085
   94.1568750000000        -1.032305937720685E-084
   94.3706250000000        -1.054042133738410E-084
   94.5843750000000        -7.871822510562682E-085
   94.7981250000000        -9.899586161214670E-086
   95.0118750000000         1.116378012296189E-084
   95.2256250000000         2.887263531524476E-084
   95.4393750000000         5.100196573391284E-084
   95.6531250000000         7.431488186663471E-084
   95.8668750000000         9.291975278059830E-084
   96.0806250000000         9.810738206002495E-084
   96.2943750000000         7.890170311255254E-084
   96.5081250000000         2.366330814045444E-084
   96.7218750000000        -7.698996710639420E-084
   96.9356250000000        -2.258871827586855E-083
   97.1493750000000        -4.139406510333295E-083
   97.3631250000000        -6.145480852801978E-083
   97.5768750000000        -7.792337504639492E-083
   97.7906250000000        -8.366426071077423E-083
   98.0043750000000        -6.974548488859494E-083
   98.2181250000000        -2.677947999672122E-083
   98.4318750000000         5.270327515293223E-083
   98.6456250000000         1.708414105162471E-082
   98.8593750000000         3.202800651259117E-082
   99.0731250000000         4.799552116343913E-082
   99.2868750000000         6.119947598244888E-082
   99.5006250000000         6.613514229258213E-082
   99.7143750000000         5.600527667312246E-082
   99.9281250000000         2.378591318675760E-082
   100.141875000000        -3.595468837531852E-082
   100.355625000000        -1.245129467275538E-081
   100.569375000000        -2.360348801144328E-081
   100.783125000000        -3.545743490456078E-081
   100.996875000000        -4.520939114345303E-081
   101.210625000000        -4.885600673371997E-081
   101.424375000000        -4.154201202419356E-081
   101.638125000000        -1.836070446365009E-081
   101.851875000000         2.433293148635592E-081
   102.065625000000         8.714183929659348E-081
   102.279375000000         1.655816498764118E-080
   102.493125000000         2.481697199616757E-080
   102.706875000000         3.152534390702363E-080
   102.920625000000         3.393463384926757E-080
   103.134375000000         2.877912916165478E-080
   103.348125000000         1.284268100255175E-080
   103.561875000000        -1.614807995820306E-080
   103.775625000000        -5.835063391965822E-080
   103.989375000000        -1.105035808119992E-079
   104.203125000000        -1.647671114360627E-079
   104.416875000000        -2.081018261387973E-079
   104.630625000000        -2.226666154171649E-079
   104.844375000000        -1.877226632065465E-079
   105.058125000000        -8.341013078357811E-080
   105.271875000000         1.035234612942352E-079
   105.485625000000         3.724368169536526E-079
   105.699375000000         7.009806076890351E-079
   105.913125000000         1.038508896542209E-078
   106.126875000000         1.303136605959425E-078
   106.340625000000         1.385265712829110E-078
   106.554375000000         1.160287484052877E-078
   106.768125000000         5.122791066896400E-079
   106.981875000000        -6.313418451002264E-079
   107.195625000000        -2.257105964374047E-078
   107.409375000000        -4.221300511495193E-078
   107.623125000000        -6.214845868286995E-078
   107.836875000000        -7.751182313720744E-078
   108.050625000000        -8.192738584097787E-078
   108.264375000000        -6.830053519110895E-078
   108.478125000000        -3.021714872353263E-078
   108.691875000000         3.607850104389912E-078
   108.905625000000         1.293194922801878E-077
   109.119375000000         2.408568930579889E-077
   109.333125000000         3.529005338934518E-077
   109.546875000000         4.381148374775350E-077
   109.760625000000         4.613767158273315E-077
   109.974375000000         3.843786743082508E-077
   110.188125000000         1.734018044993215E-077
   110.401875000000        -1.900388203977743E-077
   110.615625000000        -6.968371577078415E-077
   110.829375000000        -1.298398558929902E-076
   111.043125000000        -1.898351321263579E-076
   111.256875000000        -2.351706483840364E-076
   111.470625000000        -2.475390837523676E-076
   111.684375000000        -2.073243158526918E-076
   111.898125000000        -9.765634483880956E-077
   112.111875000000         9.019358285169338E-077
   112.325625000000         3.507215300125065E-076
   112.539375000000         6.585261673448041E-076
   112.753125000000         9.646310394357412E-076
   112.966875000000         1.196623295647223E-075
   113.180625000000         1.264395619376715E-075
   113.394375000000         1.072787512209093E-075
   113.608125000000         5.413932115518315E-076
   113.821875000000        -3.697661008643871E-076
   114.035625000000        -1.631992141016192E-075
   114.249375000000        -3.122483083899784E-075
   114.463125000000        -4.608937043211391E-075
   114.676875000000        -5.752319223736798E-075
   114.890625000000        -6.135367321198052E-075
   115.104375000000        -5.321836827385631E-075
   115.318125000000        -2.946618595146793E-075
   115.531875000000         1.170169926503484E-075
   115.745625000000         6.900511176491622E-075
   115.959375000000         1.370123703505070E-074
   116.173125000000         2.055300482032081E-074
   116.386875000000         2.597895638846101E-074
   116.600625000000         2.817268756231023E-074
   116.814375000000         2.525303801765849E-074
   117.028125000000         1.564217288808904E-074
   117.241875000000        -1.465376581035269E-075
   117.455625000000        -2.560822005780873E-074
   117.669375000000        -5.463548088141446E-074
   117.883125000000        -8.447613908922255E-074
   118.096875000000        -1.092256378306558E-073
   118.310625000000        -1.216547743352477E-073
   118.524375000000        -1.141950817109318E-073
   118.738125000000        -8.037344359217442E-074
   118.951875000000        -1.656328619009442E-074
   119.165625000000         7.619517117547220E-074
   119.379375000000         1.906557840284906E-073
   119.593125000000         3.125226475070000E-073
   119.806875000000         4.207142404687610E-073
   120.020625000000         4.890600010714105E-073
   120.234375000000         4.895698875442995E-073
   120.448125000000         3.971473005635113E-073
   120.661875000000         1.952906222150540E-073
   120.875625000000        -1.179986433528817E-073
   121.089375000000        -5.251441574845568E-073
   121.303125000000        -9.859247720294479E-073
   121.516875000000        -1.437494712268751E-072
   121.730625000000        -1.798275917061630E-072
   121.944375000000        -1.975984007901643E-072
   122.158125000000        -1.879384274341914E-072
   122.371875000000        -1.432684143910881E-072
   122.585625000000        -5.909042789308040E-073
   122.799375000000         6.457220654541552E-073
   123.013125000000         2.220196112478637E-072
   123.226875000000         4.011477858543988E-072
   123.440625000000         5.832235408093470E-072
   123.654375000000         7.431706053071003E-072
   123.868125000000         8.503467050557470E-072