  -1.60312500000000         0.000000000000000E+000
  -1.38937500000000         0.000000000000000E+000
  -1.17562500000000         0.000000000000000E+000
 -0.961875000000000         0.000000000000000E+000
 -0.748125000000000         0.000000000000000E+000
 -0.534375000000000         0.000000000000000E+000
 -0.320625000000000         0.000000000000000E+000
 -0.106875000000000         0.000000000000000E+000
  0.106875000000000         0.000000000000000E+000
  0.320625000000000         0.000000000000000E+000
  0.534375000000000         0.000000000000000E+000
  0.748125000000000         0.000000000000000E+000
  0.961875000000000         0.000000000000000E+000
   1.17562500000000         0.000000000000000E+000
   1.38937500000000         0.000000000000000E+000
   1.60312500000000         0.000000000000000E+000
   1.81687500000000         0.000000000000000E+000
   2.03062500000000         0.000000000000000E+000
   2.24437500000000         0.000000000000000E+000
   2.45812500000000         0.000000000000000E+000
   2.67187500000000         0.000000000000000E+000
   2.88562500000000         0.000000000000000E+000
   3.09937500000000         0.000000000000000E+000
   3.31312500000000         0.000000000000000E+000
   3.52687500000000         0.000000000000000E+000
   3.74062500000000         0.000000000000000E+000
   3.95437500000000         0.000000000000000E+000
   4.16812500000000         0.000000000000000E+000
   4.38187500000000         0.000000000000000E+000
   4.59562500000000         0.000000000000000E+000
   4.80937500000000         0.000000000000000E+000
   5.02312500000000         0.000000000000000E+000
   5.23687500000000         0.000000000000000E+000
   5.45062500000000         0.000000000000000E+000
   5.66437500000000         0.000000000000000E+000
   5.87812500000000         0.000000000000000E+000
   6.09187500000000         0.000000000000000E+000
   6.30562500000000         0.000000000000000E+000
   6.51937500000000         0.000000000000000E+000
   6.73312500000000         0.000000000000000E+000
   6.94687500000000         0.000000000000000E+000
   7.16062500000000         0.000000000000000E+000
   7.37437500000000         0.000000000000000E+000
   7.58812500000000         0.000000000000000E+000
   7.80187500000000         0.000000000000000E+000
   8.01562500000000         0.000000000000000E+000
   8.22937500000000         0.000000000000000E+000
   8.44312500000000         0.000000000000000E+000
   8.65687500000000         0.000000000000000E+000
   8.87062500000000         0.000000000000000E+000
   9.08437500000000         0.000000000000000E+000
   9.29812500000000         1.610523380054464E-216
   9.51187500000000        -5.828606514703206E-210
   9.72562500000000         2.340545861732769E-205
   9.93937500000000        -6.512269949145669E-204
   10.1531250000000         2.968675646669824E-200
   10.3668750000000         3.483575738210168E-198
   10.5806250000000         1.446641984946526E-196
   10.7943750000000         2.791695903260101E-195
   11.0081250000000         1.753102740519762E-194
   11.2218750000000        -2.354586361256503E-193
   11.4356250000000         7.093316896527421E-193
   11.6493750000000         3.431210269878336E-190
   11.8631250000000         1.193935838659368E-188
   12.0768750000000         2.495384340464386E-187
   12.2906250000000         3.809231148181414E-186
   12.5043750000000         4.515419275591388E-185
   12.7181250000000         4.173488537334478E-184
   12.9318750000000         2.779068940684562E-183
   13.1456250000000         7.452980196007196E-183
   13.3593750000000        -1.336433567184504E-181
   13.5731250000000        -2.969463059011716E-180
   13.7868750000000        -3.905936447795029E-179
   14.0006250000000        -4.149037011657634E-178
   14.2143750000000        -3.862209726169991E-177
   14.4281250000000        -3.262762695599177E-176
   14.6418750000000        -2.546635294784953E-175
   14.8556250000000        -1.853980602259633E-174
   15.0693750000000        -1.264710337001561E-173
   15.2831250000000        -8.094627549610437E-173
   15.4968750000000        -4.855091234870549E-172
   15.7106250000000        -2.718792063749536E-171
   15.9243750000000        -1.411356027073938E-170
   16.1381250000000        -6.703079314995647E-170
   16.3518750000000        -2.837277318158815E-169
   16.5656250000000        -1.005233828680717E-168
   16.7793750000000        -2.381126237882660E-168
   16.9931250000000         2.649377687103389E-168
   17.2068750000000         8.364303159268342E-167
   17.4206250000000         7.158933550833415E-166
   17.6343750000000         4.637625864164754E-165
   17.8481250000000         2.592762907449184E-164
   18.0618750000000         1.307010805880087E-163
   18.2756250000000         6.053496556436249E-163
   18.4893750000000         2.596910294494071E-162
   18.7031250000000         1.033611809618268E-161
   18.9168750000000         3.801427084229225E-161
   19.1306250000000         1.276631094971369E-160
   19.3443750000000         3.809622183321451E-160
   19.5581250000000         9.421622925918596E-160
   19.7718750000000         1.470963328308822E-159
   19.9856250000000        -2.189825924944434E-159
   20.1993750000000        -3.369231102899665E-158
   20.4131250000000        -1.992645310336665E-157
   20.6268750000000        -9.143071905355189E-157
   20.8406250000000        -3.640916362095965E-156
   21.0543750000000        -1.306315460398868E-155
   21.2681250000000        -4.281775312516600E-155
   21.4818750000000        -1.284260104864317E-154
   21.6956250000000        -3.491677136434143E-154
   21.9093750000000        -8.371203426308387E-154
   22.1231250000000        -1.639752357343118E-153
   22.3368750000000        -1.893698774980863E-153
   22.5506250000000         3.512704537722289E-153
   22.7643750000000         3.515748128810526E-152
   22.9781250000000         1.622878327002657E-151
   23.1918750000000         5.908845187607190E-151
   23.4056250000000         1.872582426859318E-150
   23.6193750000000         5.338186533639191E-150
   23.8331250000000         1.383318058949567E-149
   24.0468750000000         3.249680410794910E-149
   24.2606250000000         6.801056454757548E-149
   24.4743750000000         1.209666889811475E-148
   24.6881250000000         1.572926187484674E-148
   24.9018750000000         2.904386190078686E-149
   25.1156250000000        -7.011889954843168E-148
   25.3293750000000        -3.053209833184098E-147
   25.5431250000000        -8.847781861139705E-147
   25.7568750000000        -1.984517487232127E-146
   25.9706250000000        -3.239597139936501E-146
   26.1843750000000        -1.819135119472641E-146
   26.3981250000000         1.312865437972247E-145
   26.6118750000000         7.428696360379683E-145
   26.8256250000000         2.662728885864338E-144
   27.0393750000000         7.824103387429683E-144
   27.2531250000000         2.011810646358193E-143
   27.4668750000000         4.622720160066731E-143
   27.6806250000000         9.490635964987097E-143
   27.8943750000000         1.703114832944444E-142
   28.1081250000000         2.490209839385293E-142
   28.3218750000000         2.201479548224610E-142
   28.5356250000000        -2.454980162119980E-142
   28.7493750000000        -1.938740350507368E-141
   28.9631250000000        -6.482016561953979E-141
   29.1768750000000        -1.670929385159530E-140
   29.3906250000000        -3.657166484136654E-140
   29.6043750000000        -6.927063777007975E-140
   29.8181250000000        -1.108274952865328E-139
   30.0318750000000        -1.340899996810193E-139
   30.2456250000000        -5.600301959757070E-140
   30.4593750000000         3.184841002728493E-139
   30.6731250000000         1.372733213567100E-138
   30.8868750000000         3.740337317128587E-138
   31.1006250000000         8.245597938145864E-138
   31.3143750000000         1.548113268414493E-137
   31.5281250000000         2.458107843662391E-137
   31.7418750000000         3.054136638950227E-137
   31.9556250000000         1.943059281492749E-137
   32.1693750000000        -3.849720773633890E-137
   32.3831250000000        -1.955629868678026E-136
   32.5968750000000        -5.260560431061734E-136
   32.8106250000000        -1.101979768825871E-135
   33.0243750000000        -1.915927715399316E-135
   33.2381250000000        -2.709360232503768E-135
   33.4518750000000        -2.666016216732532E-135
   33.6656250000000         2.468391232149854E-137
   33.8793750000000         8.588164315058093E-135
   34.0931250000000         2.761095165643246E-134
   34.3068750000000         6.149619835048922E-134
   34.5206250000000         1.096015003368470E-133
   34.7343750000000         1.553914081704273E-133
   34.9481250000000         1.468208052836972E-133
   35.1618750000000        -3.243635656913124E-134
   35.3756250000000        -5.928631320328382E-133
   35.5893750000000        -1.841629872222713E-132
   35.8031250000000        -4.088751579191944E-132
   36.0168750000000        -7.319530840848477E-132
   36.2306250000000        -1.040305527638923E-131
   36.4443750000000        -9.528092554385865E-132
   36.6581250000000         4.379422756601792E-132
   36.8718750000000         4.899483749277051E-131
   37.0856250000000         1.528706497740127E-130
   37.2993750000000         3.512393645116246E-130
   37.5131250000000         6.630788544720677E-130
   37.7268750000000         1.026438630066677E-129
   37.9406250000000         1.156769084686085E-129
   38.1543750000000         2.896777437197637E-130
   38.3681250000000        -3.197432841701896E-129
   38.5818750000000        -1.216484864863035E-128
   38.7956250000000        -3.065975219349764E-128
   39.0093750000000        -6.238909915446472E-128
   39.2231250000000        -1.056838818086569E-127
   39.4368750000000        -1.417431959040080E-127
   39.6506250000000        -1.124031002590612E-127
   39.8643750000000         1.140941120586311E-127
   40.0781250000000         7.815991680866712E-127
   40.2918750000000         2.258019547672162E-126
   40.5056250000000         4.944969132090060E-126
   40.7193750000000         8.938508637858336E-126
   40.9331250000000         1.321133722218179E-125
   41.1468750000000         1.404815349935804E-125
   41.3606250000000         2.609733839519726E-126
   41.5743750000000        -3.791141979138743E-125
   41.7881250000000        -1.336556034925680E-124
   42.0018750000000        -3.153960989068371E-124
   42.2156250000000        -5.990854160667688E-124
   42.4293750000000        -9.383485952956806E-124
   42.6431250000000        -1.133774287094353E-123
   42.8568750000000        -6.922094494547994E-124
   43.0706250000000         1.338859223419757E-123
   43.2843750000000         6.462412896683852E-123
   43.4981250000000         1.651347232423314E-122
   43.7118750000000         3.269758133253198E-122
   43.9256250000000         5.324166495031516E-122
   44.1393750000000         6.894910972411028E-122
   44.3531250000000         5.637630257679989E-122
   44.5668750000000        -3.015964901099962E-122
   44.7806250000000        -2.632007350123146E-121
   44.9943750000000        -7.330020412264742E-121
   45.2081250000000        -1.505997949728753E-120
   45.4218750000000        -2.524025421713806E-120
   45.6356250000000        -3.415946625170242E-120
   45.8493750000000        -3.212095841730046E-120
   46.0631250000000        -1.280223353837298E-122
   46.2768750000000         9.207605977178287E-120
   46.4906250000000         2.825936885307675E-119
   46.7043750000000         6.015812117579303E-119
   46.9181250000000         1.033264918983500E-118
   47.1318750000000         1.445779065644255E-118
   47.3456250000000         1.486019685171479E-118
   47.5593750000000         4.584378758424386E-119
   47.7731250000000        -2.748527921933539E-118
   47.9868750000000        -9.551219544918236E-118
   48.2006250000000        -2.114154558821255E-117
   48.4143750000000        -3.722085879269205E-117
   48.6281250000000        -5.368195864227121E-117
   48.8418750000000        -5.916250928398371E-117
   49.0556250000000        -3.107723873931544E-117
   49.2693750000000         6.689810960110417E-117
   49.4831250000000         2.817384248576954E-116
   49.6968750000000         6.554559425583707E-116
   49.9106250000000         1.187674491566236E-115
   50.1243750000000         1.767396660878651E-115
   50.3381250000000         2.071870283604045E-115
   50.5518750000000         1.449522958114134E-115
   50.7656250000000        -1.158972595864205E-115
   50.9793750000000        -7.149557547126753E-115
   51.1931250000000        -1.784979893959162E-114
   51.4068750000000        -3.353673416027235E-114
   51.6206250000000        -5.164407583100150E-114
   51.8343750000000        -6.410090936234726E-114
   52.0481250000000        -5.421621100558316E-114
   52.2618750000000         5.575931147397498E-115
   52.4756250000000         1.524158371010342E-113
   52.6893750000000         4.237864301109595E-113
   52.9031250000000         8.346074974171654E-113
   53.1168750000000         1.335152610222084E-112
   53.3306250000000         1.748240049702464E-112
   53.5443750000000         1.694593060780360E-112
   53.7581250000000         5.348666662905519E-113
   53.9718750000000        -2.613584933057228E-112
   54.1856250000000        -8.691598557054346E-112
   54.3993750000000        -1.822264048682958E-111
   54.6131250000000        -3.042939046899420E-111
   54.8268750000000        -4.190456574976184E-111
   55.0406250000000        -4.500536084965004E-111
   55.2543750000000        -2.652465218240238E-111
   55.4681250000000         3.223665740802651E-111
   55.6818750000000         1.521946001900596E-110
   55.8956250000000         3.476654476685687E-110
   56.1093750000000         6.097504210422874E-110
   56.3231250000000         8.811059803388134E-110
   56.5368750000000         1.024997416984136E-109
   56.7506250000000         7.983177474759423E-110
   56.9643750000000        -1.517874390005115E-110
   57.1781250000000        -2.236411759990926E-109
   57.3918750000000        -5.778130659947841E-109
   57.6056250000000        -1.073005791655134E-108
   57.8193750000000        -1.624564400087879E-108
   58.0331250000000        -2.014465667534048E-108
   58.2468750000000        -1.842962052820537E-108
   58.4606250000000        -5.164162498988797E-109
   58.6743750000000         2.679504072328764E-108
   58.8881250000000         8.358427793367130E-108
   59.1018750000000         1.660359909925618E-107
   59.3156250000000         2.630651059029681E-107
   59.5293750000000         3.434102200367867E-107
   59.7431250000000         3.479970957462705E-107
   59.9568750000000         1.874480195689951E-107
   60.1706250000000        -2.482196190980286E-107
   60.3843750000000        -1.058848901986900E-106
   60.5981250000000        -2.274077291221268E-106
   60.8118750000000        -3.760993091981778E-106
   61.0256250000000        -5.109166207424051E-106
   61.2393750000000        -5.524303477142652E-106
   61.4531250000000        -3.791471295858055E-106
   61.6668750000000         1.599231846694467E-106
   61.8806250000000         1.205068609699576E-105
   62.0943750000000         2.807845119729663E-105
   62.3081250000000         4.812398949105553E-105
   62.5218750000000         6.709869412312835E-105
   62.7356250000000         7.506952939372346E-105
   62.9493750000000         5.686011660001177E-105
   63.1631250000000        -6.287418842656713E-106
   63.3768750000000        -1.316338342094786E-104
   63.5906250000000        -3.253087814964019E-104
   63.8043750000000        -5.679666480901146E-104
   64.0181250000000        -7.976485641625454E-104
   64.2318750000000        -8.950586596605564E-104
   64.4456250000000        -6.806667680861698E-104
   64.6593750000000         6.288569915649884E-105
   64.8731250000000         1.527727855184383E-103
   65.0868750000000         3.765121744786957E-103
   65.3006250000000         6.517788119334009E-103
   65.5143750000000         9.025584528904865E-103
   65.7281250000000         9.868078666690397E-103
   65.9418750000000         6.954762824989578E-103
   66.1556250000000        -2.182726202808071E-103
   66.3693750000000        -1.962549197319344E-102
   66.5831250000000        -4.570347310093100E-102
   66.7968750000000        -7.705392681207742E-102
   67.0106250000000        -1.044072148975308E-101
   67.2243750000000        -1.108327481059038E-101
   67.4381250000000        -7.170132950193791E-102
   67.6518750000000         4.189868216344104E-102
   67.8656250000000         2.543665051367763E-101
   68.0793750000000         5.699619330663879E-101
   68.2931250000000         9.504536562841817E-101
   68.5068750000000         1.289176192916932E-100
   68.7206250000000         1.389232170554415E-100
   68.9343750000000         9.593184828233149E-101
   69.1481250000000        -3.537826634073569E-101
   69.3618750000000        -2.874085861850288E-100
   69.5756250000000        -6.728072026441081E-100
   69.7893750000000        -1.159470439481086E-099
   70.0031250000000        -1.639852505494611E-099
   70.2168750000000        -1.901698206672603E-099
   70.4306250000000        -1.613429713290978E-099
   70.6443750000000        -3.439700452617426E-100
   70.8581250000000         2.358352941505013E-099
   71.0718750000000         6.803376921133184E-099
   71.2856250000000         1.289841457181077E-098
   71.4993750000000         1.979864165325191E-098
   71.7131250000000         2.552020766443686E-098
   71.9268750000000         2.662891417970113E-098
   72.1406250000000         1.819191586562780E-098
   72.3543750000000        -5.747063963181337E-099
   72.5681250000000        -5.086447162207118E-098
   72.7818750000000        -1.201471957167933E-097
   72.9956250000000        -2.102469524261504E-097
   73.2093750000000        -3.067977786127687E-097
   73.4231250000000        -3.794481089603543E-097
   73.6368750000000        -3.781428250341769E-097
   73.8506250000000        -2.331406921957176E-097
   74.0643750000000         1.378120589912099E-097
   74.2781250000000         8.111496526705343E-097
   74.4918750000000         1.824291503451925E-096
   74.7056250000000         3.125758150629716E-096
   74.9193750000000         4.511030850744021E-096
   75.1331250000000         5.553924618720798E-096
   75.3468750000000         5.553919817931056E-096
   75.5606250000000         3.533210237273201E-096
   75.7743750000000        -1.669152292746473E-096
   75.9881250000000        -1.114937555342599E-095
   76.2018750000000        -2.548330558355289E-095
   76.4156250000000        -4.403396264630978E-095
   76.6293750000000        -6.405226273544782E-095
   76.8431250000000        -7.970490787164318E-095
   77.0568750000000        -8.131598663594470E-095
   77.2706250000000        -5.529890455202877E-095
   77.4843750000000         1.455313510387844E-095
   77.6981250000000         1.436276360753576E-094
   77.9118750000000         3.401725284356616E-094
   78.1256250000000         5.957505751447299E-094
   78.3393750000000         8.730001006752383E-094
   78.5531250000000         1.092721618897496E-093
   78.7668750000000         1.124412417500910E-093
   78.9806250000000         7.868584974695510E-094
   79.1943750000000        -1.323217811392702E-094
   79.4081250000000        -1.828250629929089E-093
   79.6218750000000        -4.393275629301956E-093
   79.8356250000000        -7.692484672000927E-093
   80.0493750000000        -1.121101604493986E-092
   80.2631250000000        -1.390377218752657E-092
   80.4768750000000        -1.410411951065742E-092
   80.6906250000000        -9.575961339798787E-093
   80.9043750000000         2.185511141257026E-093
   81.1181250000000         2.329872014263872E-092
   81.3318750000000         5.441849861335810E-092
   81.5456250000000         9.326382977703441E-092
   81.7593750000000         1.329425698849059E-091
   81.9731250000000         1.604989883787202E-091
   82.1868750000000         1.563847302660106E-091
   82.4006250000000         9.580371384968462E-092
   82.6143750000000        -4.700434682333986E-092
   82.8281250000000        -2.906506380231086E-091
   83.0418750000000        -6.343950625915709E-091
   83.2556250000000        -1.042829180892405E-090
   83.4693750000000        -1.430292138560048E-090
   83.6831250000000        -1.650222751485128E-090
   83.8968750000000        -1.497029651531201E-090
   84.1106250000000        -7.296374018858919E-091
   84.3243750000000         8.745445235366091E-091
   84.5381250000000         3.430275986363791E-090
   84.7518750000000         6.823252673946598E-090
   84.9656250000000         1.057415633193732E-089
   85.1793750000000         1.372326473685190E-089
   85.3931250000000         1.479042188818520E-089
   85.6068750000000         1.188034508902468E-089
   85.8206250000000         3.005510484069859E-090
   86.0343750000000        -1.332219483695681E-089
   86.2481250000000        -3.723416920277265E-089
   86.4618750000000        -6.647839011648094E-089
   86.6756250000000        -9.544755939928174E-089
   86.8893750000000        -1.146301142534748E-088
   87.1031250000000        -1.109730240055269E-088
   87.3168750000000        -6.968466695612908E-089
   87.5306250000000         2.210865098342828E-089
   87.7443750000000         1.697786926983935E-088
   87.9581250000000         3.642175238498110E-088
   88.1718750000000         5.748545697872278E-088
   88.3856250000000         7.450369049073757E-088
   88.5993750000000         7.929920745013480E-088
   88.8131250000000         6.219249375541836E-088
   89.0268750000000         1.421288818672527E-088
   89.2406250000000        -6.941579144456926E-088
   89.4543750000000        -1.848338917089852E-087
   89.6681250000000        -3.150233160660755E-087
   89.8818750000000        -4.267173201261113E-087
   90.0956250000000        -4.708118043612345E-087
   90.3093750000000        -3.885625904441188E-087
   90.5231250000000        -1.254109307588256E-087
   90.7368750000000         3.471296188471049E-087
   90.9506250000000         1.003652524443509E-086
   91.1643750000000         1.736849057568269E-086
   91.3781250000000         2.339191284955181E-086
   91.5918750000000         2.507732546646433E-086
   91.8056250000000         1.886714861059673E-086
   92.0193750000000         1.595736546770405E-087
   92.2331250000000        -2.807548060928686E-086
   92.4468750000000        -6.785706954875450E-086
   92.6606250000000        -1.100536903649774E-085
   92.8743750000000        -1.404707801547326E-085
   93.0881250000000        -1.389001616876603E-085
   93.3018750000000        -8.216025287250393E-086
   93.5156250000000         4.954121824221415E-086
   93.7293750000000         2.627851807809355E-085
   93.9431250000000         5.386588281752999E-085
   94.1568750000000         8.206149510994889E-085
   94.3706250000000         1.006918618920539E-084
   94.5843750000000         9.537389547425729E-085
   94.7981250000000         4.955981439955638E-085
   95.0118750000000        -5.113233681165509E-085
   95.2256250000000        -2.121517600670295E-084
   95.4393750000000        -4.213977074734270E-084
   95.6531250000000        -6.403999134076331E-084
   95.8668750000000        -7.981987401961569E-084
   96.0806250000000        -7.919838073793103E-084
   96.2943750000000        -4.991500953537591E-084
   96.5081250000000         1.951166369229498E-084
   96.7218750000000         1.352924439148651E-083
   96.9356250000000         2.924159726402433E-083
   97.1493750000000         4.681886015226023E-083
   97.3631250000000         6.170524370542498E-083
   97.5768750000000         6.692940432898665E-083
   97.7906250000000         5.367960891162443E-083
   98.0043750000000         1.288679270325601E-083
   98.2181250000000        -6.199883702797351E-083
   98.4318750000000        -1.711100131201006E-082
   98.6456250000000        -3.036252545651903E-082
   98.8593750000000        -4.336056647794340E-082
   99.0731250000000        -5.177849242471886E-082
   99.2868750000000        -4.973358628350912E-082
   99.5006250000000        -3.057391193196105E-082
   99.7143750000000         1.156171919646611E-082
   99.9281250000000         7.938096329975737E-082
   100.141875000000         1.694722743350297E-081
   100.355625000000         2.692538299602731E-081
   100.569375000000         3.547187908106278E-081
   100.783125000000         3.901877878179587E-081
   100.996875000000         3.314505828545410E-081
   101.210625000000         1.335392339048776E-081
   101.424375000000        -2.362294029681313E-081
   101.638125000000        -7.804836072729117E-081
   101.851875000000        -1.451601355156769E-080
   102.065625000000        -2.133567950625192E-080
   102.279375000000        -2.632566171706499E-080
   102.493125000000        -2.684565430181668E-080
   102.706875000000        -1.988302417594231E-080
   102.920625000000        -2.697796744399972E-081
   103.134375000000         2.621040121222673E-080
   103.348125000000         6.589631308203400E-080
   103.561875000000         1.117266867135384E-079
   103.775625000000         1.544377402769180E-079
   103.989375000000         1.799450690745056E-079
   104.203125000000         1.704144013602263E-079
   104.416875000000         1.070448840268073E-079
   104.630625000000        -2.520263929111212E-080
   104.844375000000        -2.311142072804297E-079
   105.058125000000        -4.977553328025662E-079
   105.271875000000        -7.875503483222991E-079
   105.485625000000        -1.034164660182894E-078
   105.699375000000        -1.143969806364684E-078
   105.913125000000        -1.005918763889246E-078
   106.126875000000        -5.119464827891054E-079
   106.340625000000         4.116931980619564E-079
   106.554375000000         1.764523223306305E-078
   106.768125000000         3.429430696810637E-078
   106.981875000000         5.137895190711181E-078
   107.195625000000         6.456595785237695E-078
   107.409375000000         6.810963367232734E-078
   107.623125000000         5.559850480953232E-078
   107.836875000000         2.129495999260741E-078
   108.050625000000        -3.796504218766731E-078
   108.264375000000        -1.205130088644191E-077
   108.478125000000        -2.176350279309244E-077
   108.691875000000        -3.120161217266244E-077
   108.905625000000        -3.776057554736118E-077
   109.119375000000        -3.816994048794665E-077
   109.333125000000        -2.898682072172418E-077
   109.546875000000        -7.395400103087051E-078
   109.760625000000         2.773406034091240E-077
   109.974375000000         7.466578367570550E-077
   110.188125000000         1.277407658817354E-076
   110.401875000000         1.767757668365934E-076
   110.615625000000         2.073071291497128E-076
   110.829375000000         2.020472737123002E-076
   111.043125000000         1.437965634880157E-076
   111.256875000000         1.980341897910872E-077
   111.470625000000        -1.728060806002445E-076
   111.684375000000        -4.213656884151554E-076
   111.898125000000        -6.930789020122164E-076
   112.111875000000        -9.331719786914044E-076
   112.325625000000        -1.067580078843679E-075
   112.539375000000        -1.011682337342640E-075
   112.753125000000        -6.858170286180360E-076
   112.966875000000        -3.697124783598245E-077
   113.180625000000         9.357701610436749E-076
   113.394375000000         2.156478655463232E-075
   113.608125000000         3.454681584701388E-075
   113.821875000000         4.562217890845639E-075
   114.035625000000         5.132003557745523E-075
   114.249375000000         4.784025056400748E-075
   114.463125000000         3.179638090497530E-075
   114.676875000000         1.188853489803164E-076
   114.890625000000        -4.352287109634161E-075
   115.104375000000        -9.846035784686009E-075
   115.318125000000        -1.557522971441105E-074
   115.531875000000        -2.036428561114147E-074
   115.745625000000        -2.275383227566829E-074
   115.959375000000        -2.121293863845147E-074
   116.173125000000        -1.445263779096433E-074
   116.386875000000        -1.808006455345508E-075
   116.600625000000         1.637290347683681E-074
   116.814375000000         3.842020880744207E-074
   117.028125000000         6.121404939613145E-074
   117.241875000000         8.033205848270015E-074
   117.455625000000         9.053616082480869E-074
   117.669375000000         8.660400458369568E-074
   117.883125000000         6.442947006383574E-074
   118.096875000000         2.222601841745389E-074
   118.310625000000        -3.841355017209683E-074
   118.524375000000        -1.118915650248835E-073
   118.738125000000        -1.886873453379631E-073
   118.951875000000        -2.563218578205164E-073
   119.165625000000        -3.011994407886216E-073
   119.379375000000        -3.110765055206285E-073
   119.593125000000        -2.776473350076554E-073
   119.806875000000        -1.985355123767385E-073
   120.020625000000        -7.792521306630413E-074
   120.234375000000         7.475593819091500E-074
   120.448125000000         2.482301272982474E-073
   120.661875000000         4.342368953528340E-073
   120.875625000000         6.323835299003868E-073
   121.089375000000         8.526553107250078E-073
   121.303125000000         1.112805623585283E-072
   121.516875000000         1.428131681848954E-072
   121.730625000000         1.792502782188789E-072
   121.944375000000         2.152119314521579E-072
   122.158125000000         2.377217996327030E-072
   122.371875000000         2.241252116603612E-072
   122.585625000000         1.420920441300838E-072
   122.799375000000        -4.677045323323930E-073
   123.013125000000        -3.783549076177696E-072
   123.226875000000        -8.719236144249064E-072
   123.440625000000        -1.511151982793189E-071
   123.654375000000        -2.223049788866936E-071
   123.868125000000        -2.859806771590171E-071