  -1.60312500000000         0.000000000000000E+000
  -1.38937500000000         0.000000000000000E+000
  -1.17562500000000         0.000000000000000E+000
 -0.961875000000000         0.000000000000000E+000
 -0.748125000000000         0.000000000000000E+000
 -0.534375000000000         0.000000000000000E+000
 -0.320625000000000         0.000000000000000E+000
 -0.106875000000000         0.000000000000000E+000
  0.106875000000000         0.000000000000000E+000
  0.320625000000000         0.000000000000000E+000
  0.534375000000000         0.000000000000000E+000
  0.748125000000000         0.000000000000000E+000
  0.961875000000000         0.000000000000000E+000
   1.17562500000000         0.000000000000000E+000
   1.38937500000000         0.000000000000000E+000
   1.60312500000000         0.000000000000000E+000
   1.81687500000000         0.000000000000000E+000
   2.03062500000000         0.000000000000000E+000
   2.24437500000000         0.000000000000000E+000
   2.45812500000000         0.000000000000000E+000
   2.67187500000000         0.000000000000000E+000
   2.88562500000000         0.000000000000000E+000
   3.09937500000000         0.000000000000000E+000
   3.31312500000000         0.000000000000000E+000
   3.52687500000000         0.000000000000000E+000
   3.74062500000000         0.000000000000000E+000
   3.95437500000000         0.000000000000000E+000
   4.16812500000000         0.000000000000000E+000
   4.38187500000000         0.000000000000000E+000
   4.59562500000000         0.000000000000000E+000
   4.80937500000000         0.000000000000000E+000
   5.02312500000000         0.000000000000000E+000
   5.23687500000000         0.000000000000000E+000
   5.45062500000000         0.000000000000000E+000
   5.66437500000000         0.000000000000000E+000
   5.87812500000000         0.000000000000000E+000
   6.09187500000000         0.000000000000000E+000
   6.30562500000000         0.000000000000000E+000
   6.51937500000000         0.000000000000000E+000
   6.73312500000000         0.000000000000000E+000
   6.94687500000000         0.000000000000000E+000
   7.16062500000000         0.000000000000000E+000
   7.37437500000000         0.000000000000000E+000
   7.58812500000000         0.000000000000000E+000
   7.80187500000000         0.000000000000000E+000
   8.01562500000000         0.000000000000000E+000
   8.22937500000000         0.000000000000000E+000
   8.44312500000000         0.000000000000000E+000
   8.65687500000000         0.000000000000000E+000
   8.87062500000000         0.000000000000000E+000
   9.08437500000000         0.000000000000000E+000
   9.29812500000000        -1.686834321722806E-216
   9.51187500000000         3.304251653790730E-208
   9.72562500000000         1.907723569478868E-203
   9.93937500000000         2.763064616089134E-201
   10.1531250000000        -6.169049086664601E-199
   10.3668750000000        -1.303332024924772E-196
   10.5806250000000        -6.189128019131226E-195
   10.7943750000000        -1.452786635721565E-193
   11.0081250000000        -2.589468583161804E-192
   11.2218750000000        -6.805624913108620E-191
   11.4356250000000        -2.294920355113680E-189
   11.6493750000000        -6.288110546594380E-188
   11.8631250000000        -1.303393599090051E-186
   12.0768750000000        -2.110960864461570E-185
   12.2906250000000        -2.758997070644493E-184
   12.5043750000000        -2.961264769929035E-183
   12.7181250000000        -2.599976116240706E-182
   12.9318750000000        -1.776170049760813E-181
   13.1456250000000        -7.350694707171692E-181
   13.3593750000000         2.589588567772784E-180
   13.5731250000000         1.017300742260378E-178
   13.7868750000000         1.459976935828997E-177
   14.0006250000000         1.599954025650458E-176
   14.2143750000000         1.507014428307807E-175
   14.4281250000000         1.271895041789466E-174
   14.6418750000000         9.797355353939275E-174
   14.8556250000000         6.947507788948589E-173
   15.0693750000000         4.550673136761536E-172
   15.2831250000000         2.752361262139290E-171
   15.4968750000000         1.530795218873102E-170
   15.7106250000000         7.752228581973222E-170
   15.9243750000000         3.499567648059432E-169
   16.1381250000000         1.338715364886874E-168
   16.3518750000000         3.679372582832438E-168
   16.5656250000000         2.412701986553825E-169
   16.7793750000000        -9.344457679980160E-167
   16.9931250000000        -8.991202734282812E-166
   17.2068750000000        -6.191154561123281E-165
   17.4206250000000        -3.629130056744680E-164
   17.6343750000000        -1.911462978653468E-163
   17.8481250000000        -9.262523015680626E-163
   18.0618750000000        -4.179035167523700E-162
   18.2756250000000        -1.766253051952511E-161
   18.4893750000000        -7.009787237928704E-161
   18.7031250000000        -2.610648653113894E-160
   18.9168750000000        -9.086754460563148E-160
   19.1306250000000        -2.928794275455082E-159
   19.3443750000000        -8.577850702193742E-159
   19.5581250000000        -2.188128294072628E-158
   19.7718750000000        -4.296904255983493E-158
   19.9856250000000        -2.744412350028226E-158
   20.1993750000000         3.068019496101858E-157
   20.4131250000000         2.246302240175064E-156
   20.6268750000000         1.078233222912044E-155
   20.8406250000000         4.323740241961156E-155
   21.0543750000000         1.543965670868509E-154
   21.2681250000000         5.028092424359893E-154
   21.4818750000000         1.505361257400156E-153
   21.6956250000000         4.134832801952634E-153
   21.9093750000000         1.028163489651570E-152
   22.1231250000000         2.235287645479023E-152
   22.3368750000000         3.844796815425092E-152
   22.5506250000000         3.055749179809899E-152
   22.7643750000000        -1.310627754097868E-151
   22.9781250000000        -9.023603220474954E-151
   23.1918750000000        -3.652540950001124E-150
   23.4056250000000        -1.201317935035363E-149
   23.6193750000000        -3.450091465246064E-149
   23.8331250000000        -8.826577985505573E-149
   24.0468750000000        -2.000232949150229E-148
   24.2606250000000        -3.866850260678058E-148
   24.4743750000000        -5.588600264385858E-148
   24.6881250000000        -1.914060441674138E-148
   24.9018750000000         2.613330242702700E-147
   25.1156250000000         1.345930336539250E-146
   25.3293750000000         4.680631740633399E-146
   25.5431250000000         1.358763553618004E-145
   25.7568750000000         3.482706136169785E-145
   25.9706250000000         8.015994411378651E-145
   26.1843750000000         1.651064000621442E-144
   26.3981250000000         2.962276123207125E-144
   26.6118750000000         4.252747279316085E-144
   26.8256250000000         3.241242084916008E-144
   27.0393750000000        -7.025770371219378E-144
   27.2531250000000        -4.385059327086792E-143
   27.4668750000000        -1.442652681749385E-142
   27.6806250000000        -3.764448625633670E-142
   27.8943750000000        -8.429198362531474E-142
   28.1081250000000        -1.644003625903924E-141
   28.3218750000000        -2.725731153777005E-141
   28.5356250000000        -3.460619083111707E-141
   28.7493750000000        -1.708313864702373E-141
   28.9631250000000         7.964076629909878E-141
   29.1768750000000         3.706983879606092E-140
   29.3906250000000         1.063632986500431E-139
   29.6043750000000         2.464657677923032E-139
   29.8181250000000         4.880547840376075E-139
   30.0318750000000         8.246483401069406E-139
   30.2456250000000         1.117761815689569E-138
   30.4593750000000         9.011772167330176E-139
   30.6731250000000        -9.564478444137905E-139
   30.8868750000000        -6.717200478101470E-138
   31.1006250000000        -2.018003159578766E-137
   31.3143750000000        -4.644093961744349E-137
   31.5281250000000        -8.968272059664559E-137
   31.7418750000000        -1.465611298122788E-136
   31.9556250000000        -1.915505786217057E-136
   32.1693750000000        -1.503104562475708E-136
   32.3831250000000         1.399309884650059E-136
   32.5968750000000         9.734631312688732E-136
   32.8106250000000         2.788515322037465E-135
   33.0243750000000         6.068942867904564E-135
   33.2381250000000         1.098534646433363E-134
   33.4518750000000         1.654696686024380E-134
   33.6656250000000         1.900337525662374E-134
   33.8793750000000         9.382464371015175E-135
   34.0931250000000        -2.936471629278228E-134
   34.3068750000000        -1.237086844626601E-133
   34.5206250000000        -3.046638728913759E-133
   34.7343750000000        -5.874024274393072E-133
   34.9481250000000        -9.201891540159448E-133
   35.1618750000000        -1.083165589912630E-132
   35.3756250000000        -5.231376837646779E-133
   35.5893750000000         1.855285757720799E-132
   35.8031250000000         7.824189124517753E-132
   36.0168750000000         1.955896974535560E-131
   36.2306250000000         3.822751614562332E-131
   36.4443750000000         6.011543271327302E-131
   36.6581250000000         6.832177021227058E-131
   36.8718750000000         1.800551065080053E-131
   37.0856250000000        -1.847121160183770E-130
   37.2993750000000        -7.025517725504214E-130
   37.5131250000000        -1.759663604260917E-129
   37.7268750000000        -3.545325143859390E-129
   37.9406250000000        -5.910021382246682E-129
   38.1543750000000        -7.667475646562585E-129
   38.3681250000000        -5.287117624896874E-129
   38.5818750000000         9.100989125490220E-129
   38.7956250000000         4.990554280683999E-128
   39.0093750000000         1.385937825919331E-127
   39.2231250000000         2.979040279106102E-127
   39.4368750000000         5.307768987879003E-127
   39.6506250000000         7.699047271329362E-127
   39.8643750000000         7.814231704277721E-127
   40.0781250000000         1.538619095392612E-128
   40.2918750000000        -2.566992730359590E-126
   40.5056250000000        -8.568196491044064E-126
   40.7193750000000        -1.983687550637142E-125
   40.9331250000000        -3.719865051475237E-125
   41.1468750000000        -5.737964449830315E-125
   41.3606250000000        -6.715776044677184E-125
   41.5743750000000        -3.435633333202933E-125
   41.7881250000000         1.025343572787304E-124
   42.0018750000000         4.392757948052497E-124
   42.2156250000000         1.089328554694555E-123
   42.4293750000000         2.116480865945287E-123
   42.6431250000000         3.373531079093985E-123
   42.8568750000000         4.201209025553155E-123
   43.0706250000000         2.974428766213019E-123
   43.2843750000000        -3.407364665705516E-123
   43.4981250000000        -1.974847254319527E-122
   43.7118750000000        -5.175028462094657E-122
   43.9256250000000        -1.028444583620790E-121
   44.1393750000000        -1.668052666682513E-121
   44.3531250000000        -2.143031798629687E-121
   44.5668750000000        -1.731719261175157E-121
   44.7806250000000         9.302337269259021E-122
   44.9943750000000         7.935573266719399E-121
   45.2081250000000         2.175266726245978E-120
   45.4218750000000         4.391128143973120E-120
   45.6356250000000         7.202528185781164E-120
   45.8493750000000         9.451039463601687E-120
   46.0631250000000         8.302957685450344E-120
   46.2768750000000        -1.545757035882775E-120
   46.4906250000000        -2.815393126722116E-119
   46.7043750000000        -8.098829141399048E-119
   46.9181250000000        -1.661238937288389E-118
   47.1318750000000        -2.756484814279675E-118
   47.3456250000000        -3.692789922009115E-118
   47.5593750000000        -3.486315046430692E-118
   47.7731250000000        -3.077689124401611E-119
   47.9868750000000         8.606499459570283E-118
   48.2006250000000         2.650949771056707E-117
   48.4143750000000         5.560119972681003E-117
   48.6281250000000         9.368996632065550E-117
   48.8418750000000         1.285016824486225E-116
   49.0556250000000         1.298442752900752E-116
   49.2693750000000         4.166961392537006E-117
   49.4831250000000        -2.206099664378297E-116
   49.6968750000000        -7.573685205185444E-116
   49.9106250000000        -1.641017984751175E-115
   50.1243750000000        -2.822572027250422E-115
   50.3381250000000        -3.974468811243487E-115
   50.5518750000000        -4.276682985529852E-115
   50.7656250000000        -2.201436342748150E-115
   50.9793750000000         4.563878118962575E-115
   51.1931250000000         1.879727942771940E-114
   51.4068750000000         4.264135343514270E-114
   51.6206250000000         7.527120078465854E-114
   51.8343750000000         1.090093542924553E-113
   52.0481250000000         1.240828240216880E-113
   52.2618750000000         8.335358296221356E-114
   52.4756250000000        -6.972318279598435E-114
   52.6893750000000        -4.040349943971547E-113
   52.9031250000000        -9.760779469630834E-113
   53.1168750000000        -1.777798230666782E-112
   53.3306250000000        -2.650347033532303E-112
   53.5443750000000        -3.168452660265378E-112
   53.7581250000000        -2.524175430641468E-112
   53.9718750000000         5.216486645899447E-113
   54.1856250000000         7.499636288651749E-112
   54.3993750000000         1.973177958965886E-111
   54.6131250000000         3.728009980616114E-111
   54.8268750000000         5.721995486776243E-111
   55.0406250000000         7.134001966051667E-111
   55.2543750000000         6.383261453192781E-111
   55.4681250000000         1.027475162474707E-111
   55.6818750000000        -1.198546783822113E-110
   55.8956250000000        -3.539916200849910E-110
   56.1093750000000        -6.972563580334884E-110
   56.3231250000000        -1.101111214035677E-109
   56.5368750000000        -1.421948087958843E-109
   56.7506250000000        -1.379729709626537E-109
   56.9643750000000        -5.393190553871883E-110
   57.1781250000000         1.647350612931739E-109
   57.3918750000000         5.686367692464465E-109
   57.6056250000000         1.171990270396888E-108
   57.8193750000000         1.900681416803024E-108
   58.0331250000000         2.524408626362386E-108
   58.2468750000000         2.589752969917543E-108
   58.4606250000000         1.390521466743593E-108
   58.6743750000000        -1.964981500990806E-108
   58.8881250000000        -8.310802645975163E-108
   59.1018750000000        -1.792482951021721E-107
   59.3156250000000        -2.973564076230715E-107
   59.5293750000000        -4.030228602077446E-107
   59.7431250000000        -4.282902967199390E-107
   59.9568750000000        -2.675872932405519E-107
   60.1706250000000         2.118839712008635E-107
   60.3843750000000         1.134176272897438E-106
   60.5981250000000         2.542332631137260E-106
   60.8118750000000         4.285426723472919E-106
   61.0256250000000         5.876061015269422E-106
   61.2393750000000         6.356685556588676E-106
   61.4531250000000         4.251180476191667E-106
   61.6668750000000        -2.279977653379188E-106
   61.8806250000000        -1.493363111747102E-105
   62.0943750000000        -3.427180286863478E-105
   62.3081250000000        -5.820041609843225E-105
   62.5218750000000        -8.008863722993456E-105
   62.7356250000000        -8.705802424663288E-105
   62.9493750000000        -5.945852261276943E-105
   63.1631250000000         2.693491795064661E-105
   63.3768750000000         1.941444758035549E-104
   63.5906250000000         4.489905821003569E-104
   63.8043750000000         7.634721902403473E-104
   64.0181250000000         1.050864124624924E-103
   64.2318750000000         1.144373180298430E-103
   64.4456250000000         7.911789853860462E-104
   64.6593750000000        -3.191215724382330E-104
   64.8731250000000        -2.468920075912716E-103
   65.0868750000000        -5.750106290579019E-103
   65.3006250000000        -9.820160890381347E-103
   65.5143750000000        -1.360522544307728E-102
   65.7281250000000        -1.503207053444338E-102
   65.9418750000000        -1.094155328416114E-102
   66.1556250000000         2.590654446617289E-103
   66.3693750000000         2.925482931217756E-102
   66.5831250000000         7.058830213363367E-102
   66.7968750000000         1.230628717743028E-101
   67.0106250000000         1.744702227272483E-101
   67.2243750000000         2.004965333499669E-101
   67.4381250000000         1.631790029274760E-101
   67.6518750000000         1.379192118087982E-102
   67.8656250000000        -2.966953062950669E-101
   68.0793750000000        -7.966126569329061E-101
   68.2931250000000        -1.460646148557160E-100
   68.5068750000000        -2.167253838973880E-100
   68.7206250000000        -2.654984732809281E-100
   68.9343750000000        -2.494883087862831E-100
   69.1481250000000        -1.105901432856076E-100
   69.3618750000000         2.151830753925293E-100
   69.5756250000000         7.769787419428168E-100
   69.7893750000000         1.574583122175379E-099
   70.0031250000000         2.510969002656542E-099
   70.2168750000000         3.338717071522841E-099
   70.4306250000000         3.615812360869848E-099
   70.6443750000000         2.696902186078211E-099
   70.8581250000000        -2.037839244919546E-100
   71.0718750000000        -5.836263413519767E-099
   71.2856250000000        -1.458933688800635E-098
   71.4993750000000        -2.600383526716351E-098
   71.7131250000000        -3.816245166419196E-098
   71.9268750000000        -4.707396470768065E-098
   72.1406250000000        -4.627667772930691E-098
   72.3543750000000        -2.700476107567285E-098
   72.5681250000000         2.064057917007721E-098
   72.7818750000000         1.050484261448375E-097
   72.9956250000000         2.286380243520573E-097
   73.2093750000000         3.815838925482996E-097
   73.4231250000000         5.343787156342580E-097
   73.6368750000000         6.308691204659458E-097
   73.8506250000000         5.846586284022111E-097
   74.0643750000000         2.831093455981661E-097
   74.2781250000000        -3.958049335505376E-097
   74.4918750000000        -1.548459335305243E-096
   74.7056250000000        -3.188709683466943E-096
   74.9193750000000        -5.169967903829656E-096
   75.1331250000000        -7.094967582448441E-096
   75.3468750000000        -8.233843503928040E-096
   75.5606250000000        -7.486236975142442E-096
   75.7743750000000        -3.439040782317582E-096
   75.9881250000000         5.416656297260908E-096
   76.2018750000000         2.024545912472878E-095
   76.4156250000000         4.116180467479494E-095
   76.6293750000000         6.627062377071526E-095
   76.8431250000000         9.056544688254382E-095
   77.0568750000000         1.049413551312059E-094
   77.2706250000000         9.576525153338921E-095
   77.4843750000000         4.563849660592195E-095
   77.6981250000000        -6.387431181017764E-095
   77.9118750000000        -2.467881938951103E-094
   78.1256250000000        -5.040399707265120E-094
   78.3393750000000        -8.118670834381411E-094
   78.5531250000000        -1.108704732041623E-093
   78.7668750000000        -1.283885700600828E-093
   78.9806250000000        -1.173630907030912E-093
   79.1943750000000        -5.719836276797080E-094
   79.4081250000000         7.343421332301780E-094
   79.6218750000000         2.898961621463096E-093
   79.8356250000000         5.912712775067602E-093
   80.0493750000000         9.469822190078574E-093
   80.2631250000000         1.282406380385273E-092
   80.4768750000000         1.467657174320095E-092
   80.6906250000000         1.316072933572729E-092
   80.9043750000000         6.009990298405611E-093
   81.1181250000000        -8.998499661822441E-093
   81.3318750000000        -3.325168262939230E-092
   81.5456250000000        -6.614932692340247E-092
   81.7593750000000        -1.037003945072070E-091
   81.9731250000000        -1.371485169276999E-091
   82.1868750000000        -1.521250831881648E-091
   82.4006250000000        -1.290443993277081E-091
   82.6143750000000        -4.559239399082753E-092
   82.8281250000000         1.178936283204892E-091
   83.0418750000000         3.697345441475113E-091
   83.2556250000000         6.953124735264678E-091
   83.4693750000000         1.044299644828676E-090
   83.6831250000000         1.320200458638176E-090
   83.8968750000000         1.377584570889185E-090
   84.1106250000000         1.033846047476089E-090
   84.3243750000000         1.024923767276817E-091
   84.5381250000000        -1.547207243358233E-090
   84.7518750000000        -3.904927329705278E-090
   84.9656250000000        -6.718567556755840E-090
   85.1793750000000        -9.401433945652848E-090
   85.3931250000000        -1.098537461074746E-089
   85.6068750000000        -1.017023109404650E-089
   85.8206250000000        -5.523577597481380E-090
   86.0343750000000         4.128251296420915E-090
   86.2481250000000         1.911425111532231E-089
   86.4618750000000         3.820111291337483E-089
   86.6756250000000         5.790102047834204E-089
   86.8893750000000         7.206961930169345E-089
   87.1031250000000         7.215102305579971E-089
   87.3168750000000         4.845796029118918E-089
   87.5306250000000        -7.212039615861165E-090
   87.7443750000000        -9.758681212578554E-089
   87.9581250000000        -2.149943201818554E-088
   88.1718750000000        -3.366143082448041E-088
   88.3856250000000        -4.217926179866072E-088
   88.5993750000000        -4.139657143733711E-088
   88.8131250000000        -2.499618062005923E-088
   89.0268750000000         1.211998207967628E-088
   89.2406250000000         7.098208716759579E-088
   89.4543750000000         1.450645229439361E-087
   89.6681250000000         2.169833251636322E-087
   89.8818750000000         2.567723405677760E-087
   90.0956250000000         2.236211449652271E-087
   90.3093750000000         7.312509306980126E-088
   90.5231250000000        -2.283679313650437E-087
   90.7368750000000        -6.821459437871489E-087
   90.9506250000000        -1.230668773240073E-086
   91.1643750000000        -1.732360493499215E-086
   91.3781250000000        -1.948090213736408E-086
   91.5918750000000        -1.553629754462023E-086
   91.8056250000000        -1.940089447226202E-087
   92.0193750000000         2.407202132241512E-086
   92.2331250000000         6.280498135417025E-086
   92.4468750000000         1.100033342991806E-085
   92.6606250000000         1.547508933007289E-085
   92.8743750000000         1.781304138567121E-085
   93.0881250000000         1.537183691106965E-085
   93.3018750000000         5.116734488894109E-086
   93.5156250000000        -1.559987484908284E-085
   93.7293750000000        -4.778680583526913E-085
   93.9431250000000        -8.916527581508065E-085
   94.1568750000000        -1.323925295998465E-084
   94.3706250000000        -1.636751064846426E-084
   94.5843750000000        -1.625445322103761E-084
   94.7981250000000        -1.037509009465560E-084
   95.0118750000000         3.777543901984598E-085
   95.2256250000000         2.782724689028286E-084
   95.4393750000000         6.129608735666694E-084
   95.6531250000000         1.001771709555594E-083
   95.8668750000000         1.356185275909431E-083
   96.0806250000000         1.532340645341551E-083
   96.2943750000000         1.337256406252837E-083
   96.5081250000000         5.556567732085213E-084
   96.7218750000000        -9.964151235543454E-084
   96.9356250000000        -3.389253210472919E-083
   97.1493750000000        -6.474322082580414E-083
   97.3631250000000        -9.773650430714988E-083
   97.5768750000000        -1.239512235587635E-082
   97.7906250000000        -1.301873340145652E-082
   98.0043750000000        -1.000789108390754E-082
   98.2181250000000        -1.698077905858601E-083
   98.4318750000000         1.310412934015384E-082
   98.6456250000000         3.442146318441137E-082
   98.8593750000000         6.028434774668800E-082
   99.0731250000000         8.595681507733554E-082
   99.2868750000000         1.034795961688126E-081
   99.5006250000000         1.018845797378586E-081
   99.7143750000000         6.846776285747999E-082
   99.9281250000000        -8.554916115795059E-083
   100.141875000000        -1.358866615848051E-081
   100.355625000000        -3.097334001380046E-081
   100.569375000000        -5.099214092802722E-081
   100.783125000000        -6.949940221390536E-081
   100.996875000000        -8.003824363205627E-081
   101.210625000000        -7.421936423611488E-081
   101.424375000000        -4.291429177923221E-081
   101.638125000000         2.156108753141232E-081
   101.851875000000         1.222742797494274E-080
   102.065625000000         2.538060047167332E-080
   102.279375000000         3.983597635815061E-080
   102.493125000000         5.229619332228749E-080
   102.706875000000         5.792458344768001E-080
   102.920625000000         5.075038346757407E-080
   103.134375000000         2.465169841429921E-080
   103.348125000000        -2.500420252775914E-080
   103.561875000000        -9.912151223062379E-080
   103.775625000000        -1.923011722083479E-079
   103.989375000000        -2.904503736721007E-079
   104.203125000000        -3.693600104599789E-079
   104.416875000000        -3.952369811184390E-079
   104.630625000000        -3.282268849093257E-079
   104.844375000000        -1.297512741137007E-079
   105.058125000000         2.260828356863661E-079
   105.271875000000         7.377169582327174E-079
   105.485625000000         1.360084114666500E-078
   105.699375000000         1.990899489468567E-078
   105.913125000000         2.464431211141575E-078
   106.126875000000         2.558842138370451E-078
   106.340625000000         2.023045658318367E-078
   106.554375000000         6.271690411441904E-079
   106.768125000000        -1.763303989728323E-078
   106.981875000000        -5.095982126759276E-078
   107.195625000000        -9.037143779262085E-078
   107.409375000000        -1.289803187330244E-077
   107.623125000000        -1.561330634963246E-077
   107.836875000000        -1.580697286664328E-077
   108.050625000000        -1.197776341359649E-077
   108.264375000000        -2.822261329095244E-078
   108.478125000000         1.231204974434148E-077
   108.691875000000         3.289011960266641E-077
   108.905625000000         5.666286160177293E-077
   109.119375000000         7.929367552021940E-077
   109.333125000000         9.431920691359918E-077
   109.546875000000         9.363777721923367E-077
   109.760625000000         6.868754782097043E-077
   109.974375000000         1.238632624201931E-077
   110.188125000000        -7.825210454209547E-077
   110.401875000000        -1.991292581300284E-076
   110.615625000000        -3.362625102828736E-076
   110.829375000000        -4.639872005976154E-076
   111.043125000000        -5.451484733337411E-076
   111.256875000000        -5.342887587642937E-076
   111.470625000000        -3.846094802278647E-076
   111.684375000000        -5.894385115318564E-077
   111.898125000000         4.559041163985073E-076
   112.111875000000         1.133274194137338E-075
   112.325625000000         1.892361873341869E-075
   112.539375000000         2.589890120893575E-075
   112.753125000000         3.022860769632251E-075
   112.966875000000         2.947381307522448E-075
   113.180625000000         2.117145866260583E-075
   113.394375000000         3.421422737473034E-076
   113.608125000000        -2.436493020434799E-075
   113.821875000000        -6.065520351982318E-075
   114.035625000000        -1.010907709724612E-074
   114.249375000000        -1.381080877278927E-074
   114.463125000000        -1.611397638153318E-074
   114.676875000000        -1.576340304316137E-074
   114.890625000000        -1.150522798967333E-074
   115.104375000000        -2.384899870788706E-075
   115.318125000000         1.187929414668689E-074
   115.531875000000         3.049873036887647E-074
   115.745625000000         5.127502589315258E-074
   115.959375000000         7.042639830764386E-074
   116.173125000000         8.270006173165630E-074
   116.386875000000         8.188125535554584E-074
   116.600625000000         6.176952742653404E-074
   116.814375000000         1.761781546503655E-074
   117.028125000000        -5.207917920430709E-074
   117.241875000000        -1.436943082603711E-073
   117.455625000000        -2.468604185373978E-073
   117.669375000000        -3.436453272243098E-073
   117.883125000000        -4.090611035858433E-073
   118.096875000000        -4.134103815788690E-073
   118.310625000000        -3.267873127258391E-073
   118.524375000000        -1.257101802051470E-073
   118.738125000000         1.986264768536060E-073
   118.951875000000         6.315869820827360E-073
   119.165625000000         1.127538049444748E-072
   119.379375000000         1.605728547472889E-072
   119.593125000000         1.952072713584398E-072
   119.806875000000         2.029105870512857E-072
   120.020625000000         1.695597531820781E-072
   120.234375000000         8.358515649022545E-073
   120.448125000000        -6.033793821423337E-073
   120.661875000000        -2.573013806443855E-072
   120.875625000000        -4.886142990163632E-072
   121.089375000000        -7.196556269229559E-072
   121.303125000000        -9.002155535054516E-072
   121.516875000000        -9.683553027928585E-072
   121.730625000000        -8.585125656886118E-072
   121.944375000000        -5.139911988182210E-072
   122.158125000000         9.690080706490619E-073
   122.371875000000         9.629006591574339E-072
   122.585625000000         2.013053459295062E-071
   122.799375000000         3.105285258248539E-071
   123.013125000000         4.025058702325263E-071
   123.226875000000         4.498850010744739E-071
   123.440625000000         4.226142183932745E-071
   123.654375000000         2.931351718635242E-071
   123.868125000000         4.335289951408013E-072