  -1.60312500000000         0.000000000000000E+000
  -1.38937500000000         0.000000000000000E+000
  -1.17562500000000         0.000000000000000E+000
 -0.961875000000000         0.000000000000000E+000
 -0.748125000000000         0.000000000000000E+000
 -0.534375000000000         0.000000000000000E+000
 -0.320625000000000         0.000000000000000E+000
 -0.106875000000000         0.000000000000000E+000
  0.106875000000000         0.000000000000000E+000
  0.320625000000000         0.000000000000000E+000
  0.534375000000000         0.000000000000000E+000
  0.748125000000000         0.000000000000000E+000
  0.961875000000000         0.000000000000000E+000
   1.17562500000000         0.000000000000000E+000
   1.38937500000000         0.000000000000000E+000
   1.60312500000000         0.000000000000000E+000
   1.81687500000000         0.000000000000000E+000
   2.03062500000000         0.000000000000000E+000
   2.24437500000000         0.000000000000000E+000
   2.45812500000000         0.000000000000000E+000
   2.67187500000000         0.000000000000000E+000
   2.88562500000000         0.000000000000000E+000
   3.09937500000000         0.000000000000000E+000
   3.31312500000000         0.000000000000000E+000
   3.52687500000000         0.000000000000000E+000
   3.74062500000000         0.000000000000000E+000
   3.95437500000000         0.000000000000000E+000
   4.16812500000000         0.000000000000000E+000
   4.38187500000000         0.000000000000000E+000
   4.59562500000000         0.000000000000000E+000
   4.80937500000000         0.000000000000000E+000
   5.02312500000000         0.000000000000000E+000
   5.23687500000000         0.000000000000000E+000
   5.45062500000000         0.000000000000000E+000
   5.66437500000000         0.000000000000000E+000
   5.87812500000000         0.000000000000000E+000
   6.09187500000000         0.000000000000000E+000
   6.30562500000000         0.000000000000000E+000
   6.51937500000000         0.000000000000000E+000
   6.73312500000000         0.000000000000000E+000
   6.94687500000000         0.000000000000000E+000
   7.16062500000000         0.000000000000000E+000
   7.37437500000000         0.000000000000000E+000
   7.58812500000000         0.000000000000000E+000
   7.80187500000000         0.000000000000000E+000
   8.01562500000000         0.000000000000000E+000
   8.22937500000000         0.000000000000000E+000
   8.44312500000000         0.000000000000000E+000
   8.65687500000000         0.000000000000000E+000
   8.87062500000000         0.000000000000000E+000
   9.08437500000000         0.000000000000000E+000
   9.29812500000000        -1.151204041795753E-215
   9.51187500000000         8.134318444860254E-209
   9.72562500000000         4.560548744011584E-204
   9.93937500000000         6.790778004575722E-202
   10.1531250000000        -1.408047744856650E-199
   10.3668750000000        -3.099663502235263E-197
   10.5806250000000        -1.303218190894801E-195
   10.7943750000000        -2.160745503963037E-194
   11.0081250000000        -1.635460760066722E-193
   11.2218750000000        -7.173514188889619E-192
   11.4356250000000        -4.585245315846999E-190
   11.6493750000000        -1.566483409528446E-188
   11.8631250000000        -3.570664853336790E-187
   12.0768750000000        -6.106181064989971E-186
   12.2906250000000        -8.309530973006330E-185
   12.5043750000000        -9.264412867034902E-184
   12.7181250000000        -8.512373844696012E-183
   12.9318750000000        -6.257219084765402E-182
   13.1456250000000        -3.183054097288027E-181
   13.3593750000000        -8.756606747417008E-182
   13.5731250000000         2.419764764407482E-179
   13.7868750000000         4.039096390479351E-178
   14.0006250000000         4.750079216551240E-177
   14.2143750000000         4.714082190784054E-176
   14.4281250000000         4.173477910173235E-175
   14.6418750000000         3.375110516230454E-174
   14.8556250000000         2.522248899180283E-173
   15.0693750000000         1.752175186026174E-172
   15.2831250000000         1.134804863676280E-171
   15.4968750000000         6.858386008513643E-171
   15.7106250000000         3.864813061055390E-170
   15.9243750000000         2.024810132844926E-169
   16.1381250000000         9.802781082944633E-169
   16.3518750000000         4.333776245935580E-168
   16.5656250000000         1.707471557028345E-167
   16.7793750000000         5.655292066477914E-167
   16.9931250000000         1.286432878247156E-166
   17.2068750000000        -7.883185863027081E-167
   17.4206250000000        -3.353260055707932E-165
   17.6343750000000        -2.702876355587514E-164
   17.8481250000000        -1.618606667789077E-163
   18.0618750000000        -8.304512082594621E-163
   18.2756250000000        -3.820021456553737E-162
   18.4893750000000        -1.603911933586911E-161
   18.7031250000000        -6.179944307540496E-161
   18.9168750000000        -2.176418127673298E-160
   19.1306250000000        -6.893244042186239E-160
   19.3443750000000        -1.882377429911542E-159
   19.5581250000000        -3.887403214162307E-159
   19.7718750000000        -2.110435478662921E-159
   19.9856250000000         3.557347120298836E-158
   20.1993750000000         2.672071922358544E-157
   20.4131250000000         1.351771844855605E-156
   20.6268750000000         5.749149253017975E-156
   20.8406250000000         2.186092663832330E-155
   21.0543750000000         7.616132676334545E-155
   21.2681250000000         2.456169811080481E-154
   21.4818750000000         7.349599127246079E-154
   21.6956250000000         2.031683773402075E-153
   21.9093750000000         5.119156446301848E-153
   22.1231250000000         1.138971521650727E-152
   22.3368750000000         2.054405928724676E-152
   22.5506250000000         2.032789337857232E-152
   22.7643750000000        -5.068853675197520E-152
   22.9781250000000        -4.180043038742890E-151
   23.1918750000000        -1.785051265048795E-150
   23.4056250000000        -6.097227232020558E-150
   23.6193750000000        -1.817111106151695E-149
   23.8331250000000        -4.855554026644957E-149
   24.0468750000000        -1.167538749752818E-148
   24.2606250000000        -2.485292806621148E-148
   24.4743750000000        -4.437047847360277E-148
   24.6881250000000        -5.442003434578511E-148
   24.9018750000000         1.778291121336745E-148
   25.1156250000000         4.117555409359063E-147
   25.3293750000000         1.791524741583073E-146
   25.5431250000000         5.779214273141023E-146
   25.7568750000000         1.589858742093943E-145
   25.9706250000000         3.885110141002901E-145
   26.1843750000000         8.515513092176791E-145
   26.3981250000000         1.655915072577253E-144
   26.6118750000000         2.737485178195058E-144
   26.8256250000000         3.325800256978587E-144
   27.0393750000000         6.235777850852626E-145
   27.2531250000000        -1.296764313213783E-143
   27.4668750000000        -5.476186461775029E-143
   27.6806250000000        -1.585284126600343E-142
   27.8943750000000        -3.788202086031434E-142
   28.1081250000000        -7.780186723812536E-142
   28.3218750000000        -1.357660373976043E-141
   28.5356250000000        -1.851682288972704E-141
   28.7493750000000        -1.232783117819775E-141
   28.9631250000000         3.283960261259363E-141
   29.1768750000000         1.793602987794200E-140
   29.3906250000000         5.466535397652062E-140
   29.6043750000000         1.326455380029399E-139
   29.8181250000000         2.750122635839282E-139
   30.0318750000000         4.911124548646431E-139
   30.2456250000000         7.251894750026754E-139
   30.4593750000000         7.401579751112778E-139
   30.6731250000000        -1.033496829145901E-139
   30.8868750000000        -3.197592537393449E-138
   31.1006250000000        -1.111133497769764E-137
   31.3143750000000        -2.780278140524878E-137
   31.5281250000000        -5.784938121018232E-137
   31.7418750000000        -1.030505835033290E-136
   31.9556250000000        -1.534958986011546E-136
   32.1693750000000        -1.689117546501778E-136
   32.3831250000000        -4.609428432029143E-137
   32.5968750000000         4.274831087991973E-136
   32.8106250000000         1.619522390563628E-135
   33.0243750000000         4.050708627424430E-135
   33.2381250000000         8.234567224068709E-135
   33.4518750000000         1.415288484609616E-134
   33.6656250000000         2.004783473275733E-134
   33.8793750000000         2.016141249744979E-134
   34.0931250000000         1.260955979603732E-135
   34.3068750000000        -6.134849529021156E-134
   34.5206250000000        -2.054547732712703E-133
   34.7343750000000        -4.740223773595817E-133
   34.9481250000000        -8.834865057010164E-133
   35.1618750000000        -1.345181579286878E-132
   35.3756250000000        -1.511491845845620E-132
   35.5893750000000        -5.310324007594208E-133
   35.8031250000000         3.241152364091121E-132
   36.0168750000000         1.236812380974558E-131
   36.2306250000000         2.974024977004373E-131
   36.4443750000000         5.614558756451610E-131
   36.6581250000000         8.413242672341847E-131
   36.8718750000000         8.579148736206979E-131
   37.0856250000000        -6.989928902919006E-132
   37.2993750000000        -3.263443413522729E-130
   37.5131250000000        -1.079521623670828E-129
   37.7268750000000        -2.502676707181604E-129
   37.9406250000000        -4.665669013286498E-129
   38.1543750000000        -6.974600446850746E-129
   38.3681250000000        -7.175179891662514E-129
   38.5818750000000         2.742113683804092E-130
   38.7956250000000         2.622315143530984E-128
   39.0093750000000         8.801080317199051E-128
   39.2231250000000         2.065235219146018E-127
   39.4368750000000         3.924201161106759E-127
   39.6506250000000         6.104087317060598E-127
   39.8643750000000         7.073570545548633E-127
   40.0781250000000         2.943767730673633E-127
   40.2918750000000        -1.402701491044489E-126
   40.5056250000000        -5.645599460125732E-126
   40.7193750000000        -1.402999941886111E-125
   40.9331250000000        -2.765647815494499E-125
   41.1468750000000        -4.494256120115456E-125
   41.3606250000000        -5.721627048245464E-125
   41.5743750000000        -4.149827786219162E-125
   41.7881250000000         4.872434990403468E-125
   42.0018750000000         2.903412471045235E-124
   42.2156250000000         7.836712203804102E-124
   42.4293750000000         1.609249523611836E-123
   42.6431250000000         2.712545414415768E-123
   42.8568750000000         3.672643496509181E-123
   43.0706250000000         3.325602465674506E-123
   43.2843750000000        -7.167590867350360E-124
   43.4981250000000        -1.243857950637574E-122
   43.7118750000000        -3.713981171318540E-122
   43.9256250000000        -7.946033015892920E-122
   44.1393750000000        -1.380840655215094E-121
   44.3531250000000        -1.951804416848598E-121
   44.5668750000000        -1.993474739524881E-121
   44.7806250000000        -4.389457328603297E-122
   44.9943750000000         4.503751304554661E-121
   45.2081250000000         1.525275124937976E-120
   45.4218750000000         3.405705853249329E-120
   45.6356250000000         6.085763594700390E-120
   45.8493750000000         8.904907716602517E-120
   46.0631250000000         9.867996219156205E-120
   46.2768750000000         4.781281155485733E-120
   46.4906250000000        -1.345122075695808E-119
   46.7043750000000        -5.453998240417356E-119
   46.9181250000000        -1.279981183731754E-118
   47.1318750000000        -2.355163684242643E-118
   47.3456250000000        -3.559002041427929E-118
   47.5593750000000        -4.209957645363923E-118
   47.7731250000000        -2.850344592025874E-118
   47.9868750000000         3.012094075925454E-118
   48.2006250000000         1.684400169425696E-117
   48.4143750000000         4.221631397407519E-117
   48.6281250000000         8.040069982100269E-117
   48.8418750000000         1.256118185212833E-116
   49.0556250000000         1.573993779907773E-116
   49.2693750000000         1.308898268602430E-116
   49.4831250000000        -3.179905508853660E-117
   49.6968750000000        -4.411477797607634E-116
   49.9106250000000        -1.216762847762547E-115
   50.1243750000000        -2.420308844472780E-115
   50.3381250000000        -3.921625875339085E-115
   50.5518750000000        -5.183508909076088E-115
   50.7656250000000        -4.982281038968309E-115
   50.9793750000000        -1.149819295991717E-115
   51.1931250000000         9.461268098269245E-115
   51.4068750000000         3.042839441106024E-114
   51.6206250000000         6.410082302191839E-114
   51.8343750000000         1.082367757108638E-113
   52.0481250000000         1.505427452092235E-113
   52.2618750000000         1.614673985867343E-113
   52.4756250000000         8.720619016433336E-114
   52.6893750000000        -1.524329224587555E-113
   52.9031250000000        -6.529780839627797E-113
   53.1168750000000        -1.488941764948408E-112
   53.3306250000000        -2.638284137446743E-112
   53.5443750000000        -3.857929493550938E-112
   53.7581250000000        -4.516250156452539E-112
   53.9718750000000        -3.422181981387375E-112
   54.1856250000000         1.252854578008074E-112
   54.3993750000000         1.178712032563875E-111
   54.6131250000000         3.020167198716511E-111
   54.8268750000000         5.674023728964992E-111
   55.0406250000000         8.731470200479979E-111
   55.2543750000000         1.099905117354138E-110
   55.4681250000000         1.012272978820872E-110
   55.6818750000000         2.366436900652186E-111
   55.8956250000000        -1.712933330613973E-110
   56.1093750000000        -5.312875676778021E-110
   56.3231250000000        -1.075540940682102E-109
   56.5368750000000        -1.747556421521061E-109
   56.7506250000000        -2.348433178476620E-109
   56.9643750000000        -2.462280043444595E-109
   57.1781250000000        -1.403791471411223E-109
   57.3918750000000         1.756441275370819E-109
   57.6056250000000         8.005943582821314E-109
   57.8193750000000         1.794368758874747E-108
   58.0331250000000         3.098731260619451E-108
   58.2468750000000         4.422536321395620E-108
   58.4606250000000         5.107837110644164E-108
   58.6743750000000         4.022639928607571E-108
   58.8881250000000        -4.332223287821681E-109
   59.1018750000000        -1.007802347943912E-107
   59.3156250000000        -2.629232481414998E-107
   59.5293750000000        -4.881107499995108E-107
   59.7431250000000        -7.392309832362878E-107
   59.9568750000000        -9.228459161286041E-107
   60.1706250000000        -8.698005838538386E-107
   60.3843750000000        -3.306363806531699E-107
   60.5981250000000         9.951298343256072E-107
   60.8118750000000         3.371776608746569E-106
   61.0256250000000         6.859123493116886E-106
   61.2393750000000         1.105338350698324E-105
   61.4531250000000         1.475973221609923E-105
   61.6668750000000         1.567654473372418E-105
   61.8806250000000         1.025334088138050E-105
   62.0943750000000        -6.020565147152757E-106
   62.3081250000000        -3.756250021285891E-105
   62.5218750000000        -8.653920997293671E-105
   62.7356250000000        -1.494148864610930E-104
   62.9493750000000        -2.124064330121339E-104
   63.1631250000000        -2.467651271825277E-104
   63.3768750000000        -2.058582019387403E-104
   63.5906250000000        -2.728911858427115E-105
   63.8043750000000         3.555810046628657E-104
   64.0181250000000         9.880190013623869E-104
   64.2318750000000         1.850954518558980E-103
   64.4456250000000         2.801781011732335E-103
   64.6593750000000         3.508431976050439E-103
   64.8731250000000         3.399052992168767E-103
   65.0868750000000         1.665690951225861E-103
   65.3006250000000        -2.623896917209382E-103
   65.5143750000000        -1.024421438217179E-102
   65.7281250000000        -2.130860441369181E-102
   65.9418750000000        -3.453746054429499E-102
   66.1556250000000        -4.638299028820666E-102
   66.3693750000000        -5.024345875446489E-102
   66.5831250000000        -3.619689815045894E-102
   66.7968750000000         8.104491354433664E-103
   67.0106250000000         9.458799570424583E-102
   67.2243750000000         2.292062416032823E-101
   67.4381250000000         4.033094004781408E-101
   67.6518750000000         5.825104300477184E-101
   67.8656250000000         6.952323810654512E-101
   68.0793750000000         6.254450337053014E-101
   68.2931250000000         2.168368730216116E-101
   68.5068750000000        -7.018908278298975E-101
   68.7206250000000        -2.260077858791884E-100
   68.9343750000000        -4.448647727507917E-100
   69.1481250000000        -6.984818651062943E-100
   69.3618750000000        -9.155330061958580E-100
   69.5756250000000        -9.681491380312379E-100
   69.7893750000000        -6.683140599275155E-100
   70.0031250000000         2.145862407413476E-100
   70.2168750000000         1.901335645680254E-099
   70.4306250000000         4.502541672793533E-099
   70.6443750000000         7.863951060748227E-099
   70.8581250000000         1.136666525291819E-098
   71.0718750000000         1.371867718212242E-098
   71.2856250000000         1.281314364292791E-098
   71.4993750000000         5.775460568632989E-099
   71.7131250000000        -1.063566525255151E-098
   71.9268750000000        -3.908887785230559E-098
   72.1406250000000        -8.005391749726860E-098
   72.3543750000000        -1.294684225488869E-097
   72.5681250000000        -1.759375114995839E-097
   72.7818750000000        -1.981195178343114E-097
   72.9956250000000        -1.635027499565716E-097
   73.2093750000000        -3.038235488996543E-098
   73.4231250000000         2.446825565211801E-097
   73.6368750000000         6.916216955242510E-097
   73.8506250000000         1.302343223506456E-096
   74.0643750000000         1.997675754990962E-096
   74.2781250000000         2.590432855534004E-096
   74.4918750000000         2.755108591259098E-096
   74.7056250000000         2.021939988780505E-096
   74.9193750000000        -1.797888396355124E-097
   75.1331250000000        -4.400063691275417E-096
   75.3468750000000        -1.094177938266804E-095
   75.5606250000000        -1.951869494919958E-095
   75.7743750000000        -2.881992560743520E-095
   75.9881250000000        -3.605801535651784E-095
   76.2018750000000        -3.665293141060059E-095
   76.4156250000000        -2.429040158570699E-095
   76.6293750000000         8.332280499839533E-096
   76.8431250000000         6.773382604668371E-095
   77.0568750000000         1.565852261245865E-094
   77.2706250000000         2.693250572304653E-094
   77.4843750000000         3.868730328382933E-094
   77.6981250000000         4.715457610362551E-094
   77.9118750000000         4.641555752069739E-094
   78.1256250000000         2.861938060633640E-094
   78.3393750000000        -1.493238135998797E-094
   78.5531250000000        -9.147800978950264E-094
   78.7668750000000        -2.030334512321588E-093
   78.9806250000000        -3.412538976093564E-093
   79.1943750000000        -4.815346375840390E-093
   79.4081250000000        -5.777326585842794E-093
   79.6218750000000        -5.598093981915953E-093
   79.8356250000000        -3.375794403272324E-093
   80.0493750000000         1.857235657167676E-093
   80.2631250000000         1.086640792105833E-092
   80.4768750000000         2.379663979645489E-092
   80.6906250000000         3.962131036205024E-092
   80.9043750000000         5.553264822332686E-092
   81.1181250000000         6.642458596289352E-092
   81.3318750000000         6.470643902156007E-092
   81.5456250000000         4.076384694083487E-092
   81.7593750000000        -1.557918207396152E-092
   81.9731250000000        -1.122883210941764E-091
   82.1868750000000        -2.509023988807468E-091
   82.4006250000000        -4.210816850085446E-091
   82.6143750000000        -5.946630361923962E-091
   82.8281250000000        -7.206608833194739E-091
   83.0418750000000        -7.234244907423052E-091
   83.2556250000000        -5.068343067297130E-091
   83.4693750000000         3.227073965080851E-092
   83.6831250000000         9.786385348168807E-091
   83.8968750000000         2.359799171517689E-090
   84.1106250000000         4.095467469693482E-090
   84.3243750000000         5.941156824984472E-090
   84.5381250000000         7.437872358779202E-090
   84.7518750000000         7.886407650992224E-090
   84.9656250000000         6.370979992987010E-090
   85.1793750000000         1.860772513224027E-090
   85.3931250000000        -6.583182917757338E-090
   85.6068750000000        -1.947749560005091E-089
   85.8206250000000        -3.646422382738193E-089
   86.0343750000000        -5.577266033147859E-089
   86.2481250000000        -7.367868930348528E-089
   86.4618750000000        -8.410526124037878E-089
   86.6756250000000        -7.857286551025220E-089
   86.8893750000000        -4.676695678818333E-089
   87.1031250000000         2.197987480912463E-089
   87.3168750000000         1.360175596936207E-088
   87.5306250000000         2.973611757261230E-088
   87.7443750000000         4.964110471827420E-088
   87.9581250000000         7.059014900227680E-088
   88.1718750000000         8.751567631507554E-088
   88.3856250000000         9.264814159172319E-088
   88.5993750000000         7.563396308735729E-088
   88.8131250000000         2.447090390484446E-088
   89.0268750000000        -7.236661483641729E-088
   89.2406250000000        -2.222876359475087E-087
   89.4543750000000        -4.232888533239911E-087
   89.6681250000000        -6.572370130522628E-087
   89.8818750000000        -8.825757498619712E-087
   90.0956250000000        -1.028158053423259E-086
   90.3093750000000        -9.909371049959989E-087
   90.5231250000000        -6.412772438876700E-087
   90.7368750000000         1.596547754375991E-087
   90.9506250000000         1.526083892167555E-086
   91.1643750000000         3.494655539916277E-086
   91.3781250000000         5.953269852462541E-086
   91.5918750000000         8.559090640776766E-086
   91.8056250000000         1.066228189395145E-085
   92.0193750000000         1.126328455101238E-085
   92.2331250000000         9.042839451113678E-086
   92.4468750000000         2.511965877696447E-086
   92.6606250000000        -9.671477241721872E-086
   92.8743750000000        -2.818867574659227E-085
   93.0881250000000        -5.235462340785642E-085
   93.3018750000000        -7.929220756354202E-085
   93.5156250000000        -1.031467613478789E-084
   93.7293750000000        -1.146112871349215E-084
   93.9431250000000        -1.011395664308772E-084
   94.1568750000000        -4.829431933524893E-085
   94.3706250000000         5.733887407354794E-085
   94.5843750000000         2.234026367546816E-084
   94.7981250000000         4.452772545853701E-084
   95.0118750000000         6.985402089208475E-084
   95.2256250000000         9.318873827123034E-084
   95.4393750000000         1.062976527517894E-083
   95.6531250000000         9.805330303318239E-084
   95.8668750000000         5.565497121260877E-084
   96.0806250000000        -3.279075945741700E-084
   96.2943750000000        -1.741381846071825E-083
   96.5081250000000        -3.646588777051387E-083
   96.7218750000000        -5.837438383605614E-083
   96.9356250000000        -7.881887343320125E-083
   97.1493750000000        -9.091483099918419E-083
   97.3631250000000        -8.544867822938473E-083
   97.5768750000000        -5.195193493041974E-083
   97.7906250000000         1.912956762058471E-083
   98.0043750000000         1.330638145357966E-082
   98.2181250000000         2.864298480503559E-082
   98.4318750000000         4.622710889192242E-082
   98.6456250000000         6.259106198198351E-082
   98.8593750000000         7.230732189898111E-082
   99.0731250000000         6.823735548504731E-082
   99.2868750000000         4.243186229039297E-082
   99.5006250000000        -1.215017382298580E-082
   99.7143750000000        -9.906252422415092E-082
   99.9281250000000        -2.151110293530783E-081
   100.141875000000        -3.468979179282139E-081
   100.355625000000        -4.680238403254136E-081
   100.569375000000        -5.381553270597757E-081
   100.783125000000        -5.054012428540294E-081
   100.996875000000        -3.134168848926124E-081
   101.210625000000         8.578664606454898E-082
   101.424375000000         7.133404039782426E-081
   101.638125000000         1.540934351123964E-080
   101.851875000000         2.467895760473534E-080
   102.065625000000         3.304063588071483E-080
   102.279375000000         3.766734050645198E-080
   102.493125000000         3.501094484066071E-080
   102.706875000000         2.132786398385969E-080
   102.920625000000        -6.423894141213677E-081
   103.134375000000        -4.933790139582650E-080
   103.348125000000        -1.050928868300768E-079
   103.561875000000        -1.665340699934736E-079
   103.775625000000        -2.207146218802248E-079
   103.989375000000        -2.489274327869112E-079
   104.203125000000        -2.282999890685336E-079
   104.416875000000        -1.354374362131044E-079
   104.630625000000         4.767055656666819E-080
   104.844375000000         3.257461628855832E-079
   105.058125000000         6.812774842123553E-079
   105.271875000000         1.066308649677733E-078
   105.485625000000         1.397560576362105E-078
   105.699375000000         1.558063344066799E-078
   105.913125000000         1.408552042737755E-078
   106.126875000000         8.111270556418738E-079
   106.340625000000        -3.341499927638530E-079
   106.554375000000        -2.042073932489988E-078
   106.768125000000        -4.190945799188547E-078
   106.981875000000        -6.478093733482309E-078
   107.195625000000        -8.397564131918052E-078
   107.409375000000        -9.257871120264205E-078
   107.623125000000        -8.257033455498365E-078
   107.836875000000        -4.626649627627586E-078
   108.050625000000         2.154687238853448E-078
   108.264375000000         1.209596189881760E-077
   108.478125000000         2.441614882690248E-077
   108.691875000000         3.731851251549015E-077
   108.905625000000         4.790137824890988E-077
   109.119375000000         5.229965885690387E-077
   109.333125000000         4.614220922094644E-077
   109.546875000000         2.537454548160929E-077
   109.760625000000        -1.256986272965710E-077
   109.974375000000        -6.736255235742925E-077
   110.188125000000        -1.343666654283100E-076
   110.401875000000        -2.035646695221434E-076
   110.615625000000        -2.592654359139481E-076
   110.829375000000        -2.810559446914004E-076
   111.043125000000        -2.463878186925056E-076
   111.256875000000        -1.349800038035316E-076
   111.470625000000         6.513761995636134E-077
   111.684375000000         3.506028980434106E-076
   111.898125000000         6.959483010628896E-076
   112.111875000000         1.048837134155126E-075
   112.325625000000         1.329432946182715E-075
   112.539375000000         1.436045636077743E-075
   112.753125000000         1.258706732871156E-075
   112.966875000000         7.012036957683607E-076
   113.180625000000        -2.896743472236975E-076
   113.394375000000        -1.691233702514349E-075
   113.608125000000        -3.374394416546151E-075
   113.821875000000        -5.083942345188358E-075
   114.035625000000        -6.439104053883970E-075
   114.249375000000        -6.963613806304562E-075
   114.463125000000        -6.151663484998868E-075
   114.676875000000        -3.570597141489269E-075
   114.890625000000         1.006976365733724E-075
   115.104375000000         7.459061347488325E-075
   115.318125000000         1.518598071085174E-074
   115.531875000000         2.303422168804309E-074
   115.745625000000         2.931243768081220E-074
   115.959375000000         3.193565764638408E-074
   116.173125000000         2.871981135300659E-074
   116.386875000000         1.782381927950742E-074
   116.600625000000        -1.698054668543924E-075
   116.814375000000        -2.931114543677473E-074
   117.028125000000        -6.249921543554095E-074
   117.241875000000        -9.649214724186613E-074
   117.455625000000        -1.243745129833431E-073
   117.669375000000        -1.377027345764066E-073
   117.883125000000        -1.276962735654769E-073
   118.096875000000        -8.696756782695940E-074
   118.310625000000        -1.162443012930064E-074
   118.524375000000         9.656451635806632E-074
   118.738125000000         2.283784690545904E-073
   118.951875000000         3.662423737254891E-073
   119.165625000000         4.847229712715440E-073
   119.379375000000         5.528128101322285E-073
   119.593125000000         5.381484361175913E-073
   119.806875000000         4.129528738348793E-073
   120.020625000000         1.610658411123709E-073
   120.234375000000        -2.150004690243263E-073
   120.448125000000        -6.883725504777678E-073
   120.661875000000        -1.205019751851212E-072
   120.875625000000        -1.685227554852891E-072
   121.089375000000        -2.030236558307758E-072
   121.303125000000        -2.134153344524429E-072
   121.516875000000        -1.900236596566506E-072
   121.730625000000        -1.259624083351791E-072
   121.944375000000        -1.897271515328280E-073
   122.158125000000         1.270876874832190E-072
   122.371875000000         3.013988293359321E-072
   122.585625000000         4.861768910795407E-072
   122.799375000000         6.575673430197528E-072
   123.013125000000         7.873112966292001E-072
   123.226875000000         8.449214726584390E-072
   123.440625000000         8.000533788367291E-072
   123.654375000000         6.248495070091235E-072
   123.868125000000         2.962893864377826E-072