  -1.60312500000000         0.000000000000000E+000
  -1.38937500000000         0.000000000000000E+000
  -1.17562500000000         0.000000000000000E+000
 -0.961875000000000         0.000000000000000E+000
 -0.748125000000000         0.000000000000000E+000
 -0.534375000000000         0.000000000000000E+000
 -0.320625000000000         0.000000000000000E+000
 -0.106875000000000         0.000000000000000E+000
  0.106875000000000         0.000000000000000E+000
  0.320625000000000         0.000000000000000E+000
  0.534375000000000         0.000000000000000E+000
  0.748125000000000         0.000000000000000E+000
  0.961875000000000         0.000000000000000E+000
   1.17562500000000         0.000000000000000E+000
   1.38937500000000         0.000000000000000E+000
   1.60312500000000         0.000000000000000E+000
   1.81687500000000         0.000000000000000E+000
   2.03062500000000         0.000000000000000E+000
   2.24437500000000         0.000000000000000E+000
   2.45812500000000         0.000000000000000E+000
   2.67187500000000         0.000000000000000E+000
   2.88562500000000         0.000000000000000E+000
   3.09937500000000         0.000000000000000E+000
   3.31312500000000         0.000000000000000E+000
   3.52687500000000         0.000000000000000E+000
   3.74062500000000         0.000000000000000E+000
   3.95437500000000         0.000000000000000E+000
   4.16812500000000         0.000000000000000E+000
   4.38187500000000         0.000000000000000E+000
   4.59562500000000         0.000000000000000E+000
   4.80937500000000         0.000000000000000E+000
   5.02312500000000         0.000000000000000E+000
   5.23687500000000         0.000000000000000E+000
   5.45062500000000         0.000000000000000E+000
   5.66437500000000         0.000000000000000E+000
   5.87812500000000         0.000000000000000E+000
   6.09187500000000         0.000000000000000E+000
   6.30562500000000         0.000000000000000E+000
   6.51937500000000         0.000000000000000E+000
   6.73312500000000         0.000000000000000E+000
   6.94687500000000         0.000000000000000E+000
   7.16062500000000         0.000000000000000E+000
   7.37437500000000         0.000000000000000E+000
   7.58812500000000         0.000000000000000E+000
   7.80187500000000         0.000000000000000E+000
   8.01562500000000         0.000000000000000E+000
   8.22937500000000         0.000000000000000E+000
   8.44312500000000         0.000000000000000E+000
   8.65687500000000         0.000000000000000E+000
   8.87062500000000         0.000000000000000E+000
   9.08437500000000         0.000000000000000E+000
   9.29812500000000         0.000000000000000E+000
   9.51187500000000        -7.211216725364988E-217
   9.72562500000000         1.412567581995537E-208
   9.93937500000000         8.155518259521437E-204
   10.1531250000000         1.181210264634863E-201
   10.3668750000000        -2.637186929366522E-199
   10.5806250000000        -5.571626285526936E-197
   10.7943750000000        -2.646115946871535E-195
   11.0081250000000        -6.216234493995217E-194
   11.2218750000000        -1.109643935248543E-192
   11.4356250000000        -2.915620884847930E-191
   11.6493750000000        -9.821880957463465E-190
   11.8631250000000        -2.691082879553945E-188
   12.0768750000000        -5.581829517067428E-187
   12.2906250000000        -9.051268524368751E-186
   12.5043750000000        -1.185053077217588E-184
   12.7181250000000        -1.274991957669031E-183
   12.9318750000000        -1.123340320465078E-182
   13.1456250000000        -7.720626158494376E-182
   13.3593750000000        -3.254756019362405E-181
   13.5731250000000         1.029842851137921E-180
   13.7868750000000         4.316413112969492E-179
   14.0006250000000         6.251699829180337E-178
   14.2143750000000         6.882967590785403E-177
   14.4281250000000         6.505003679307678E-176
   14.6418750000000         5.506180979557819E-175
   14.8556250000000         4.253419450602115E-174
   15.0693750000000         3.025121389571099E-173
   15.2831250000000         1.987946960471578E-172
   15.4968750000000         1.206885653460257E-171
   15.7106250000000         6.742944256729669E-171
   15.9243750000000         3.434766284139578E-170
   16.1381250000000         1.563494612112703E-169
   16.3518750000000         6.066484813305345E-169
   16.5656250000000         1.729281240372138E-168
   16.7793750000000         7.097914912557118E-169
   16.9931250000000        -3.821827534154306E-167
   17.2068750000000        -3.836641253993345E-166
   17.4206250000000        -2.684936850221745E-165
   17.6343750000000        -1.589819511798283E-164
   17.8481250000000        -8.439997918765750E-164
   18.0618750000000        -4.118710540383295E-163
   18.2756250000000        -1.870937513304040E-162
   18.4893750000000        -7.962602851135316E-162
   18.7031250000000        -3.183777795544925E-161
   18.9168750000000        -1.195678327717543E-160
   19.1306250000000        -4.202965311445238E-160
   19.3443750000000        -1.371627385528802E-159
   19.5581250000000        -4.087327706332348E-159
   19.7718750000000        -1.072587584268928E-158
   19.9856250000000        -2.245659340066178E-158
   20.1993750000000        -2.245823863905995E-158
   20.4131250000000         1.087012400576926E-157
   20.6268750000000         9.378359690357794E-157
   20.8406250000000         4.718148268006681E-156
   21.0543750000000         1.942182550341972E-155
   21.2681250000000         7.072268069763544E-155
   21.4818750000000         2.343727766448052E-154
   21.6956250000000         7.142646182362022E-154
   21.9093750000000         2.002013799479556E-153
   22.1231250000000         5.109663536496662E-153
   22.3368750000000         1.155786848390238E-152
   22.5506250000000         2.154616992243893E-152
   22.7643750000000         2.462119622758970E-152
   22.9781250000000        -3.448316656524491E-152
   23.1918750000000        -3.611378414477146E-151
   23.4056250000000        -1.595944422690725E-150
   23.6193750000000        -5.496772013723891E-150
   23.8331250000000        -1.634508543661765E-149
   24.0468750000000        -4.323039290176021E-149
   24.2606250000000        -1.018550440127899E-148
   24.4743750000000        -2.085382415457472E-148
   24.6881250000000        -3.407677053152853E-148
   24.9018750000000        -2.903643254273166E-148
   25.1156250000000         7.764309734401186E-148
   25.3293750000000         5.463487863277973E-147
   25.5431250000000         2.078613166464790E-146
   25.7568750000000         6.355062978044765E-146
   25.9706250000000         1.696718189859062E-145
   26.1843750000000         4.062343908668849E-145
   26.3981250000000         8.755016792515725E-145
   26.6118750000000         1.672607433537931E-144
   26.8256250000000         2.693551141159198E-144
   27.0393750000000         3.058238424839524E-144
   27.2531250000000        -3.099656925370844E-145
   27.4668750000000        -1.568789019845651E-143
   27.6806250000000        -6.198336783732329E-143
   27.8943750000000        -1.766180689442959E-142
   28.1081250000000        -4.223315978355438E-142
   28.3218750000000        -8.794296190182232E-142
   28.5356250000000        -1.587581666075213E-141
   28.7493750000000        -2.358844277048478E-141
   28.9631250000000        -2.317885843235478E-141
   29.1768750000000         1.045798482237995E-141
   29.3906250000000         1.352947024208057E-140
   29.6043750000000         4.651610865513142E-140
   29.8181250000000         1.188935859732901E-139
   30.0318750000000         2.551595288312086E-139
   30.2456250000000         4.714307513690072E-139
   30.4593750000000         7.330027050384992E-139
   30.6731250000000         8.566840115223724E-139
   30.8868750000000         3.241212515516037E-139
   31.1006250000000        -2.014919192866005E-138
   31.3143750000000        -8.302842255647618E-138
   31.5281250000000        -2.186842087932310E-137
   31.7418750000000        -4.664220531071360E-137
   31.9556250000000        -8.452330387407224E-137
   32.1693750000000        -1.285300776714928E-136
   32.3831250000000        -1.487810239199087E-136
   32.5968750000000        -6.870958010270279E-137
   32.8106250000000         2.673744646975345E-136
   33.0243750000000         1.123380720068313E-135
   33.2381250000000         2.861847540726735E-135
   33.4518750000000         5.819616333570940E-135
   33.6656250000000         9.935675873480957E-135
   33.8793750000000         1.394355925577759E-134
   34.0931250000000         1.394667939208994E-134
   34.3068750000000         1.390143040613169E-135
   34.5206250000000        -3.893878321569723E-134
   34.7343750000000        -1.288536626204500E-133
   34.9481250000000        -2.900533209460010E-133
   35.1618750000000        -5.222345259622663E-133
   35.3756250000000        -7.531066106336503E-133
   35.5893750000000        -7.458758857716665E-133
   35.8031250000000         4.002805079199083E-134
   36.0168750000000         2.598964964959673E-132
   36.2306250000000         8.401487616931508E-132
   36.4443750000000         1.894122811721364E-131
   36.6581250000000         3.410083510185573E-131
   36.8718750000000         4.814878488295931E-131
   37.0856250000000         4.179819090507296E-131
   37.2993750000000        -3.081564471489687E-131
   37.5131250000000        -2.585426918602322E-130
   37.7268750000000        -7.830718355364387E-130
   37.9406250000000        -1.774169190860121E-129
   38.1543750000000        -3.309605976446895E-129
   38.3681250000000        -5.052015029765626E-129
   38.5818750000000        -5.569848761090307E-129
   38.7956250000000        -1.161342178618557E-129
   39.0093750000000         1.576477078883378E-128
   39.2231250000000         5.808749987943282E-128
   39.4368750000000         1.431187427206197E-127
   39.6506250000000         2.849946241112601E-127
   39.8643750000000         4.722530135699499E-127
   40.0781250000000         6.190530294691327E-127
   40.2918750000000         4.788306102027533E-127
   40.5056250000000        -4.783363627595915E-127
   40.7193750000000        -3.184073389718584E-126
   40.9331250000000        -8.958600641733371E-126
   41.1468750000000        -1.908649648477522E-125
   41.3606250000000        -3.348839866475797E-125
   41.5743750000000        -4.779643907577018E-125
   41.7881250000000        -4.817573116420050E-125
   42.0018750000000        -3.963001339112925E-126
   42.2156250000000         1.396146711150437E-124
   42.4293750000000         4.617249557928093E-124
   42.6431250000000         1.044410241306654E-123
   42.8568750000000         1.903909492105488E-123
   43.0706250000000         2.840427099730627E-123
   43.2843750000000         3.175477789661553E-123
   43.4981250000000         1.383778705141519E-123
   43.7118750000000        -5.266994222554425E-123
   43.9256250000000        -2.073946797031313E-122
   44.1393750000000        -4.923300017234319E-122
   44.3531250000000        -9.204871947099057E-122
   44.5668750000000        -1.408476095637623E-121
   44.7806250000000        -1.660797178862285E-121
   44.9943750000000        -1.010801177376800E-121
   45.2081250000000         1.731660392660257E-121
   45.4218750000000         8.288464077324751E-121
   45.6356250000000         2.050373320814534E-120
   45.8493750000000         3.907927207153922E-120
   46.0631250000000         6.090692691504255E-120
   46.2768750000000         7.457441617683943E-120
   46.4906250000000         5.429881558664366E-120
   46.7043750000000        -4.578363999053102E-120
   46.9181250000000        -2.919261302081656E-119
   47.1318750000000        -7.559632856813175E-119
   47.3456250000000        -1.470323388312726E-118
   47.5593750000000        -2.334630977340214E-118
   47.7731250000000        -2.960723070661847E-118
   47.9868750000000        -2.466202187408384E-118
   48.2006250000000         7.185554483044482E-119
   48.4143750000000         8.866608083859033E-118
   48.6281250000000         2.448806833151574E-117
   48.8418750000000         4.891906868593927E-117
   49.0556250000000         7.942253757830187E-117
   49.2693750000000         1.044274963724464E-116
   49.4831250000000         9.723629753139758E-117
   49.6968750000000         1.011673572027423E-117
   49.9106250000000        -2.265387449902801E-116
   50.1243750000000        -6.914184527608530E-116
   50.3381250000000        -1.433188286639835E-115
   50.5518750000000        -2.390503869567443E-115
   50.7656250000000        -3.261470262953846E-115
   50.9793750000000        -3.331617906092278E-115
   51.1931250000000        -1.310412367097346E-115
   51.4068750000000         4.704219049257767E-115
   51.6206250000000         1.691876622642616E-114
   51.8343750000000         3.688265738469929E-114
   52.0481250000000         6.352026518645077E-114
   52.2618750000000         8.992806465397089E-114
   52.4756250000000         9.915392190279706E-114
   52.6893750000000         6.012140400868755E-114
   52.9031250000000        -7.357103820198660E-114
   53.1168750000000        -3.571519183180305E-113
   53.3306250000000        -8.335797818120356E-113
   53.5443750000000        -1.490175275153090E-112
   53.7581250000000        -2.188093294075484E-112
   53.9718750000000        -2.569260271752318E-112
   54.1856250000000        -1.965088489963284E-112
   54.3993750000000         6.368342416463032E-113
   54.6131250000000         6.470247284615877E-112
   54.8268750000000         1.657407690878018E-111
   55.0406250000000         3.093177799058430E-111
   55.2543750000000         4.707193531365107E-111
   55.4681250000000         5.822022070298343E-111
   55.6818750000000         5.146439163323045E-111
   55.8956250000000         6.982345694588157E-112
   56.1093750000000        -9.986702595310321E-111
   56.3231250000000        -2.910947473647281E-110
   56.5368750000000        -5.705920699533551E-110
   56.7506250000000        -8.989775549671332E-110
   56.9643750000000        -1.160426520818699E-109
   57.1781250000000        -1.129536451145156E-109
   57.3918750000000        -4.561841337903807E-110
   57.6056250000000         1.301385737383402E-109
   57.8193750000000         4.554074272156315E-109
   58.0331250000000         9.426798794216327E-109
   58.2468750000000         1.534592114985552E-108
   58.4606250000000         2.049799274061383E-108
   58.6743750000000         2.129040042018438E-108
   58.8881250000000         1.209769682387813E-108
   59.1018750000000        -1.423828089135944E-108
   59.3156250000000        -6.453094933230044E-108
   59.5293750000000        -1.413581451502225E-107
   59.7431250000000        -2.368232220711112E-107
   59.9568750000000        -3.244522469979964E-107
   60.1706250000000        -3.512167899314471E-107
   60.3843750000000        -2.338718493096273E-107
   60.5981250000000         1.336435667322073E-107
   60.8118750000000         8.529753505015509E-107
   61.0256250000000         1.965663491016880E-106
   61.2393750000000         3.364991434529227E-106
   61.4531250000000         4.683146566458538E-106
   61.6668750000000         5.182371088101166E-106
   61.8806250000000         3.708456119638935E-106
   62.0943750000000        -1.201756214617695E-106
   62.3081250000000        -1.094273960670243E-105
   62.5218750000000        -2.608243409669749E-105
   62.7356250000000        -4.518063202249945E-105
   62.9493750000000        -6.329973946213302E-105
   63.1631250000000        -7.059915043945836E-105
   63.3768750000000        -5.178506203823161E-105
   63.5906250000000         1.239761296656132E-105
   63.8043750000000         1.401584118096709E-104
   64.0181250000000         3.387819742943097E-104
   64.2318750000000         5.894028250868255E-104
   64.4456250000000         8.280015088718883E-104
   64.6593750000000         9.276318413393603E-104
   64.8731250000000         6.915770366545436E-104
   65.0868750000000        -1.278314911133258E-104
   65.3006250000000        -1.766593402567986E-103
   65.5143750000000        -4.325950271751351E-103
   65.7281250000000        -7.582827279483522E-103
   65.9418750000000        -1.075216042522590E-102
   66.1556250000000        -1.226034130846241E-102
   66.3693750000000        -9.644655649297006E-103
   66.5831250000000         2.460982224934849E-104
   66.7968750000000         2.053184351283139E-102
   67.0106250000000         5.285547590600790E-102
   67.2243750000000         9.511786372873004E-102
   67.4381250000000         1.385677439131187E-101
   67.6518750000000         1.648768874802260E-101
   67.8656250000000         1.444637902179448E-101
   68.0793750000000         3.803964403908515E-102
   68.2931250000000        -1.960881206208724E-101
   68.5068750000000        -5.863865844691008E-101
   68.7206250000000        -1.122589136782206E-100
   68.9343750000000        -1.721392557745068E-100
   69.1481250000000        -2.189151656843566E-100
   69.3618750000000        -2.194165420291041E-100
   69.5756250000000        -1.269244009540504E-100
   69.7893750000000         1.127418701514500E-100
   70.0031250000000         5.462098837759243E-100
   70.2168750000000         1.186181118787121E-099
   70.4306250000000         1.973511431851939E-099
   70.6443750000000         2.731940903058981E-099
   70.8581250000000         3.126437116400373E-099
   71.0718750000000         2.644823275338672E-099
   71.2856250000000         6.314345071206735E-100
   71.4993750000000        -3.592118244284043E-099
   71.7131250000000        -1.048520506959173E-098
   71.9268750000000        -1.990656633072611E-098
   72.1406250000000        -3.060932498212521E-098
   72.3543750000000        -3.968984606000480E-098
   72.5681250000000        -4.215386034197534E-098
   72.7818750000000        -3.086599846479680E-098
   72.9956250000000         2.754341834942693E-099
   73.2093750000000         6.687675694570766E-098
   73.4231250000000         1.658814558993408E-097
   73.6368750000000         2.953236578793530E-097
   73.8506250000000         4.355780048985326E-097
   74.0643750000000         5.452652215212981E-097
   74.2781250000000         5.566072501417488E-097
   74.4918750000000         3.760586124284436E-097
   74.7056250000000        -1.053591157012427E-097
   74.9193750000000        -9.871147772536746E-097
   75.1331250000000        -2.315520394588419E-096
   75.3468750000000        -4.020213418750383E-096
   75.5606250000000        -5.835488492517657E-096
   75.7743750000000        -7.220579725623776E-096
   75.9881250000000        -7.305678426958424E-096
   76.2018750000000        -4.904959158544737E-096
   76.4156250000000         1.349255348863129E-096
   76.6293750000000         1.269171233993010E-095
   76.8431250000000         2.967994701084390E-095
   77.0568750000000         5.140844088221759E-095
   77.2706250000000         7.454237632943440E-095
   77.4843750000000         9.234808591274145E-095
   77.6981250000000         9.405283362846600E-095
   77.9118750000000         6.504181761389048E-095
   78.1256250000000        -1.144911926169358E-095
   78.3393750000000        -1.504352698716934E-094
   78.5531250000000        -3.585222974314990E-094
   78.7668750000000        -6.244065428194870E-094
   78.9806250000000        -9.073834344383525E-094
   79.1943750000000        -1.126133755575202E-093
   79.4081250000000        -1.151906435271427E-093
   79.6218750000000        -8.122024936193008E-094
   79.8356250000000         8.739965790404448E-095
   80.0493750000000         1.715482217722096E-093
   80.2631250000000         4.135748644162633E-093
   80.4768750000000         7.197769493869140E-093
   80.6906250000000         1.040998306438104E-092
   80.9043750000000         1.282398128489255E-092
   81.1181250000000         1.297925391694944E-092
   81.3318750000000         8.977122679463463E-093
   81.5456250000000        -1.235840407115774E-093
   81.7593750000000        -1.930171458029109E-092
   81.9731250000000        -4.556775905894675E-092
   82.1868750000000        -7.793270556688278E-092
   82.4006250000000        -1.106012321218872E-091
   82.6143750000000        -1.330991862794779E-091
   82.8281250000000        -1.300919805529660E-091
   83.0418750000000        -8.269966017246883E-092
   83.2556250000000         2.796953707009514E-092
   83.4693750000000         2.145464222600962E-091
   83.6831250000000         4.744076352343538E-091
   83.8968750000000         7.789321183279162E-091
   84.1106250000000         1.063325039289480E-090
   84.3243750000000         1.220901303623944E-090
   84.5381250000000         1.107140530340564E-090
   84.7518750000000         5.594702070882992E-091
   84.9656250000000        -5.622159031084417E-091
   85.1793750000000        -2.312717423424822E-090
   85.3931250000000        -4.581328914875032E-090
   85.6068750000000        -7.008965069519359E-090
   85.8206250000000        -8.929102707579912E-090
   86.0343750000000        -9.370294492442652E-090
   86.2481250000000        -7.164275278359964E-090
   86.4618750000000        -1.198952140642366E-090
   86.6756250000000         9.166700492107781E-090
   86.8893750000000         2.355373411384886E-089
   87.1031250000000         3.997646274358173E-089
   87.3168750000000         5.439829647020325E-089
   87.5306250000000         6.069224076806509E-089
   87.7443750000000         5.131514953442257E-089
   87.9581250000000         1.897387858429180E-089
   88.1718750000000        -4.059492234332057E-089
   88.3856250000000        -1.249287381903618E-088
   88.5993750000000        -2.209112665325950E-088
   88.8131250000000        -3.018990810849780E-088
   89.0268750000000        -3.277699386833482E-088
   89.2406250000000        -2.500861576943620E-088
   89.4543750000000        -2.432151604187640E-089
   89.6681250000000         3.700646778909640E-088
   89.8818750000000         9.032821990326514E-088
   90.0956250000000         1.467766433818207E-087
   90.3093750000000         1.859262593758998E-087
   90.5231250000000         1.780376206691609E-087
   90.7368750000000         8.829896871734367E-088
   90.9506250000000        -1.135797702998453E-087
   91.1643750000000        -4.378119318427876E-087
   91.3781250000000        -8.541638812707598E-087
   91.5918750000000        -1.270620498215102E-086
   91.8056250000000        -1.518340601303275E-086
   92.0193750000000        -1.353559322084021E-086
   92.2331250000000        -4.892616897700290E-087
   92.4468750000000         1.331353630806757E-086
   92.6606250000000         4.213380851519942E-086
   92.8743750000000         7.946954319412916E-086
   93.0881250000000         1.182845604389438E-085
   93.3018750000000         1.451841459889520E-085
   93.5156250000000         1.401586003789662E-085
   93.7293750000000         7.849468100912288E-086
   93.9431250000000        -6.412999456680915E-086
   94.1568750000000        -3.026868731003469E-085
   94.3706250000000        -6.301080586061528E-085
   94.5843750000000        -1.002397953322194E-084
   94.7981250000000        -1.324985933805510E-084
   95.0118750000000        -1.445933054868720E-084
   95.2256250000000        -1.163495931995668E-084
   95.4393750000000        -2.563182503091283E-085
   95.6531250000000         1.456911802501844E-084
   95.8668750000000         4.026255808041034E-084
   96.0806250000000         7.254603857014661E-084
   96.2943750000000         1.057701206687617E-083
   96.5081250000000         1.297137499374554E-083
   96.7218750000000         1.295244477234259E-083
   96.9356250000000         8.711700340550708E-084
   97.1493750000000        -1.536612702429134E-084
   97.3631250000000        -1.896602656248055E-083
   97.5768750000000        -4.331896829373570E-083
   97.7906250000000        -7.195517463385195E-083
   98.0043750000000        -9.897405358496231E-083
   98.2181250000000        -1.147389090175567E-082
   98.4318750000000        -1.062333366325078E-082
   98.6456250000000        -5.871875608839900E-083
   98.8593750000000         4.091841848085073E-083
   99.0731250000000         1.989968305286922E-082
   99.2868750000000         4.083838029364599E-082
   99.5006250000000         6.413721041503658E-082
   99.7143750000000         8.439403813158055E-082
   99.9281250000000         9.340717903660929E-082
   100.141875000000         8.073681149207818E-082
   100.355625000000         3.531563120910510E-082
   100.569375000000        -5.167421706691876E-082
   100.783125000000        -1.826757712582112E-081
   100.996875000000        -3.487841615313642E-081
   101.210625000000        -5.248392627852515E-081
   101.424375000000        -6.660719436407554E-081
   101.638125000000        -7.082978601414694E-081
   101.851875000000        -5.738982944439677E-081
   102.065625000000        -1.855753142126672E-081
   102.279375000000         5.111223757200668E-081
   102.493125000000         1.517412675098271E-080
   102.706875000000         2.746784640247856E-080
   102.920625000000         3.993688617486590E-080
   103.134375000000         4.916363533486647E-080
   103.348125000000         5.047548724697881E-080
   103.561875000000         3.847433875424944E-080
   103.775625000000         8.101040768387140E-081
   103.989375000000        -4.373441236481927E-080
   104.203125000000        -1.160664939764359E-079
   104.416875000000        -2.016358168364603E-079
   104.630625000000        -2.850303034045685E-079
   104.844375000000        -3.419528101351970E-079
   105.058125000000        -3.404989730881756E-079
   105.271875000000        -2.453023978792754E-079
   105.485625000000        -2.512497344368886E-080
   105.699375000000         3.361335611406534E-079
   105.913125000000         8.259845583041229E-079
   106.126875000000         1.389677903903677E-078
   106.340625000000         1.919889572457491E-078
   106.554375000000         2.254529922834779E-078
   106.768125000000         2.188004337546632E-078
   106.981875000000         1.500717467225920E-078
   107.195625000000         9.471978357041818E-081
   107.409375000000        -2.362661498408621E-078
   107.623125000000        -5.504436647479753E-078
   107.836875000000        -9.037349962876498E-078
   108.050625000000        -1.226191754796975E-077
   108.264375000000        -1.415784382218899E-077
   108.478125000000        -1.346843426615797E-077
   108.691875000000        -8.894442556483008E-078
   108.905625000000         5.920918639819113E-079
   109.119375000000         1.532893077827492E-077
   109.333125000000         3.449013814887570E-077
   109.546875000000         5.565039173383856E-077
   109.760625000000         7.452028791009809E-077
   109.974375000000         8.501431842730340E-077
   110.188125000000         7.981544237856131E-077
   110.401875000000         5.156154373555760E-077
   110.615625000000        -5.312315472025814E-078
   110.829375000000        -9.219067941037086E-077
   111.043125000000        -2.036668437275064E-076
   111.256875000000        -3.252416517605451E-076
   111.470625000000        -4.320752880992419E-076
   111.684375000000        -4.896622045579574E-076
   111.898125000000        -4.572737844672288E-076
   112.111875000000        -2.947631947975955E-076
   112.325625000000         2.720093352648309E-077
   112.539375000000         5.142215060560537E-076
   112.753125000000         1.134378960208486E-075
   112.966875000000         1.806494485073841E-075
   113.180625000000         2.394384469174333E-075
   113.394375000000         2.711574342900240E-075
   113.608125000000         2.540650291201305E-075
   113.821875000000         1.669973576664363E-075
   114.035625000000        -5.235965927113545E-077
   114.249375000000        -2.651656882408353E-075
   114.463125000000        -5.956480409638546E-075
   114.676875000000        -9.540381785513787E-075
   114.890625000000        -1.269533521059003E-074
   115.104375000000        -1.445886675109913E-074
   115.318125000000        -1.371487990535220E-074
   115.531875000000        -9.380468503390491E-075
   115.745625000000        -6.766726726575199E-076
   115.959375000000         1.253960506593223E-074
   116.173125000000         2.943061260386023E-074
   116.386875000000         4.789388145621530E-074
   116.600625000000         6.443484926835607E-074
   116.814375000000         7.430035443105860E-074
   117.028125000000         7.196646537965920E-074
   117.241875000000         5.203650532121734E-074
   117.455625000000         1.053714859835058E-074
   117.669375000000        -5.349632360352022E-074
   117.883125000000        -1.363712287900419E-073
   118.096875000000        -2.283699453864682E-073
   118.310625000000        -3.131041669150084E-073
   118.524375000000        -3.680715215767645E-073
   118.738125000000        -3.668452689527086E-073
   118.951875000000        -2.831587027218478E-073
   119.165625000000        -9.684183411233900E-074
   119.379375000000         1.988638134157819E-073
   119.593125000000         5.896071199323209E-073
   119.806875000000         1.033374898473112E-072
   120.020625000000         1.457049879576567E-072
   120.234375000000         1.758242843326496E-072
   120.448125000000         1.814376423572281E-072
   120.661875000000         1.500298157460648E-072
   120.875625000000         7.144130213175334E-073
   121.089375000000        -5.885279708343043E-073
   121.303125000000        -2.362114783778102E-072
   121.516875000000        -4.436949462070109E-072
   121.730625000000        -6.501833703217573E-072
   121.944375000000        -8.107090680388926E-072
   122.158125000000        -8.699146078165466E-072
   122.371875000000        -7.692839730186452E-072
   122.585625000000        -4.582745760267438E-072
   122.799375000000         9.129638082999351E-073
   123.013125000000         8.692348718745061E-072
   123.226875000000         1.812008976074043E-071
   123.440625000000         2.792493251467881E-071
   123.654375000000         3.618684759705291E-071
   123.868125000000         4.045646111184448E-071