  -1.60312500000000         0.000000000000000E+000
  -1.38937500000000         0.000000000000000E+000
  -1.17562500000000         0.000000000000000E+000
 -0.961875000000000         0.000000000000000E+000
 -0.748125000000000         0.000000000000000E+000
 -0.534375000000000         0.000000000000000E+000
 -0.320625000000000         0.000000000000000E+000
 -0.106875000000000         0.000000000000000E+000
  0.106875000000000         0.000000000000000E+000
  0.320625000000000         0.000000000000000E+000
  0.534375000000000         0.000000000000000E+000
  0.748125000000000         0.000000000000000E+000
  0.961875000000000         0.000000000000000E+000
   1.17562500000000         0.000000000000000E+000
   1.38937500000000         0.000000000000000E+000
   1.60312500000000         0.000000000000000E+000
   1.81687500000000         0.000000000000000E+000
   2.03062500000000         0.000000000000000E+000
   2.24437500000000         0.000000000000000E+000
   2.45812500000000         0.000000000000000E+000
   2.67187500000000         0.000000000000000E+000
   2.88562500000000         0.000000000000000E+000
   3.09937500000000         0.000000000000000E+000
   3.31312500000000         0.000000000000000E+000
   3.52687500000000         0.000000000000000E+000
   3.74062500000000         0.000000000000000E+000
   3.95437500000000         0.000000000000000E+000
   4.16812500000000         0.000000000000000E+000
   4.38187500000000         0.000000000000000E+000
   4.59562500000000         0.000000000000000E+000
   4.80937500000000         0.000000000000000E+000
   5.02312500000000         0.000000000000000E+000
   5.23687500000000         0.000000000000000E+000
   5.45062500000000         0.000000000000000E+000
   5.66437500000000         0.000000000000000E+000
   5.87812500000000         0.000000000000000E+000
   6.09187500000000         0.000000000000000E+000
   6.30562500000000         0.000000000000000E+000
   6.51937500000000         0.000000000000000E+000
   6.73312500000000         0.000000000000000E+000
   6.94687500000000         0.000000000000000E+000
   7.16062500000000         0.000000000000000E+000
   7.37437500000000         0.000000000000000E+000
   7.58812500000000         0.000000000000000E+000
   7.80187500000000         0.000000000000000E+000
   8.01562500000000         0.000000000000000E+000
   8.22937500000000         0.000000000000000E+000
   8.44312500000000         0.000000000000000E+000
   8.65687500000000         0.000000000000000E+000
   8.87062500000000         0.000000000000000E+000
   9.08437500000000         0.000000000000000E+000
   9.29812500000000        -1.578324511553503E-215
   9.51187500000000         3.091697485405769E-207
   9.72562500000000         1.784942675504519E-202
   9.93937500000000         2.549624145543759E-200
   10.1531250000000        -5.823559149362332E-198
   10.3668750000000        -1.207896184324890E-195
   10.5806250000000        -5.548258163217802E-194
   10.7943750000000        -1.245939973249930E-192
   11.0081250000000        -2.162367330946023E-191
   11.2218750000000        -5.909309984839846E-190
   11.4356250000000        -2.024522437913092E-188
   11.6493750000000        -5.466430573596304E-187
   11.8631250000000        -1.106049138590687E-185
   12.0768750000000        -1.742608189815846E-184
   12.2906250000000        -2.209740101905747E-183
   12.5043750000000        -2.291648270852312E-182
   12.7181250000000        -1.926483958175871E-181
   12.9318750000000        -1.225992481971178E-180
   13.1456250000000        -3.989937022039001E-180
   13.3593750000000         3.509784849329002E-179
   13.5731250000000         8.925324266717632E-178
   13.7868750000000         1.181621013803429E-176
   14.0006250000000         1.242264875992811E-175
   14.2143750000000         1.136142191458273E-174
   14.4281250000000         9.354558149675620E-174
   14.6418750000000         7.041583073593663E-173
   14.8556250000000         4.879722163802890E-172
   15.0693750000000         3.119908352383855E-171
   15.2831250000000         1.837523970341158E-170
   15.4968750000000         9.910397364481517E-170
   15.7106250000000         4.830184462943773E-169
   15.9243750000000         2.066076093927480E-168
   16.1381250000000         7.185466362970124E-168
   16.3518750000000         1.471541988681293E-167
   16.5656250000000        -4.688479892004856E-167
   16.7793750000000        -8.297079215333503E-166
   16.9931250000000        -6.708778128791604E-165
   17.2068750000000        -4.280733216543061E-164
   17.4206250000000        -2.388314608761929E-163
   17.6343750000000        -1.210104186355620E-162
   17.8481250000000        -5.668080643611310E-162
   18.0618750000000        -2.476731459340052E-161
   18.2756250000000        -1.013940454253262E-160
   18.4893750000000        -3.892290363034404E-160
   18.7031250000000        -1.397596628558336E-159
   18.9168750000000        -4.661917577242136E-159
   19.1306250000000        -1.423977907210305E-158
   19.3443750000000        -3.861688924825869E-158
   19.5581250000000        -8.585966970877086E-158
   19.7718750000000        -1.114527009963395E-157
   19.9856250000000         2.567151015535575E-157
   20.1993750000000         2.870733535737373E-156
   20.4131250000000         1.527663760405096E-155
   20.6268750000000         6.459264884222160E-155
   20.8406250000000         2.390805225307948E-154
   21.0543750000000         8.010052287416202E-154
   21.2681250000000         2.458996411952072E-153
   21.4818750000000         6.921607236835455E-153
   21.6956250000000         1.768163528529300E-152
   21.9093750000000         3.983230244161290E-152
   22.1231250000000         7.311498699253479E-152
   22.3368750000000         7.748236224218515E-152
   22.5506250000000        -1.513113807792791E-151
   22.7643750000000        -1.360925037540120E-150
   22.9781250000000        -5.855894112286393E-150
   23.1918750000000        -1.987679012587621E-149
   23.4056250000000        -5.835140543297765E-149
   23.6193750000000        -1.520601529493102E-148
   23.8331250000000        -3.510029132738016E-148
   24.0468750000000        -6.946814381644877E-148
   24.2606250000000        -1.051861075545762E-147
   24.4743750000000        -5.591330799703074E-148
   24.6881250000000         3.997298995957879E-147
   24.9018750000000         2.224584754785605E-146
   25.1156250000000         7.923694190421221E-146
   25.3293750000000         2.327819029233107E-145
   25.5431250000000         6.006219609874868E-145
   25.7568750000000         1.386692736136986E-144
   25.9706250000000         2.854980503824526E-144
   26.1843750000000         5.093225900700169E-144
   26.3981250000000         7.175425538698036E-144
   26.6118750000000         4.899158378110954E-144
   26.8256250000000        -1.436353446606488E-143
   27.0393750000000        -8.170207915859370E-143
   27.2531250000000        -2.628576672708664E-142
   27.4668750000000        -6.766948464514316E-142
   27.6806250000000        -1.495745802797023E-141
   27.8943750000000        -2.868932313598584E-141
   28.1081250000000        -4.626588525239091E-141
   28.3218750000000        -5.494838636146461E-141
   28.5356250000000        -1.381305731897543E-141
   28.7493750000000         1.777714403280359E-140
   28.9631250000000         7.272475533198940E-140
   29.1768750000000         1.996098614273187E-139
   29.3906250000000         4.487499968555556E-139
   29.6043750000000         8.621502992123745E-139
   29.8181250000000         1.398331724135503E-138
   30.0318750000000         1.751081665986913E-138
   30.2456250000000         9.915005616868000E-139
   30.4593750000000        -3.018023125022946E-138
   30.6731250000000        -1.436326399681854E-137
   30.8868750000000        -3.953851503183813E-137
   31.1006250000000        -8.642949542604429E-137
   31.3143750000000        -1.592866030221975E-136
   31.5281250000000        -2.453148564323251E-136
   31.7418750000000        -2.868807853513770E-136
   31.9556250000000        -1.340731216374131E-136
   32.1693750000000         5.199456116877987E-136
   32.3831250000000         2.195763812523444E-135
   32.5968750000000         5.603367348214497E-135
   32.8106250000000         1.137957712681325E-134
   33.0243750000000         1.931448178188476E-134
   33.2381250000000         2.668695537768546E-134
   33.4518750000000         2.535159803433946E-134
   33.6656250000000        -2.367659822597273E-135
   33.8793750000000        -8.765255899011444E-134
   34.0931250000000        -2.748941606711483E-133
   34.3068750000000        -6.078564186961295E-133
   34.5206250000000        -1.085291543209984E-132
   34.7343750000000        -1.560215399928553E-132
   34.9481250000000        -1.553578532952268E-132
   35.1618750000000         2.865281695988971E-134
   35.3756250000000         5.211374375067734E-132
   35.5893750000000         1.704288004818820E-131
   35.8031250000000         3.880650817915173E-131
   36.0168750000000         7.099260874096846E-131
   36.2306250000000         1.036838488053962E-130
   36.4443750000000         1.011153705410336E-130
   36.6581250000000        -2.433092610596872E-131
   36.8718750000000        -4.464644849955052E-130
   37.0856250000000        -1.450308630037735E-129
   37.2993750000000        -3.394974705934610E-129
   37.5131250000000        -6.496130152175289E-129
   37.7268750000000        -1.021181407798586E-128
   37.9406250000000        -1.191399867885431E-128
   38.1543750000000        -4.530017829364658E-129
   38.3681250000000         2.680237358764031E-128
   38.5818750000000         1.078231866498998E-127
   38.7956250000000         2.739738068598057E-127
   39.0093750000000         5.558576765094863E-127
   39.2231250000000         9.347645019108853E-127
   39.4368750000000         1.244162944894167E-126
   39.6506250000000         9.932904197377501E-127
   39.8643750000000        -8.855155117158946E-127
   40.0781250000000        -6.282081957045239E-126
   40.2918750000000        -1.788052783302274E-125
   40.5056250000000        -3.827108630203667E-125
   40.7193750000000        -6.716684600511985E-125
   40.9331250000000        -9.528251079844466E-125
   41.1468750000000        -9.354550308273227E-125
   41.3606250000000         2.054359705247469E-126
   41.5743750000000         3.048595782104720E-124
   41.7881250000000         9.759889889077481E-124
   42.0018750000000         2.174808087363777E-123
   42.2156250000000         3.907556917448438E-123
   42.4293750000000         5.703224942207534E-123
   42.6431250000000         6.058648397195483E-123
   42.8568750000000         1.685706657393251E-123
   43.0706250000000        -1.316435235882142E-122
   43.2843750000000        -4.654833472345730E-122
   43.4981250000000        -1.063509202705990E-121
   43.7118750000000        -1.930812395212260E-121
   43.9256250000000        -2.849929007466799E-121
   44.1393750000000        -3.134708027028861E-121
   44.3531250000000        -1.309541160780954E-121
   44.5668750000000         5.158079522928609E-121
   44.7806250000000         1.974908293883568E-120
   44.9943750000000         4.579795369081108E-120
   45.2081250000000         8.348479714652579E-120
   45.4218750000000         1.238472653308677E-119
   45.6356250000000         1.392077093412300E-119
   45.8493750000000         7.117931080571957E-120
   46.0631250000000        -1.786021672409330E-119
   46.2768750000000        -7.429149996674291E-119
   46.4906250000000        -1.746738729580607E-118
   46.7043750000000        -3.196827132105412E-118
   46.9181250000000        -4.769077178055852E-118
   47.1318750000000        -5.478837460459097E-118
   47.3456250000000        -3.281912085547370E-118
   47.5593750000000         5.213840745930279E-118
   47.7731250000000         2.452694179433198E-117
   47.9868750000000         5.888141724202305E-117
   48.2006250000000         1.086320166854322E-116
   48.4143750000000         1.635710431156717E-116
   48.6281250000000         1.928150770606603E-116
   48.8418750000000         1.329085826162242E-116
   49.0556250000000        -1.203463104154973E-116
   49.2693750000000        -7.046797608332059E-116
   49.4831250000000        -1.749398184085623E-115
   49.6968750000000        -3.272904076318726E-115
   49.9106250000000        -4.995161086091852E-115
   50.1243750000000        -6.060315334953726E-115
   50.3381250000000        -4.717666269659754E-115
   50.5518750000000         1.889931305576808E-115
   50.7656250000000         1.752758114150344E-114
   50.9793750000000         4.577360680432790E-114
   51.1931250000000         8.740441713725647E-114
   51.4068750000000         1.356980297158272E-113
   51.6206250000000         1.696104834960169E-113
   51.8343750000000         1.460681458167007E-113
   52.0481250000000        -5.029832560721935E-115
   52.2618750000000        -3.760624814460558E-113
   52.4756250000000        -1.056234742022463E-112
   52.6893750000000        -2.071828992257494E-112
   52.9031250000000        -3.280619686721957E-112
   53.1168750000000        -4.220856652026102E-112
   53.3306250000000        -3.943342673031409E-112
   53.5443750000000        -9.044292730090591E-113
   53.7581250000000         6.932754228554417E-112
   53.9718750000000         2.156618467419564E-111
   54.1856250000000         4.372492759772767E-111
   54.3993750000000         7.072787521871316E-111
   54.6131250000000         9.346693382458294E-111
   54.8268750000000         9.310480944186200E-111
   55.0406250000000         3.901275587045859E-111
   55.2543750000000        -1.092574822198282E-110
   55.4681250000000        -3.918687204204594E-110
   55.6818750000000        -8.257165895861682E-110
   55.8956250000000        -1.365038420498320E-109
   56.1093750000000        -1.846795384867736E-109
   56.3231250000000        -1.931963501702450E-109
   56.5368750000000        -1.070018944362263E-109
   56.7506250000000         1.465044706535885E-109
   56.9643750000000         6.398446795118839E-109
   57.1781250000000         1.406162027687114E-108
   57.3918750000000         2.373035239711929E-108
   57.6056250000000         3.272377636549511E-108
   57.8193750000000         3.545785136841232E-108
   58.0331250000000         2.290258929211291E-108
   58.2468750000000        -1.678849866706897E-108
   58.4606250000000        -9.542029695154643E-108
   58.6743750000000        -2.185448930119060E-107
   58.8881250000000        -3.752161497936480E-107
   59.1018750000000        -5.243419193751987E-107
   59.3156250000000        -5.807632270191817E-107
   59.5293750000000        -4.079287269894557E-107
   59.7431250000000         1.715082683958241E-107
   59.9568750000000         1.332145565329437E-106
   60.1706250000000         3.154135271549305E-106
   60.3843750000000         5.475500299880631E-106
   60.5981250000000         7.700231707041678E-106
   60.8118750000000         8.609420618906019E-106
   61.0256250000000         6.273707257552477E-106
   61.2393750000000        -1.776635525910303E-106
   61.4531250000000        -1.792399680528981E-105
   61.6668750000000        -4.318625469946672E-105
   61.8806250000000        -7.521050285928725E-105
   62.0943750000000        -1.057314550463385E-104
   62.3081250000000        -1.181620020745737E-104
   62.5218750000000        -8.664006699211471E-105
   62.7356250000000         2.142942823938189E-105
   62.9493750000000         2.368115227207442E-104
   63.1631250000000         5.715481550656049E-104
   63.3768750000000         9.929857195814902E-104
   63.5906250000000         1.391539251616658E-103
   63.8043750000000         1.550978719283836E-103
   64.0181250000000         1.138068619987053E-103
   64.2318750000000        -2.631300873694519E-104
   64.4456250000000        -3.041610917658697E-103
   64.6593750000000        -7.347166231574326E-103
   64.8731250000000        -1.276790748514600E-102
   65.0868750000000        -1.793325007898314E-102
   65.3006250000000        -2.014913214138954E-102
   65.5143750000000        -1.526667653880631E-102
   65.7281250000000         1.916079192690710E-103
   65.9418750000000         3.635776642398522E-102
   66.1556250000000         9.025938193417561E-102
   66.3693750000000         1.592299735330550E-101
   66.5831250000000         2.275159709951895E-101
   66.7968750000000         2.634741542976205E-101
   67.0106250000000         2.175302990632740E-101
   67.2243750000000         2.599073600309803E-102
   67.4381250000000        -3.751606113012579E-101
   67.6518750000000        -1.022613252994380E-100
   67.8656250000000        -1.882530395903367E-100
   68.0793750000000        -2.795058849830802E-100
   68.2931250000000        -3.418120019168067E-100
   68.5068750000000        -3.193413926251536E-100
   68.7206250000000        -1.370149992676192E-100
   68.9343750000000         2.868177079894440E-100
   69.1481250000000         1.012814249911612E-099
   69.3618750000000         2.035356217252243E-099
   69.5756250000000         3.221211422984367E-099
   69.7893750000000         4.241753538255985E-099
   70.0031250000000         4.519751776187644E-099
   70.2168750000000         3.225259394491178E-099
   70.4306250000000        -6.325549327647892E-100
   70.6443750000000        -7.965435006806094E-099
   70.8581250000000        -1.917548766519545E-098
   71.0718750000000        -3.352607480524023E-098
   71.2856250000000        -4.837402788001434E-098
   71.4993750000000        -5.842829613549130E-098
   71.7131250000000        -5.533653564957021E-098
   71.9268750000000        -2.804604253511929E-098
   72.1406250000000         3.550603765440590E-098
   72.3543750000000         1.448159895141001E-097
   72.5681250000000         3.009883636625087E-097
   72.7818750000000         4.887926606627344E-097
   72.9956250000000         6.676012406913683E-097
   73.2093750000000         7.634712102676241E-097
   73.4231250000000         6.661879531097643E-097
   73.6368750000000         2.366462441457935E-097
   73.8506250000000        -6.690251172567603E-097
   74.0643750000000        -2.152488639974069E-096
   74.2781250000000        -4.199925667850055E-096
   74.4918750000000        -6.585144757924969E-096
   74.7056250000000        -8.762226920781005E-096
   74.9193750000000        -9.775861690799920E-096
   75.1331250000000        -8.235831208557158E-096
   75.3468750000000        -2.420317764351366E-096
   75.5606250000000         9.415466571701971E-096
   75.7743750000000         2.845303581730256E-095
   75.9881250000000         5.440728773430908E-095
   76.2018750000000         8.434174456948385E-095
   76.4156250000000         1.113667518054042E-094
   76.6293750000000         1.235695672207509E-094
   76.8431250000000         1.037504151121480E-094
   77.0568750000000         3.076100709755515E-095
   77.2706250000000        -1.166192863753719E-094
   77.4843750000000        -3.524029819518067E-094
   77.6981250000000        -6.722782663859676E-094
   77.9118750000000        -1.039196653706970E-093
   78.1256250000000        -1.367837515475736E-093
   78.3393750000000        -1.512416170714944E-093
   78.5531250000000        -1.265012120311788E-093
   78.7668750000000        -3.741080533415926E-094
   78.9806250000000         1.405731852826185E-093
   79.1943750000000         4.223716375021339E-093
   79.4081250000000         7.999214721211510E-093
   79.6218750000000         1.225453487628947E-092
   79.8356250000000         1.594430632702756E-092
   80.0493750000000         1.733858878418623E-092
   80.2631250000000         1.404612806984101E-092
   80.4768750000000         3.287279549791371E-093
   80.6906250000000        -1.747060032147475E-092
   80.9043750000000        -4.943689944293859E-092
   81.1181250000000        -9.099341597439986E-092
   81.3318750000000        -1.359369509736222E-091
   81.5456250000000        -1.718772646428474E-091
   81.7593750000000        -1.794777536851478E-091
   81.9731250000000        -1.334871344598150E-091
   82.1868750000000        -6.644479673191057E-093
   82.4006250000000         2.226040947417927E-091
   82.6143750000000         5.582333820945167E-091
   82.8281250000000         9.714603939178044E-091
   83.0418750000000         1.384945836042636E-090
   83.2556250000000         1.661397362824794E-090
   83.4693750000000         1.603979678599371E-090
   83.6831250000000         9.775484038287027E-091
   83.8968750000000        -4.406210377373951E-091
   84.1106250000000        -2.775645847999174E-090
   84.3243750000000        -5.938774463097040E-090
   84.5381250000000        -9.497011455835498E-090
   84.7518750000000        -1.256352736378597E-089
   84.9656250000000        -1.376293090101461E-089
   85.1793750000000        -1.133991250386967E-089
   85.3931250000000        -3.480584947307991E-090
   85.6068750000000         1.110765878778484E-089
   85.8206250000000         3.236980082919864E-089
   86.0343750000000         5.793970928918562E-089
   86.2481250000000         8.228017205726009E-089
   86.4618750000000         9.631034769059988E-089
   86.6756250000000         8.801627280032158E-089
   86.8893750000000         4.455541209653366E-089
   87.1031250000000        -4.379373954349240E-089
   87.3168750000000        -1.778957366166063E-088
   87.5306250000000        -3.429931514025781E-088
   87.7443750000000        -5.026187551230294E-088
   87.9581250000000        -5.959310278577403E-088
   88.1718750000000        -5.420337727312520E-088
   88.3856250000000        -2.549562599405906E-088
   88.5993750000000         3.281904457954315E-088
   88.8131250000000         1.206349045879692E-087
   89.0268750000000         2.266508282750529E-087
   89.2406250000000         3.241057105592817E-087
   89.4543750000000         3.690632791608611E-087
   89.6681250000000         3.038611860526716E-087
   89.8818750000000         6.843369492177345E-088
   90.0956250000000        -3.786203204426979E-087
   90.3093750000000        -1.029529872730878E-086
   90.5231250000000        -1.791457490402176E-086
   90.7368750000000        -2.454418649219862E-086
   90.9506250000000        -2.677958702386451E-086
   91.1643750000000        -2.016232832202017E-086
   91.3781250000000        -2.290865923763128E-089
   91.5918750000000         3.693148964397545E-086
   91.8056250000000         9.028449255386351E-086
   92.0193750000000         1.531036783901486E-085
   92.2331250000000         2.093099827256890E-085
   92.4468750000000         2.323120331340571E-085
   92.6606250000000         1.863785774067457E-085
   92.8743750000000         3.237717048549523E-086
   93.0881250000000        -2.607939634306710E-085
   93.3018750000000        -6.987477836734738E-085
   93.5156250000000        -1.239648411692790E-084
   93.7293750000000        -1.771994253681365E-084
   93.9431250000000        -2.099675452031998E-084
   94.1568750000000        -1.944979872858369E-084
   94.3706250000000        -9.820448649003302E-085
   94.5843750000000         1.087829592317088E-084
   94.7981250000000         4.413328888508188E-084
   95.0118750000000         8.828901751622984E-084
   95.2256250000000         1.367374431929936E-083
   95.4393750000000         1.764212980129394E-083
   95.6531250000000         1.873783146082764E-083
   95.8668750000000         1.442367182374195E-083
   96.0806250000000         2.058701924292683E-084
   96.2943750000000        -2.031219797937700E-083
   96.5081250000000        -5.281993142827831E-083
   96.7218750000000        -9.240317002321808E-083
   96.9356250000000        -1.314881129633152E-082
   97.1493750000000        -1.571733019707193E-082
   97.3631250000000        -1.515357832348546E-082
   97.5768750000000        -9.374813958726158E-083
   97.7906250000000         3.539856807098878E-083
   98.0043750000000         2.463176721675128E-082
   98.2181250000000         5.312087070651358E-082
   98.4318750000000         8.537931405149764E-082
   98.6456250000000         1.140811195789821E-081
   98.8593750000000         1.279107827581092E-081
   99.0731250000000         1.122994378795283E-081
   99.2868750000000         5.165640859043218E-082
   99.5006250000000        -6.658053893853928E-082
   99.7143750000000        -2.460914318720207E-081
   99.9281250000000        -4.745886053048217E-081
   100.141875000000        -7.168195394344533E-081
   100.355625000000        -9.098166107709225E-081
   100.569375000000        -9.632875683380142E-081
   100.783125000000        -7.683860022704667E-081
   100.996875000000        -2.177044228196743E-081
   101.210625000000         7.621609744867025E-081
   101.424375000000         2.166968612122203E-080
   101.638125000000         3.865815416943953E-080
   101.851875000000         5.557641164858626E-080
   102.065625000000         6.749420820386365E-080
   102.279375000000         6.776077085089454E-080
   102.493125000000         4.882605454453827E-080
   102.706875000000         3.837244874339141E-081
   102.920625000000        -7.096426223205564E-080
   103.134375000000        -1.732339604886449E-079
   103.348125000000        -2.913826565130708E-079
   103.561875000000        -4.021126389523295E-079
   103.775625000000        -4.697438286754982E-079
   103.989375000000        -4.486112727397325E-079
   104.203125000000        -2.897245100708241E-079
   104.416875000000         4.760080800336151E-080
   104.630625000000         5.793942442456516E-079
   104.844375000000         1.277687494192945E-078
   105.058125000000         2.051754468848616E-078
   105.271875000000         2.735465391234204E-078
   105.485625000000         3.087853031538034E-078
   105.699375000000         2.814513048481300E-078
   105.913125000000         1.616193119219363E-078
   106.126875000000        -7.328160223409918E-079
   106.340625000000        -4.280484375807163E-078
   106.554375000000        -8.780349469097419E-078
   106.768125000000        -1.358664965017756E-077
   106.981875000000        -1.759630367876703E-077
   107.195625000000        -1.928006266044057E-077
   107.409375000000        -1.684520605572652E-077
   107.623125000000        -8.560870915782388E-078
   107.836875000000         6.748786546090455E-078
   108.050625000000         2.908007383329478E-077
   108.264375000000         5.658544274683379E-077
   108.478125000000         8.502214624438705E-077
   108.691875000000         1.075211974592378E-076
   108.905625000000         1.149138153978994E-076
   109.119375000000         9.683649027177523E-077
   109.333125000000         4.375327715166124E-077
   109.546875000000        -5.012922750829778E-077
   109.760625000000        -1.833232113058611E-076
   109.974375000000        -3.434718444036230E-076
   110.188125000000        -5.046070401261059E-076
   110.401875000000        -6.264072624510446E-076
   110.615625000000        -6.567108863475073E-076
   110.829375000000        -5.383739353108947E-076
   111.043125000000        -2.210297861967156E-076
   111.256875000000         3.226411505892073E-076
   111.470625000000         1.077866718757497E-075
   111.684375000000         1.969297062058214E-075
   111.898125000000         2.847993862402071E-075
   112.111875000000         3.489971777259501E-075
   112.325625000000         3.612602998923252E-075
   112.539375000000         2.913977095127790E-075
   112.753125000000         1.137210261491412E-075
   112.966875000000        -1.843450842635771E-075
   113.180625000000        -5.924833987884613E-075
   113.394375000000        -1.068338676077765E-074
   113.608125000000        -1.531553996841162E-074
   113.821875000000        -1.864027132092188E-074
   114.035625000000        -1.919417775756987E-074
   114.249375000000        -1.544190809546543E-074
   114.463125000000        -6.108198185179373E-075
   114.676875000000         9.388416555909745E-075
   114.890625000000         3.045415704397839E-074
   115.104375000000         5.488224640757363E-074
   115.318125000000         7.858389644599918E-074
   115.531875000000         9.563305066220735E-074
   115.745625000000         9.876503611464525E-074
   115.959375000000         8.042909174024382E-074
   116.173125000000         3.441220345519436E-074
   116.386875000000        -4.207354966441486E-074
   116.600625000000        -1.461063607824793E-073
   116.814375000000        -2.670090727753921E-073
   117.028125000000        -3.851265498617414E-073
   117.241875000000        -4.720910319493837E-073
   117.455625000000        -4.932059063151939E-073
   117.669375000000        -4.123838825681932E-073
   117.883125000000        -1.996935570718868E-073
   118.096875000000         1.589985583067345E-073
   118.310625000000         6.515096882713236E-073
   118.524375000000         1.229913773910591E-072
   118.738125000000         1.804815181025109E-072
   118.951875000000         2.246277265563242E-072
   119.165625000000         2.394200557707046E-072
   119.379375000000         2.080096499866200E-072
   119.593125000000         1.160550668428619E-072
   119.806875000000        -4.397725919050169E-073
   120.020625000000        -2.680773267202127E-072
   120.234375000000        -5.363633440807481E-072
   120.448125000000        -8.102854952592175E-072
   120.661875000000        -1.032647299408872E-071
   120.875625000000        -1.131684100562850E-071
   121.089375000000        -1.030106102071935E-071
   121.303125000000        -6.593435033783171E-072
   121.516875000000         2.177859776515396E-073
   121.730625000000         1.005989702625459E-071
   121.944375000000         2.217602034173520E-071
   122.158125000000         3.498346558884981E-071
   122.371875000000         4.604576033793640E-071
   122.585625000000         5.221415078605216E-071
   122.799375000000         4.998297660140772E-071
   123.013125000000         3.607769652857821E-071
   123.226875000000         8.253653966811263E-072
   123.440625000000        -3.377017577378145E-071
   123.654375000000        -8.737980928329475E-071
   123.868125000000        -1.463345975933781E-070