  -1.60312500000000         0.000000000000000E+000
  -1.38937500000000         0.000000000000000E+000
  -1.17562500000000         0.000000000000000E+000
 -0.961875000000000         0.000000000000000E+000
 -0.748125000000000         0.000000000000000E+000
 -0.534375000000000         0.000000000000000E+000
 -0.320625000000000         0.000000000000000E+000
 -0.106875000000000         0.000000000000000E+000
  0.106875000000000         0.000000000000000E+000
  0.320625000000000         0.000000000000000E+000
  0.534375000000000         0.000000000000000E+000
  0.748125000000000         0.000000000000000E+000
  0.961875000000000         0.000000000000000E+000
   1.17562500000000         0.000000000000000E+000
   1.38937500000000         0.000000000000000E+000
   1.60312500000000         0.000000000000000E+000
   1.81687500000000         0.000000000000000E+000
   2.03062500000000         0.000000000000000E+000
   2.24437500000000         0.000000000000000E+000
   2.45812500000000         0.000000000000000E+000
   2.67187500000000         0.000000000000000E+000
   2.88562500000000         0.000000000000000E+000
   3.09937500000000         0.000000000000000E+000
   3.31312500000000         0.000000000000000E+000
   3.52687500000000         0.000000000000000E+000
   3.74062500000000         0.000000000000000E+000
   3.95437500000000         0.000000000000000E+000
   4.16812500000000         0.000000000000000E+000
   4.38187500000000         0.000000000000000E+000
   4.59562500000000         0.000000000000000E+000
   4.80937500000000         0.000000000000000E+000
   5.02312500000000         0.000000000000000E+000
   5.23687500000000         0.000000000000000E+000
   5.45062500000000         0.000000000000000E+000
   5.66437500000000         0.000000000000000E+000
   5.87812500000000         0.000000000000000E+000
   6.09187500000000         0.000000000000000E+000
   6.30562500000000         0.000000000000000E+000
   6.51937500000000         0.000000000000000E+000
   6.73312500000000         0.000000000000000E+000
   6.94687500000000         0.000000000000000E+000
   7.16062500000000         0.000000000000000E+000
   7.37437500000000         0.000000000000000E+000
   7.58812500000000         0.000000000000000E+000
   7.80187500000000         0.000000000000000E+000
   8.01562500000000         0.000000000000000E+000
   8.22937500000000         0.000000000000000E+000
   8.44312500000000         0.000000000000000E+000
   8.65687500000000         0.000000000000000E+000
   8.87062500000000         0.000000000000000E+000
   9.08437500000000         0.000000000000000E+000
   9.29812500000000         0.000000000000000E+000
   9.51187500000000         6.884987449732833E-217
   9.72562500000000        -2.491729285035621E-210
   9.93937500000000         1.000583355897643E-205
   10.1531250000000        -2.783997894989058E-204
   10.3668750000000         1.269118844784909E-200
   10.5806250000000         1.489225844086952E-198
   10.7943750000000         6.185663604491185E-197
   11.0081250000000         1.194939224487780E-195
   11.2218750000000         7.556370851766891E-195
   11.4356250000000        -9.946362771922772E-194
   11.6493750000000         3.107956681783140E-193
   11.8631250000000         1.465847754095796E-190
   12.0768750000000         5.104386505936976E-189
   12.2906250000000         1.068242653302621E-187
   12.5043750000000         1.633550702353491E-186
   12.7181250000000         1.941024166848345E-185
   12.9318750000000         1.800501856734024E-184
   13.1456250000000         1.207462213811134E-183
   13.3593750000000         3.366199219466478E-183
   13.5731250000000        -5.592507278332640E-182
   13.7868750000000        -1.266079258508042E-180
   14.0006250000000        -1.675380338710707E-179
   14.2143750000000        -1.786374115068719E-178
   14.4281250000000        -1.667848461324778E-177
   14.6418750000000        -1.412694793519336E-176
   14.8556250000000        -1.105365073133815E-175
   15.0693750000000        -8.067036554011867E-175
   15.2831250000000        -5.517173197995055E-174
   15.4968750000000        -3.541123642998582E-173
   15.7106250000000        -2.130723234887111E-172
   15.9243750000000        -1.197694843682912E-171
   16.1381250000000        -6.246619339229796E-171
   16.3518750000000        -2.985335891528930E-170
   16.5656250000000        -1.275402246905193E-169
   16.7793750000000        -4.595908206762958E-169
   16.9931250000000        -1.145471691385352E-168
   17.2068750000000         6.730181405604100E-169
   17.4206250000000         3.461192431448690E-167
   17.6343750000000         3.067174274386891E-166
   17.8481250000000         2.017196981244922E-165
   18.0618750000000         1.139077885678394E-164
   18.2756250000000         5.789190893261860E-164
   18.4893750000000         2.701777566444336E-163
   18.7031250000000         1.168071059828834E-162
   18.9168750000000         4.688868242762527E-162
   19.1306250000000         1.741917184490877E-161
   19.3443750000000         5.926484755278847E-161
   19.5581250000000         1.802805201819007E-160
   19.7718750000000         4.620392276358083E-160
   19.9856250000000         8.091173430339224E-160
   20.1993750000000        -4.741113552779373E-160
   20.4131250000000        -1.359434562186214E-158
   20.6268750000000        -8.565969837217035E-158
   20.8406250000000        -4.044606695757964E-157
   21.0543750000000        -1.642151443168195E-156
   21.2681250000000        -5.988959262780955E-156
   21.4818750000000        -1.994674090417665E-155
   21.6956250000000        -6.089107874573051E-155
   21.9093750000000        -1.692159384867362E-154
   22.1231250000000        -4.187600252204140E-154
   22.3368750000000        -8.702100712509191E-154
   22.5506250000000        -1.228316251524733E-153
   22.7643750000000         6.314711186253585E-154
   22.9781250000000         1.380150699914028E-152
   23.1918750000000         7.000951959798895E-152
   23.4056250000000         2.664046387693476E-151
   23.6193750000000         8.705385070803473E-151
   23.8331250000000         2.548479381900101E-150
   24.0468750000000         6.784223209089744E-150
   24.2606250000000         1.644086313804834E-149
   24.4743750000000         3.585873955317826E-149
   24.6881250000000         6.815412267748889E-149
   24.9018750000000         1.031013340681481E-148
   25.1156250000000         8.057037364007525E-149
   25.3293750000000        -1.966569615013971E-148
   25.5431250000000        -1.224676830046126E-147
   25.7568750000000        -3.979083707138622E-147
   25.9706250000000        -9.708489087963467E-147
   26.1843750000000        -1.782836148036716E-146
   26.3981250000000        -1.748529172370901E-146
   26.6118750000000         3.829663599294639E-146
   26.8256250000000         3.000914776825222E-145
   27.0393750000000         1.176613234699950E-144
   27.2531250000000         3.644895675808710E-144
   27.4668750000000         9.777103747881223E-144
   27.6806250000000         2.340702436009399E-143
   27.8943750000000         5.034957249820106E-143
   28.1081250000000         9.621518346846895E-143
   28.3218750000000         1.568060431319223E-142
   28.5356250000000         1.903284341550710E-142
   28.7493750000000         5.185564120129312E-143
   28.9631250000000        -6.384830656868286E-142
   29.1768750000000        -2.719206439034033E-141
   29.3906250000000        -7.781706187243820E-141
   29.6043750000000        -1.835359315871823E-140
   29.8181250000000        -3.739490383395291E-140
   30.0318750000000        -6.573234739371101E-140
   30.2456250000000        -9.471837869758866E-140
   30.4593750000000        -8.967363827167244E-140
   30.6731250000000         4.143357416905433E-140
   30.8868750000000         4.971698105282628E-139
   31.1006250000000         1.640427777241525E-138
   31.3143750000000         4.022162929085619E-138
   31.5281250000000         8.258611999713480E-138
   31.7418750000000         1.453057396074234E-137
   31.9556250000000         2.131504613122571E-137
   32.1693750000000         2.283715238912384E-137
   32.3831250000000         4.857489823940835E-138
   32.5968750000000        -6.076602449686175E-137
   32.8106250000000        -2.200314686039482E-136
   33.0243750000000        -5.318623756699216E-136
   33.2381250000000        -1.039090566937156E-135
   33.4518750000000        -1.690113875065282E-135
   33.6656250000000        -2.178812499590313E-135
   33.8793750000000        -1.679561502547842E-135
   34.0931250000000         1.492627745097020E-135
   34.3068750000000         1.012412033057704E-134
   34.5206250000000         2.778225253993116E-134
   34.7343750000000         5.697876172457915E-134
   34.9481250000000         9.421207953278882E-134
   35.1618750000000         1.197446559833597E-133
   35.3756250000000         8.034553709948522E-134
   35.5893750000000        -1.337043329606786E-133
   35.8031250000000        -7.069512332757248E-133
   36.0168750000000        -1.881645633065234E-132
   36.2306250000000        -3.836050667738448E-132
   36.4443750000000        -6.328951763721628E-132
   36.6581250000000        -7.909310234738403E-132
   36.8718750000000        -4.456748535274363E-132
   37.0856250000000         1.303598279342099E-131
   37.2993750000000         6.089545424311608E-131
   37.5131250000000         1.631908111221405E-130
   37.7268750000000         3.443616645299251E-130
   37.9406250000000         6.019933254756449E-130
   38.1543750000000         8.388804482332265E-130
   38.3681250000000         7.258305609158438E-130
   38.5818750000000        -5.280220915943342E-130
   38.7956250000000        -4.474642236373634E-129
   39.0093750000000        -1.363506615431458E-128
   39.2231250000000        -3.114598212490730E-128
   39.4368750000000        -5.881492562751539E-128
   39.6506250000000        -9.174119837387070E-128
   39.8643750000000        -1.068672509882641E-127
   40.0781250000000        -4.296596546880590E-128
   40.2918750000000         2.272663933687878E-127
   40.5056250000000         9.223373911610432E-127
   40.7193750000000         2.341240697337288E-126
   40.9331250000000         4.743549833845481E-126
   41.1468750000000         7.989087359820001E-126
   41.3606250000000         1.074913545482104E-125
   41.5743750000000         9.104748576214682E-126
   41.7881250000000        -5.457996505997082E-126
   42.0018750000000        -4.803302191685815E-125
   42.2156250000000        -1.402898287886699E-124
   42.4293750000000        -3.041420372854017E-124
   42.6431250000000        -5.414338532775733E-124
   42.8568750000000        -7.888305450182376E-124
   43.0706250000000        -8.373533929195001E-124
   43.2843750000000        -2.164682270062913E-124
   43.4981250000000         1.925328120412846E-123
   43.7118750000000         6.843041191603374E-123
   43.9256250000000         1.590354414007027E-122
   44.1393750000000         2.960385295786311E-122
   44.3531250000000         4.537928854712742E-122
   44.5668750000000         5.370472230944506E-122
   44.7806250000000         3.248603859492509E-122
   44.9943750000000        -5.881359190831937E-122
   45.2081250000000        -2.808723340293927E-121
   45.4218750000000        -7.026277154173614E-121
   45.6356250000000        -1.359893201812045E-120
   45.8493750000000        -2.162944897677639E-120
   46.0631250000000        -2.733064174151640E-120
   46.2768750000000        -2.168417852515294E-120
   46.4906250000000         1.203187381092077E-120
   46.7043750000000         9.912462332175012E-120
   46.9181250000000         2.692078418374359E-119
   47.1318750000000         5.408453761871961E-119
   47.3456250000000         8.872783924003547E-119
   47.5593750000000         1.176118791598003E-118
   47.7731250000000         1.083260584322997E-118
   47.9868750000000         1.123104971415567E-121
   48.2006250000000        -2.999885771129549E-118
   48.4143750000000        -9.036887633989446E-118
   48.6281250000000        -1.891180290500540E-117
   48.8418750000000        -3.198592495356038E-117
   49.0556250000000        -4.420377562390843E-117
   49.2693750000000        -4.527144451461773E-117
   49.4831250000000        -1.560483376943640E-117
   49.6968750000000         7.517173211204704E-117
   49.9106250000000         2.646025816742670E-116
   50.1243750000000         5.829025772566129E-116
   50.3381250000000         1.020164654199890E-115
   50.5518750000000         1.468627123497342E-115
   50.7656250000000         1.639835718793683E-115
   50.9793750000000         9.731663387653945E-116
   51.1931250000000        -1.416600132603004E-115
   51.4068750000000        -6.657622707910020E-115
   51.6206250000000        -1.575355398611943E-114
   51.8343750000000        -2.873546512566315E-114
   52.0481250000000        -4.315669273852287E-114
   52.2618750000000        -5.191289533054996E-114
   52.4756250000000        -4.077298217301044E-114
   52.6893750000000         1.324487503014217E-114
   52.9031250000000         1.403957166994247E-113
   53.1168750000000         3.700395801759804E-113
   53.3306250000000         7.111734575693659E-113
   53.5443750000000         1.117412201423784E-112
   53.7581250000000         1.435611991052969E-112
   53.9718750000000         1.346067701262995E-112
   54.1856250000000         3.183044321710051E-113
   54.3993750000000        -2.369590681877736E-112
   54.6131250000000        -7.471874375948640E-112
   54.8268750000000        -1.537815510737276E-111
   55.0406250000000        -2.538607623397182E-111
   55.2543750000000        -3.461794687059815E-111
   55.4681250000000        -3.672536504194885E-111
   55.6818750000000        -2.083677582866682E-111
   55.8956250000000         2.833782653930159E-111
   56.1093750000000         1.277902030496463E-110
   56.3231250000000         2.890061315348793E-110
   56.5368750000000         5.044630096444888E-110
   56.7506250000000         7.271925272955977E-110
   56.9643750000000         8.457438466904540E-110
   57.1781250000000         6.623033971228792E-110
   57.3918750000000        -1.103221807056666E-110
   57.6056250000000        -1.807847460004823E-109
   57.8193750000000        -4.697421940031366E-109
   58.0331250000000        -8.752860270380506E-109
   58.2468750000000        -1.330926266873942E-108
   58.4606250000000        -1.663152304618830E-108
   58.6743750000000        -1.551694213705713E-108
   58.8881250000000        -5.176643136982831E-109
   59.1018750000000         2.021533667958734E-108
   59.3156250000000         6.580374301233734E-108
   59.5293750000000         1.326756694531062E-107
   59.7431250000000         2.126116120780635E-107
   59.9568750000000         2.814444278846367E-107
   60.1706250000000         2.927456404438090E-107
   60.3843750000000         1.753305407202295E-107
   60.5981250000000        -1.599122651555907E-107
   60.8118750000000        -7.968375012768624E-107
   61.0256250000000        -1.767736811977801E-106
   61.2393750000000        -2.981006054950644E-106
   61.4531250000000        -4.129376548456284E-106
   61.6668750000000        -4.601860033929961E-106
   61.8806250000000        -3.445704933994399E-106
   62.0943750000000         5.498082725357200E-107
   62.3081250000000         8.557832952849908E-106
   62.5218750000000         2.112281377996195E-105
   62.7356250000000         3.724252469048728E-105
   62.9493750000000         5.321503759577873E-105
   63.1631250000000         6.155022453699231E-105
   63.3768750000000         5.052716604054297E-105
   63.5906250000000         5.276760412440212E-106
   63.8043750000000        -8.854233804916882E-105
   64.0181250000000        -2.375289816460838E-104
   64.2318750000000        -4.295370992286569E-104
   64.4456250000000        -6.201665586509719E-104
   64.6593750000000        -7.205221425854946E-104
   64.8731250000000        -5.932829222615686E-104
   65.0868750000000        -6.741848449417136E-105
   65.3006250000000         1.016306623634855E-103
   65.5143750000000         2.718935936521118E-103
   65.7281250000000         4.874744009741684E-103
   65.9418750000000         6.937539566531259E-103
   66.1556250000000         7.847905117424727E-103
   66.3693750000000         6.004424114830809E-103
   66.5831250000000        -5.419927011154635E-104
   66.7968750000000        -1.353381063581718E-102
   67.0106250000000        -3.348254641327855E-102
   67.2243750000000        -5.816789500451162E-102
   67.4381250000000        -8.086354622855243E-102
   67.6518750000000        -8.882021336659003E-102
   67.8656250000000        -6.295185960368140E-102
   68.0793750000000         1.992146757938173E-102
   68.2931250000000         1.807068667821993E-101
   68.5068750000000         4.262404056408694E-101
   68.7206250000000         7.318296892541876E-101
   68.9343750000000         1.020137158552882E-100
   69.1481250000000         1.141938340661155E-100
   69.3618750000000         8.688950699462366E-101
   69.5756250000000        -8.673336527984390E-102
   69.7893750000000        -2.007355721357327E-100
   70.0031250000000        -5.043469494061486E-100
   70.2168750000000        -9.017725182346788E-100
   70.4306250000000        -1.317322932758686E-099
   70.6443750000000        -1.591513720666572E-099
   70.8581250000000        -1.464370127108081E-099
   71.0718750000000        -5.833178381731787E-100
   71.2856250000000         1.444073506676354E-099
   71.4993750000000         4.930754391275923E-099
   71.7131250000000         9.907992813441544E-099
   71.9268750000000         1.584064316782268E-098
   72.1406250000000         2.129185362526378E-098
   72.3543750000000         2.361768720037857E-098
   72.5681250000000         1.883498378100375E-098
   72.7818750000000         1.873125581943141E-099
   72.9956250000000        -3.252794238792535E-098
   73.2093750000000        -8.800744658023615E-098
   73.4231250000000        -1.636839927448840E-097
   73.6368750000000        -2.502215131607876E-097
   73.8506250000000        -3.253400504469946E-097
   74.0643750000000        -3.498891590744568E-097
   74.2781250000000        -2.664253952282524E-097
   74.4918750000000        -3.122682557803486E-099
   74.7056250000000         5.134592224974454E-097
   74.9193750000000         1.333138926836400E-096
   75.1331250000000         2.441924911190514E-096
   75.3468750000000         3.707441701339542E-096
   75.5606250000000         4.816225633356040E-096
   75.7743750000000         5.217889077773836E-096
   75.9881250000000         4.102663028206924E-096
   76.2018750000000         4.515310286842268E-097
   76.4156250000000        -6.791450108761937E-096
   76.6293750000000        -1.837298800261320E-095
   76.8431250000000        -3.417379242816587E-095
   77.0568750000000        -5.244683611774066E-095
   77.2706250000000        -6.893637671503222E-095
   77.4843750000000        -7.608711781373295E-095
   77.6981250000000        -6.271491145812419E-095
   77.9118750000000        -1.468630339151757E-095
   78.1256250000000         8.270884444812115E-095
   78.3393750000000         2.399970674828544E-094
   78.5531250000000         4.559163874867854E-094
   78.7668750000000         7.071355595615340E-094
   78.9806250000000         9.366026959684242E-094
   79.1943750000000         1.043517567229767E-093
   79.4081250000000         8.800351345313859E-094
   79.6218750000000         2.619404229350814E-094
   79.8356250000000        -9.980901969952004E-094
   80.0493750000000        -3.026596774345314E-093
   80.2631250000000        -5.790799556206987E-093
   80.4768750000000        -8.970459384512922E-093
   80.6906250000000        -1.182031064701303E-092
   80.9043750000000        -1.306418285727690E-092
   81.1181250000000        -1.088600463412565E-092
   81.3318750000000        -3.103979996298851E-093
   81.5456250000000         1.237790352308493E-092
   81.7593750000000         3.676630723338334E-092
   81.9731250000000         6.921085214888215E-092
   82.1868750000000         1.053796247652862E-091
   82.4006250000000         1.360653243376017E-091
   82.6143750000000         1.463357124360264E-091
   82.8281250000000         1.159709660706239E-091
   83.0418750000000         2.208256468114748E-092
   83.2556250000000        -1.552329231872728E-091
   83.4693750000000        -4.237269101503555E-091
   83.6831250000000        -7.666828124216932E-091
   83.8968750000000        -1.129197136410248E-090
   84.1106250000000        -1.406662988451281E-090
   84.3243750000000        -1.441117125716466E-090
   84.5381250000000        -1.032795204639381E-090
   84.7518750000000         2.532585845405410E-092
   84.9656250000000         1.884145313472789E-090
   85.1793750000000         4.545777690357258E-090
   85.3931250000000         7.750840988476974E-090
   85.6068750000000         1.086868304755643E-089
   85.8206250000000         1.282968851403503E-089
   86.0343750000000         1.215353877949629E-089
   86.2481250000000         7.134450221235991E-090
   86.4618750000000        -3.764068554689013E-090
   86.6756250000000        -2.128506155355961E-089
   86.8893750000000        -4.456790019788196E-089
   87.1031250000000        -7.028943539692009E-089
   87.3168750000000        -9.200886796024472E-089
   87.5306250000000        -1.000796305206653E-088
   87.7443750000000        -8.255741966482913E-089
   87.9581250000000        -2.749923939210205E-089
   88.1718750000000         7.314557178096506E-089
   88.3856250000000         2.182510891919379E-088
   88.5993750000000         3.916488486288682E-088
   88.8131250000000         5.572552010412640E-088
   89.0268750000000         6.575217594332817E-088
   89.2406250000000         6.180152980395148E-088
   89.4543750000000         3.607692510077482E-088
   89.6681250000000        -1.721495890163965E-088
   89.8818750000000        -9.859554251747240E-088
   90.0956250000000        -1.996366132555522E-087
   90.3093750000000        -2.998675888819001E-087
   90.5231250000000        -3.657471206704129E-087
   90.7368750000000        -3.534807617812980E-087
   90.9506250000000        -2.173492086132753E-087
   91.1643750000000         7.558069241830242E-088
   91.3781250000000         5.251537634971593E-087
   91.5918750000000         1.075584966736642E-086
   91.8056250000000         1.597209427188510E-086
   92.0193750000000         1.882155569839652E-086
   92.2331250000000         1.665427164562943E-086
   92.4468750000000         6.819287737926367E-087
   92.6606250000000        -1.235462558646313E-086
   92.8743750000000        -4.022866489310147E-086
   93.0881250000000        -7.240588410261129E-086
   93.3018750000000        -9.960848401457623E-086
   93.5156250000000        -1.075293922056067E-085
   93.7293750000000        -7.842961321602964E-086
   93.9431250000000         4.811272578243236E-087
   94.1568750000000         1.518470358289109E-085
   94.3706250000000         3.556241641732747E-085
   94.5843750000000         5.823047454174410E-085
   94.7981250000000         7.633475673257248E-085
   95.0118750000000         7.941729519755448E-085
   95.2256250000000         5.447568274558992E-085
   95.4393750000000        -1.127758223110067E-085
   95.6531250000000        -1.256718371993000E-084
   95.8668750000000        -2.850485452128634E-084
   96.0806250000000        -4.669017986331568E-084
   96.2943750000000        -6.236216228675186E-084
   96.5081250000000        -6.802884643968892E-084
   96.7218750000000        -5.402092605829578E-084
   96.9356250000000        -1.019132666608407E-084
   97.1493750000000         7.098690224540822E-084
   97.3631250000000         1.899593004848284E-083
   97.5768750000000         3.347768190860999E-083
   97.7906250000000         4.760825039912463E-083
   98.0043750000000         5.642571471832946E-083
   98.2181250000000         5.311735427976658E-083
   98.4318750000000         2.992121188887080E-083
   98.6456250000000        -2.003217632907645E-083
   98.8593750000000        -9.987858443774797E-083
   99.0731250000000        -2.053985980222844E-082
   99.2868750000000        -3.212316395534210E-082
   99.5006250000000        -4.180096793842862E-082
   99.7143750000000        -4.519351130625545E-082
   99.9281250000000        -3.685833298193933E-082
   100.141875000000        -1.125814949560920E-082
   100.355625000000         3.559106429628584E-082
   100.569375000000         1.038478628124075E-081
   100.783125000000         1.872333473678293E-081
   100.996875000000         2.706531421045849E-081
   101.210625000000         3.289284715381454E-081
   101.424375000000         3.277411645989200E-081
   101.638125000000         2.279404017692693E-081
   101.851875000000        -5.915577510249747E-083
   102.065625000000        -3.926191775602492E-081
   102.279375000000        -9.180158764025190E-081
   102.493125000000        -1.518041215964778E-080
   102.706875000000        -2.065667597805183E-080
   102.920625000000        -2.368040499486312E-080
   103.134375000000        -2.180998408628280E-080
   103.348125000000        -1.247545847663620E-080
   103.561875000000         6.360689756286716E-081
   103.775625000000         3.528770009340145E-080
   103.989375000000         7.238282372466914E-080
   104.203125000000         1.122142171227525E-079
   104.416875000000         1.452349803061659E-079
   104.630625000000         1.579759050442128E-079
   104.844375000000         1.344608520092155E-079
   105.058125000000         5.917458143182910E-080
   105.271875000000        -7.832955276388154E-080
   105.485625000000        -2.775031924759536E-079
   105.699375000000        -5.204349449920687E-079
   105.913125000000        -7.665502846968561E-079
   106.126875000000        -9.504652165547210E-079
   106.340625000000        -9.854074060891987E-079
   106.554375000000        -7.744663743832354E-079
   106.768125000000        -2.310737281257538E-079
   106.981875000000         6.916152485033116E-079
   107.195625000000         1.965376465903276E-078
   107.409375000000         3.451809946692425E-078
   107.623125000000         4.877063305395268E-078
   107.836875000000         5.828646027299928E-078
   108.050625000000         5.787422845079233E-078
   108.264375000000         4.205640473777151E-078
   108.478125000000         6.354917161253179E-079
   108.691875000000        -5.098256970269867E-078
   108.905625000000        -1.270319748768788E-077
   109.119375000000        -2.124090301676676E-077
   109.333125000000        -2.902084704628505E-077
   109.546875000000        -3.363276887530383E-077
   109.760625000000        -3.218238059035476E-077
   109.974375000000        -2.177645807956380E-077
   110.188125000000        -2.627580689906657E-079
   110.401875000000         3.283271933487808E-077
   110.615625000000         7.530888225365299E-077
   110.829375000000         1.214565170463803E-076
   111.043125000000         1.616840917656613E-076
   111.256875000000         1.829295479375069E-076
   111.470625000000         1.701500533792302E-076
   111.684375000000         1.090549484809024E-076
   111.898125000000        -9.983778418248598E-078
   112.111875000000        -1.872362821293200E-076
   112.325625000000        -4.089147993088239E-076
   112.539375000000        -6.436267658349929E-076
   112.753125000000        -8.414089985228024E-076
   112.966875000000        -9.368135455692032E-076
   113.180625000000        -8.572142069726849E-076
   113.394375000000        -5.367718017230320E-076
   113.608125000000         6.468041823784672E-077
   113.821875000000         9.401045757368111E-076
   114.035625000000         2.015028566574357E-075
   114.249375000000         3.134036096673022E-075
   114.463125000000         4.060199278185676E-075
   114.676875000000         4.493331380360715E-075
   114.890625000000         4.111022764874760E-075
   115.104375000000         2.632728640992111E-075
   115.318125000000        -9.815753307850889E-077
   115.531875000000        -4.025682061918616E-075
   115.745625000000        -8.803889631841487E-075
   115.959375000000        -1.375294535976680E-074
   116.173125000000        -1.787242089977949E-074
   116.386875000000        -1.993144801540406E-074
   116.600625000000        -1.864534365943969E-074
   116.814375000000        -1.293203177905631E-074
   117.028125000000        -2.220704394258204E-075
   117.241875000000         1.323697433778989E-074
   117.455625000000         3.212125060709611E-074
   117.669375000000         5.194118309039563E-074
   117.883125000000         6.914446256662602E-074
   118.096875000000         7.948478154268539E-074
   118.310625000000         7.864608544008755E-074
   118.524375000000         6.306298884411398E-074
   118.738125000000         3.081244139194985E-074
   118.951875000000        -1.760085128786521E-074
   119.165625000000        -7.876515282632091E-074
   119.379375000000        -1.463636122250009E-073
   119.593125000000        -2.117503589363895E-073
   119.806875000000        -2.650578479407735E-073
   120.020625000000        -2.966242904774452E-073
   120.234375000000        -2.983708765266184E-073
   120.448125000000        -2.646661269008291E-073
   120.661875000000        -1.922524971066177E-073
   120.875625000000        -7.902985413749254E-074
   121.089375000000         7.809146192579744E-074
   121.303125000000         2.854802911974480E-073
   121.516875000000         5.538158660085063E-073
   121.730625000000         8.960065851878757E-073
   121.944375000000         1.320110805394214E-072
   122.158125000000         1.816037592145850E-072
   122.371875000000         2.336371498824019E-072
   122.585625000000         2.774172871993894E-072
   122.799375000000         2.943814987480127E-072
   123.013125000000         2.574229184421797E-072
   123.226875000000         1.326347757414161E-072
   123.440625000000        -1.153244267244679E-072
   123.654375000000        -5.133826969026723E-072
   123.868125000000        -1.065678211465083E-071