  -1.60312500000000         0.000000000000000E+000
  -1.38937500000000         0.000000000000000E+000
  -1.17562500000000         0.000000000000000E+000
 -0.961875000000000         0.000000000000000E+000
 -0.748125000000000         0.000000000000000E+000
 -0.534375000000000         0.000000000000000E+000
 -0.320625000000000         0.000000000000000E+000
 -0.106875000000000         0.000000000000000E+000
  0.106875000000000         0.000000000000000E+000
  0.320625000000000         0.000000000000000E+000
  0.534375000000000         0.000000000000000E+000
  0.748125000000000         0.000000000000000E+000
  0.961875000000000         0.000000000000000E+000
   1.17562500000000         0.000000000000000E+000
   1.38937500000000         0.000000000000000E+000
   1.60312500000000         0.000000000000000E+000
   1.81687500000000         0.000000000000000E+000
   2.03062500000000         0.000000000000000E+000
   2.24437500000000         0.000000000000000E+000
   2.45812500000000         0.000000000000000E+000
   2.67187500000000         0.000000000000000E+000
   2.88562500000000         0.000000000000000E+000
   3.09937500000000         0.000000000000000E+000
   3.31312500000000         0.000000000000000E+000
   3.52687500000000         0.000000000000000E+000
   3.74062500000000         0.000000000000000E+000
   3.95437500000000         0.000000000000000E+000
   4.16812500000000         0.000000000000000E+000
   4.38187500000000         0.000000000000000E+000
   4.59562500000000         0.000000000000000E+000
   4.80937500000000         0.000000000000000E+000
   5.02312500000000         0.000000000000000E+000
   5.23687500000000         0.000000000000000E+000
   5.45062500000000         0.000000000000000E+000
   5.66437500000000         0.000000000000000E+000
   5.87812500000000         0.000000000000000E+000
   6.09187500000000         0.000000000000000E+000
   6.30562500000000         0.000000000000000E+000
   6.51937500000000         0.000000000000000E+000
   6.73312500000000         0.000000000000000E+000
   6.94687500000000         0.000000000000000E+000
   7.16062500000000         0.000000000000000E+000
   7.37437500000000         0.000000000000000E+000
   7.58812500000000         0.000000000000000E+000
   7.80187500000000         0.000000000000000E+000
   8.01562500000000         0.000000000000000E+000
   8.22937500000000         0.000000000000000E+000
   8.44312500000000         0.000000000000000E+000
   8.65687500000000         0.000000000000000E+000
   8.87062500000000         0.000000000000000E+000
   9.08437500000000         0.000000000000000E+000
   9.29812500000000         1.060464321190829E-204
   9.51187500000000        -5.130805319233050E-199
   9.72562500000000         9.301814138062560E-197
   9.93937500000000         2.239626323828814E-193
   10.1531250000000         6.046589674109083E-192
   10.3668750000000         1.995739193817989E-189
   10.5806250000000         1.182031385778744E-187
   10.7943750000000         3.553476185097989E-186
   11.0081250000000         7.325681618657331E-185
   11.2218750000000         1.250380999220647E-183
   11.4356250000000         2.027118682466499E-182
   11.6493750000000         3.238816767583693E-181
   11.8631250000000         4.849753907258460E-180
   12.0768750000000         6.439121793111283E-179
   12.2906250000000         7.383584370195029E-178
   12.5043750000000         7.267998132710553E-177
   12.7181250000000         6.157931730160321E-176
   12.9318750000000         4.524664975338182E-175
   13.1456250000000         2.933890660609390E-174
   13.3593750000000         1.759114451909695E-173
   13.5731250000000         1.085609946626333E-172
   13.7868750000000         7.910215815674040E-172
   14.0006250000000         6.885744080809368E-171
   14.2143750000000         6.328987530693228E-170
   14.4281250000000         5.551887190185805E-169
   14.6418750000000         4.471680505070750E-168
   14.8556250000000         3.284173930074378E-167
   15.0693750000000         2.207281388258199E-166
   15.2831250000000         1.365535863895149E-165
   15.4968750000000         7.818859986858555E-165
   15.7106250000000         4.161801365608380E-164
   15.9243750000000         2.065704672828562E-163
   16.1381250000000         9.578208946958259E-163
   16.3518750000000         4.150476790128503E-162
   16.5656250000000         1.678654499458515E-161
   16.7793750000000         6.315192169477130E-161
   16.9931250000000         2.195293174418249E-160
   17.2068750000000         6.967000770589303E-160
   17.4206250000000         1.973338169211739E-159
   17.6343750000000         4.753667080031122E-159
   17.8481250000000         8.509133510228342E-159
   18.0618750000000         4.373990717522448E-159
   18.2756250000000        -4.625091678169047E-158
   18.4893750000000        -2.404920618722013E-157
   18.7031250000000        -5.884638610916712E-157
   18.9168750000000         4.812351310176707E-157
   19.1306250000000         1.456874077746288E-155
   19.3443750000000         1.013322332273681E-154
   19.5581250000000         5.170171658683387E-154
   19.7718750000000         2.234145204964363E-153
   19.9856250000000         8.591104996000044E-153
   20.1993750000000         3.004825616359837E-152
   20.4131250000000         9.652061198036509E-152
   20.6268750000000         2.853183823095355E-151
   20.8406250000000         7.721516037949323E-151
   21.0543750000000         1.883415814926807E-150
   21.2681250000000         3.986059756862533E-150
   21.4818750000000         6.558268712909740E-150
   21.6956250000000         4.365216366554105E-150
   21.9093750000000        -2.482168752759048E-149
   22.1231250000000        -1.536819247430373E-148
   22.3368750000000        -5.836951972016880E-148
   22.5506250000000        -1.797681424237477E-147
   22.7643750000000        -4.773221342398103E-147
   22.9781250000000        -1.101727958772942E-146
   23.1918750000000        -2.142493522061757E-146
   23.4056250000000        -3.094086664668520E-146
   23.6193750000000        -1.149333210400792E-146
   23.8331250000000         1.324599433193007E-145
   24.0468750000000         6.614242586752251E-145
   24.2606250000000         2.175684248088170E-144
   24.4743750000000         5.834336208357598E-144
   24.6881250000000         1.335944831176044E-143
   24.9018750000000         2.594793108879767E-143
   25.1156250000000         3.988083434239601E-143
   25.3293750000000         3.442114107110468E-143
   25.5431250000000        -5.445580054250426E-143
   25.7568750000000        -3.780905986541188E-142
   25.9706250000000        -1.219125207360309E-141
   26.1843750000000        -2.948007973890502E-141
   26.3981250000000        -5.637885755781356E-141
   26.6118750000000        -7.775869000080488E-141
   26.8256250000000        -3.127082929167127E-141
   27.0393750000000         2.516963201868944E-140
   27.2531250000000         1.122425709858632E-139
   27.4668750000000         3.123402555395312E-139
   27.6806250000000         6.646994243963680E-139
   27.8943750000000         1.055912036658186E-138
   28.1081250000000         8.480063633453426E-139
   28.3218750000000        -1.908426350860353E-138
   28.5356250000000        -1.175762563596149E-137
   28.7493750000000        -3.709099235797582E-137
   28.9631250000000        -8.897559768206300E-137
   29.1768750000000        -1.708551509371387E-136
   29.3906250000000        -2.445123177243094E-136
   29.6043750000000        -1.471074399052862E-136
   29.8181250000000         5.706681909238495E-136
   30.0318750000000         2.886921984002732E-135
   30.2456250000000         8.506674999681377E-135
   30.4593750000000         1.954423257501223E-134
   30.6731250000000         3.647308631027339E-134
   30.8868750000000         5.184241900023204E-134
   31.1006250000000         3.565417905404117E-134
   31.3143750000000        -9.227275963616499E-134
   31.5281250000000        -5.031418606905631E-133
   31.7418750000000        -1.494900941637206E-132
   31.9556250000000        -3.455747299931258E-132
   32.1693750000000        -6.586554622818305E-132
   32.3831250000000        -1.004090131316334E-131
   32.5968750000000        -9.922550421393442E-132
   32.8106250000000         4.532787237213888E-132
   33.0243750000000         5.683185941419362E-131
   33.2381250000000         1.894522213011651E-130
   33.4518750000000         4.635494260648673E-130
   33.6656250000000         9.344465792280995E-130
   33.8793750000000         1.566643220088585E-129
   34.0931250000000         2.027237551464812E-129
   34.3068750000000         1.277934755585730E-129
   34.5206250000000        -3.089988085260200E-129
   34.7343750000000        -1.568534856593302E-128
   34.9481250000000        -4.380219686217936E-128
   35.1618750000000        -9.615787553891974E-128
   35.3756250000000        -1.769094244469828E-127
   35.5893750000000        -2.697506045084119E-127
   35.8031250000000        -3.047786057100840E-127
   36.0168750000000        -1.012230697476994E-127
   36.2306250000000         7.125685012076404E-127
   36.4443750000000         2.774574509546020E-126
   36.6581250000000         6.974887985832750E-126
   36.8718750000000         1.416216436142970E-125
   37.0856250000000         2.422636863246902E-125
   37.2993750000000         3.404519908570122E-125
   37.5131250000000         3.372587566740660E-125
   37.7268750000000         9.185071329357096E-127
   37.9406250000000        -1.057551296479882E-124
   38.1543750000000        -3.501500215883555E-124
   38.3681250000000        -8.094073672871277E-124
   38.5818750000000        -1.534207526437338E-123
   38.7956250000000        -2.450681370952670E-123
   39.0093750000000        -3.170273141138072E-123
   39.2231250000000        -2.684353867916536E-123
   39.4368750000000         1.030083726521863E-123
   39.6506250000000         1.134556219574617E-122
   39.8643750000000         3.288128687962968E-122
   40.0781250000000         7.022600600248574E-122
   40.2918750000000         1.243139972963011E-121
   40.5056250000000         1.849589972665078E-121
   40.7193750000000         2.182809855576585E-121
   40.9331250000000         1.493206140703486E-121
   41.1468750000000        -1.558655365122558E-121
   41.3606250000000        -8.967145051414482E-121
   41.5743750000000        -2.309570496731677E-120
   41.7881250000000        -4.565835855223722E-120
   42.0018750000000        -7.547167260713566E-120
   42.2156250000000        -1.045163388649648E-119
   42.4293750000000        -1.122386807540291E-119
   42.6431250000000        -5.903877787822221E-120
   42.8568750000000         1.182098542060015E-119
   43.0706250000000         5.029212603257780E-119
   43.2843750000000         1.178789550946283E-118
   43.4981250000000         2.181361996680700E-118
   43.7118750000000         3.410107104882577E-118
   43.9256250000000         4.497055654682542E-118
   44.1393750000000         4.645422004132160E-118
   44.3531250000000         2.480820721999003E-118
   44.5668750000000        -4.004305666924278E-118
   44.7806250000000        -1.729619647337837E-117
   44.9943750000000        -3.986146557052520E-117
   45.2081250000000        -7.319011680162308E-117
   45.4218750000000        -1.163148017648710E-116
   45.6356250000000        -1.637632245195170E-116
   45.8493750000000        -2.027509207036482E-116
   46.0631250000000        -2.088783868902264E-116
   46.2768750000000        -1.384767263023339E-116
   46.4906250000000         8.576810127657453E-117
   46.7043750000000         6.000208284572395E-116
   46.9181250000000         1.636358012584591E-115
   47.1318750000000         3.560064515374170E-115
   47.3456250000000         6.865030267986750E-115
   47.5593750000000         1.202861319027175E-114
   47.7731250000000         1.904469803610445E-114
   47.9868750000000         2.636793563012519E-114
   48.2006250000000         2.898269672628311E-114
   48.4143750000000         1.549911475130665E-114
   48.6281250000000        -3.519613230505137E-114
   48.8418750000000        -1.558616051360020E-113
   49.0556250000000        -3.872450299583208E-113
   49.2693750000000        -7.616265287270020E-113
   49.4831250000000        -1.263437567281459E-112
   49.6968750000000        -1.756537864918816E-112
   49.9106250000000        -1.874547623645178E-112
   50.1243750000000        -8.911994282111261E-113
   50.3381250000000         2.370535601767309E-112
   50.5518750000000         9.464361903685074E-112
   50.7656250000000         2.186865407151408E-111
   50.9793750000000         3.986635613053420E-111
   51.1931250000000         6.046489311550653E-111
   51.4068750000000         7.425221796342785E-111
   51.6206250000000         6.162168822644111E-111
   51.8343750000000        -1.015032663590577E-111
   52.0481250000000        -1.858454012877453E-110
   52.2618750000000        -5.120750447664498E-110
   52.4756250000000        -1.010909986385648E-109
   52.6893750000000        -1.630352306824204E-109
   52.9031250000000        -2.168784175118982E-109
   53.1168750000000        -2.182134204260618E-109
   53.3306250000000        -9.048507040616757E-110
   53.5443750000000         2.749726317814800E-109
   53.7581250000000         1.000103639549816E-108
   53.9718750000000         2.167830436889545E-108
   54.1856250000000         3.721051771084194E-108
   54.3993750000000         5.304887210474115E-108
   54.6131250000000         6.065012187457175E-108
   54.8268750000000         4.455552811180395E-108
   55.0406250000000        -1.826628828629361E-108
   55.2543750000000        -1.558353550201302E-107
   55.4681250000000        -3.925789647487560E-107
   55.6818750000000        -7.316829652483611E-107
   55.8956250000000        -1.126175521220614E-106
   56.1093750000000        -1.439572785340564E-106
   56.3231250000000        -1.403167249742765E-106
   56.5368750000000        -5.872561858387272E-107
   56.7506250000000         1.582484076932505E-106
   56.9643750000000         5.716964205084270E-106
   57.1781250000000         1.220626961693057E-105
   57.3918750000000         2.075785209397462E-105
   57.6056250000000         2.970645417291463E-105
   57.8193750000000         3.514972251273167E-105
   58.0331250000000         3.010626805281434E-105
   58.2468750000000         4.111553575043292E-106
   58.4606250000000        -5.604775737036348E-105
   58.6743750000000        -1.634560590208982E-104
   58.8881250000000        -3.248288566255616E-104
   59.1018750000000        -5.297649405039338E-104
   59.3156250000000        -7.350079216064047E-104
   59.5293750000000        -8.448929988830149E-104
   59.7431250000000        -6.922666847689903E-104
   59.9568750000000        -2.910103393684900E-105
   60.1706250000000         1.457221283244350E-103
   60.3843750000000         4.078243583717097E-103
   60.5981250000000         7.999357549640485E-103
   60.8118750000000         1.298511030916797E-102
   61.0256250000000         1.801860545970476E-102
   61.2393750000000         2.081793097112914E-102
   61.4531250000000         1.735031319685475E-102
   61.6668750000000         1.572052400404006E-103
   61.8806250000000        -3.420047228666755E-102
   62.0943750000000        -9.768102992648978E-102
   62.3081250000000        -1.929990422882526E-101
   62.5218750000000        -3.143358829133672E-101
   62.7356250000000        -4.364850360204504E-101
   62.9493750000000        -5.031106283372862E-101
   63.1631250000000        -4.155651338189116E-101
   63.3768750000000        -2.837411325027010E-102
   63.5906250000000         8.382899070250612E-101
   63.8043750000000         2.354558559171803E-100
   64.0181250000000         4.588401846690271E-100
   64.2318750000000         7.351189094783180E-100
   64.4456250000000         9.981552731066711E-100
   64.6593750000000         1.109793826350473E-099
   64.8731250000000         8.401071977625105E-100
   65.0868750000000        -1.321292212726377E-100
   65.3006250000000        -2.175441567016768E-099
   65.5143750000000        -5.588630746069637E-099
   65.7281250000000        -1.038189718216953E-098
   65.9418750000000        -1.594239806279336E-098
   66.1556250000000        -2.060908302956819E-098
   66.3693750000000        -2.125175137535599E-098
   66.5831250000000        -1.305308092026555E-098
   66.7968750000000         1.018126158655425E-098
   67.0106250000000         5.474415894173982E-098
   67.2243750000000         1.243010462178820E-097
   67.4381250000000         2.153743782923414E-097
   67.6518750000000         3.111357939427828E-097
   67.8656250000000         3.744667728827595E-097
   68.0793750000000         3.425960411394732E-097
   68.2931250000000         1.273582564972377E-097
   68.5068750000000        -3.731232232108069E-097
   68.7206250000000        -1.244500656557775E-096
   68.9343750000000        -2.502093844811172E-096
   69.1481250000000        -4.011112909690859E-096
   69.3618750000000        -5.389291822583783E-096
   69.5756250000000        -5.915796455076824E-096
   69.7893750000000        -4.491689921972484E-096
   70.0031250000000         2.792633150081476E-097
   70.2168750000000         9.803040075920540E-096
   70.4306250000000         2.491610339318909E-095
   70.6443750000000         4.496813907037535E-095
   70.8581250000000         6.661620369554918E-095
   71.0718750000000         8.254778896726403E-095
   71.2856250000000         8.059052598335765E-095
   71.4993750000000         4.394834515934711E-095
   71.7131250000000        -4.644823219421316E-095
   71.9268750000000        -2.064100165940016E-094
   72.1406250000000        -4.389857621240423E-094
   72.3543750000000        -7.210561068370387E-094
   72.5681250000000        -9.877248394246704E-094
   72.7818750000000        -1.118672432860043E-093
   72.9956250000000        -9.337179139216722E-094
   73.2093750000000        -2.078722952477739E-094
   73.4231250000000         1.282080062811765E-093
   73.6368750000000         3.668816990072291E-093
   73.8506250000000         6.859669352486978E-093
   74.0643750000000         1.036630643997028E-092
   74.2781250000000         1.313264809329840E-092
   74.4918750000000         1.342555153182476E-092
   74.7056250000000         8.886132702289680E-093
   74.9193750000000        -3.135162233013868E-093
   75.1331250000000        -2.483605306005340E-092
   75.3468750000000        -5.673454589145272E-092
   75.5606250000000        -9.599245866944540E-092
   75.7743750000000        -1.345269519972787E-091
   75.9881250000000        -1.574295254018548E-091
   76.2018750000000        -1.425431115361340E-091
   76.4156250000000        -6.234554450703266E-092
   76.6293750000000         1.105861161886486E-091
   76.8431250000000         3.934908025654496E-091
   77.0568750000000         7.784890624233816E-091
   77.2706250000000         1.214137524234374E-090
   77.4843750000000         1.587190987767039E-090
   77.6981250000000         1.711291777603506E-090
   77.9118750000000         1.332356247020233E-090
   78.1256250000000         1.624786489538604E-091
   78.3393750000000        -2.046312075509967E-090
   78.5531250000000        -5.381988301240787E-090
   78.7668750000000        -9.610764268012529E-090
   78.9806250000000        -1.399653187333949E-089
   79.1943750000000        -1.714918848615281E-089
   79.4081250000000        -1.697739423460072E-089
   79.6218750000000        -1.084491451125139E-089
   79.8356250000000         3.962309849707532E-090
   80.0493750000000         2.937368148131068E-089
   80.2631250000000         6.526001706455483E-089
   80.4768750000000         1.078589733508766E-088
   80.6906250000000         1.481970722309630E-088
   80.9043750000000         1.710340058609817E-088
   81.1181250000000         1.550805169873337E-088
   81.3318750000000         7.538675638806863E-089
   81.5456250000000        -9.124405435076280E-089
   81.7593750000000        -3.573164108476187E-088
   81.9731250000000        -7.124580028143247E-088
   82.1868750000000        -1.109533094809721E-087
   82.4006250000000        -1.452283183930575E-087
   82.6143750000000        -1.589595064603125E-087
   82.8281250000000        -1.323083875343233E-087
   83.0418750000000        -4.352741553192482E-088
   83.2556250000000         1.255626600208261E-087
   83.4693750000000         3.812460067605744E-087
   83.6831250000000         7.073027962304659E-087
   83.8968750000000         1.053796994088547E-086
   84.1106250000000         1.328305125800370E-086
   84.3243750000000         1.394003053581962E-086
   84.5381250000000         1.079992403414853E-086
   84.7518750000000         2.092348086323072E-087
   84.9656250000000        -1.352182978881522E-086
   85.1793750000000        -3.624602156571252E-086
   85.3931250000000        -6.429732696731991E-086
   85.6068750000000        -9.306296305350878E-086
   85.8206250000000        -1.145170261413117E-085
   86.0343750000000        -1.172428058072713E-085
   86.2481250000000        -8.745759939472829E-086
   86.4618750000000        -1.140801195891350E-086
   86.6756250000000         1.206488054169642E-085
   86.8893750000000         3.089732350677262E-085
   87.1031250000000         5.379564306254368E-085
   87.3168750000000         7.700168796632342E-085
   87.5306250000000         9.416586719074611E-085
   87.7443750000000         9.641583942040518E-085
   87.9581250000000         7.316309663980669E-085
   88.1718750000000         1.389451139989109E-085
   88.3856250000000        -8.891440384560574E-085
   88.5993750000000        -2.358402966695501E-084
   88.8131250000000        -4.159025397974729E-084
   89.0268750000000        -6.021079609331851E-084
   89.2406250000000        -7.484007251412259E-084
   89.4543750000000        -7.896646849595420E-084
   89.6681250000000        -6.466469408698867E-084
   89.8818750000000        -2.375659659109146E-084
   90.0956250000000         5.024243054511769E-084
   90.3093750000000         1.593958777790276E-083
   90.5231250000000         2.980332199890338E-083
   90.7368750000000         4.493051395971013E-083
   90.9506250000000         5.823645153189272E-083
   91.1643750000000         6.512412183275541E-083
   91.3781250000000         5.967308416664951E-083
   91.5918750000000         3.527214020258402E-083
   91.8056250000000        -1.417748362343202E-083
   92.0193750000000        -9.241620874059478E-083
   92.2331250000000        -1.983709741113628E-082
   92.4468750000000        -3.232909773067885E-082
   92.6606250000000        -4.479037864337290E-082
   92.8743750000000        -5.403024874188359E-082
   93.0881250000000        -5.555755571934667E-082
   93.3018750000000        -4.384513967689680E-082
   93.5156250000000        -1.303528436450893E-082
   93.7293750000000         4.178898957480325E-082
   93.9431250000000         1.226999543758398E-081
   94.1568750000000         2.264399205527956E-081
   94.3706250000000         3.415975148398825E-081
   94.5843750000000         4.459549259905564E-081
   94.7981250000000         5.048389639312327E-081
   95.0118750000000         4.716395365631820E-081
   95.2256250000000         2.919073879186825E-081
   95.4393750000000        -8.752569900607258E-082
   95.6531250000000        -7.033186344881159E-081
   95.8668750000000        -1.554131579218375E-080
   96.0806250000000        -2.574382844100171E-080
   96.2943750000000        -3.607197459598796E-080
   96.5081250000000        -4.383559894775467E-080
   96.7218750000000        -4.517934893010827E-080
   96.9356250000000        -3.533231970750996E-080
   97.1493750000000        -9.287323537366955E-081
   97.3631250000000         3.698079714262030E-080
   97.5768750000000         1.047257396360596E-079
   97.7906250000000         1.901779703206902E-079
   98.0043750000000         2.821469311017672E-079
   98.2181250000000         3.600535040079847E-079
   98.4318750000000         3.932418717711006E-079
   98.6456250000000         3.426352875281256E-079
   98.8593750000000         1.658567373566015E-079
   99.0731250000000        -1.732905673957517E-079
   99.2868750000000        -6.907209759979811E-079
   99.5006250000000        -1.364210247516479E-078
   99.7143750000000        -2.114285304764996E-078
   99.9281250000000        -2.788359360872580E-078
   100.141875000000        -3.154651020004266E-078
   100.355625000000        -2.913952425516450E-078
   100.569375000000        -1.737562930557056E-078
   100.783125000000         6.622085853469693E-079
   100.996875000000         4.427492888311368E-078
   101.210625000000         9.423247781893592E-078
   101.424375000000         1.509745618967587E-077
   101.638125000000         2.036615520299642E-077
   101.851875000000         2.357021957043758E-077
   102.065625000000         2.256049219758442E-077
   102.279375000000         1.496801589477498E-077
   102.493125000000        -1.299105578700450E-078
   102.706875000000        -2.732653739570723E-077
   102.920625000000        -6.228578538779953E-077
   103.134375000000        -1.024817208447904E-076
   103.348125000000        -1.405829145654683E-076
   103.561875000000        -1.653501106881850E-076
   103.775625000000        -1.622342485188472E-076
   103.989375000000        -1.152057099396176E-076
   104.203125000000        -1.006475493052510E-077
   104.416875000000         1.607606531406562E-076
   104.630625000000         3.923116162325246E-076
   104.844375000000         6.609854750948628E-076
   105.058125000000         9.196858425804023E-076
   105.271875000000         1.096232030519080E-075
   105.485625000000         1.097328527343005E-075
   105.699375000000         8.202745107044335E-076
   105.913125000000         1.738381478548010E-076
   106.126875000000        -8.918320812760358E-076
   106.340625000000        -2.348783761056741E-075
   106.554375000000        -4.053945907028306E-075
   106.768125000000        -5.719935200117382E-075
   106.981875000000        -6.905974022674574E-075
   107.195625000000        -7.042489762861406E-075
   107.409375000000        -5.501968557353190E-075
   107.623125000000        -1.723904509443502E-075
   107.836875000000         4.607627918498380E-075
   108.050625000000         1.334929022168762E-074
   108.264375000000         2.367999385794856E-074
   108.478125000000         3.393103998808641E-074
   108.691875000000         4.153367985546245E-074
   108.905625000000         4.316094052387153E-074
   109.119375000000         3.513383675920409E-074
   109.333125000000         1.413437975973885E-074
   109.546875000000        -2.178519939340969E-074
   109.760625000000        -7.198617933391977E-074
   109.974375000000        -1.320075357468556E-073
   110.188125000000        -1.926024122242466E-073
   110.401875000000        -2.394265681919018E-073
   110.615625000000        -2.537998010780843E-073
   110.829375000000        -2.149216842541584E-073
   111.043125000000        -1.037698468664329E-073
   111.256875000000         9.137927041411658E-074
   111.470625000000         3.682908315431162E-073
   111.684375000000         7.039831125729011E-073
   111.898125000000         1.049374813132558E-072
   112.111875000000         1.327397145889675E-072
   112.325625000000         1.436815291580311E-072
   112.539375000000         1.263791777259343E-072
   112.753125000000         7.024171892917645E-073
   112.966875000000        -3.160785699175116E-073
   113.180625000000        -1.787935512679392E-072
   113.394375000000        -3.600538316888768E-072
   113.608125000000        -5.503289719177022E-072
   113.821875000000        -7.096233447186376E-072
   114.035625000000        -7.848113467550194E-072
   114.249375000000        -7.154495906608812E-072
   114.463125000000        -4.442472068850286E-072
   114.676875000000         6.792486270064071E-073
   114.890625000000         8.237335553906835E-072
   115.104375000000         1.770438938493010E-071
   115.318125000000         2.784424082894394E-071
   115.531875000000         3.664554368680546E-071
   115.745625000000         4.140311314410611E-071
   115.959375000000         3.900132218489123E-071
   116.173125000000         2.643344363582526E-071
   116.386875000000         1.552377855735072E-072
   116.600625000000        -3.600809565057173E-071
   116.814375000000        -8.387210302066156E-071
   117.028125000000        -1.361243553777355E-070
   117.241875000000        -1.829420402789786E-070
   117.455625000000        -2.109506768673348E-070
   117.669375000000        -2.045736103660996E-070
   117.883125000000        -1.485446440020060E-070
   118.096875000000        -3.156510856469544E-071
   118.310625000000         1.491880291942988E-070
   118.524375000000         3.833350439575908E-070
   118.738125000000         6.433334414731280E-070
   118.951875000000         8.825654271504682E-070
   119.165625000000         1.036890252868028E-069
   119.379375000000         1.030951742884334E-069
   119.593125000000         7.900442130708275E-070
   119.806875000000         2.574359867165084E-070
   120.020625000000        -5.842573735496765E-070
   120.234375000000        -1.690653330211071E-069
   120.448125000000        -2.936786613512442E-069
   120.661875000000        -4.107887945188863E-069
   120.875625000000        -4.906325525062636E-069
   121.089375000000        -4.980604706662133E-069
   121.303125000000        -3.979975400076854E-069
   121.516875000000        -1.633951325872960E-069
   121.730625000000         2.149986661574329E-069
   121.944375000000         7.184467332167013E-069
   122.158125000000         1.291736194861252E-068
   122.371875000000         1.839097657070344E-068
   122.585625000000         2.227440718944889E-068
   122.799375000000         2.299451514828650E-068
   123.013125000000         1.897985630247216E-068
   123.226875000000         9.012529638092416E-069
   123.440625000000        -7.343888546087592E-069
   123.654375000000        -2.930348990448757E-068
   123.868125000000        -5.449805258109204E-068