  -1.60312500000000         0.000000000000000E+000
  -1.38937500000000         0.000000000000000E+000
  -1.17562500000000         0.000000000000000E+000
 -0.961875000000000         0.000000000000000E+000
 -0.748125000000000         0.000000000000000E+000
 -0.534375000000000         0.000000000000000E+000
 -0.320625000000000         0.000000000000000E+000
 -0.106875000000000         0.000000000000000E+000
  0.106875000000000         0.000000000000000E+000
  0.320625000000000         0.000000000000000E+000
  0.534375000000000         0.000000000000000E+000
  0.748125000000000         0.000000000000000E+000
  0.961875000000000         0.000000000000000E+000
   1.17562500000000         0.000000000000000E+000
   1.38937500000000         0.000000000000000E+000
   1.60312500000000         0.000000000000000E+000
   1.81687500000000         0.000000000000000E+000
   2.03062500000000         0.000000000000000E+000
   2.24437500000000         0.000000000000000E+000
   2.45812500000000         0.000000000000000E+000
   2.67187500000000         0.000000000000000E+000
   2.88562500000000         0.000000000000000E+000
   3.09937500000000         0.000000000000000E+000
   3.31312500000000         0.000000000000000E+000
   3.52687500000000         0.000000000000000E+000
   3.74062500000000         0.000000000000000E+000
   3.95437500000000         0.000000000000000E+000
   4.16812500000000         0.000000000000000E+000
   4.38187500000000         0.000000000000000E+000
   4.59562500000000         0.000000000000000E+000
   4.80937500000000         0.000000000000000E+000
   5.02312500000000         0.000000000000000E+000
   5.23687500000000         0.000000000000000E+000
   5.45062500000000         0.000000000000000E+000
   5.66437500000000         0.000000000000000E+000
   5.87812500000000         0.000000000000000E+000
   6.09187500000000         0.000000000000000E+000
   6.30562500000000         0.000000000000000E+000
   6.51937500000000         0.000000000000000E+000
   6.73312500000000         0.000000000000000E+000
   6.94687500000000         0.000000000000000E+000
   7.16062500000000         0.000000000000000E+000
   7.37437500000000         0.000000000000000E+000
   7.58812500000000         0.000000000000000E+000
   7.80187500000000         0.000000000000000E+000
   8.01562500000000         0.000000000000000E+000
   8.22937500000000         0.000000000000000E+000
   8.44312500000000         0.000000000000000E+000
   8.65687500000000         0.000000000000000E+000
   8.87062500000000         0.000000000000000E+000
   9.08437500000000         0.000000000000000E+000
   9.29812500000000        -4.482191507088155E-204
   9.51187500000000         1.730500446937700E-197
   9.72562500000000        -1.364660295020691E-194
   9.93937500000000         1.646911303574773E-192
   10.1531250000000        -6.985990350367158E-190
   10.3668750000000        -4.516883496767045E-188
   10.5806250000000        -1.177645157243390E-186
   10.7943750000000        -1.298981032313237E-185
   11.0081250000000         1.112953846799184E-184
   11.2218750000000         7.320295902169539E-183
   11.4356250000000         1.594041054498017E-181
   11.6493750000000         2.302966161178216E-180
   11.8631250000000         2.470173387623775E-179
   12.0768750000000         2.001021630277232E-178
   12.2906250000000         1.153238835277921E-177
   12.5043750000000         3.379582972896389E-177
   12.7181250000000        -1.452841801340213E-176
   12.9318750000000        -2.400276737762323E-175
   13.1456250000000        -8.356438111791411E-175
   13.3593750000000         1.320683519661774E-173
   13.5731250000000         2.737210955158436E-172
   13.7868750000000         3.026227892851719E-171
   14.0006250000000         2.476673119462673E-170
   14.2143750000000         1.596770215564655E-169
   14.4281250000000         7.870540629615712E-169
   14.6418750000000         2.316946596286716E-168
   14.8556250000000        -5.960520193615120E-168
   15.0693750000000        -1.614771025574206E-166
   15.2831250000000        -1.606940195311549E-165
   15.4968750000000        -1.212239653139486E-164
   15.7106250000000        -7.812264944803751E-164
   15.9243750000000        -4.496474830892073E-163
   16.1381250000000        -2.363061735964637E-162
   16.3518750000000        -1.148670316306877E-161
   16.5656250000000        -5.208175511328648E-161
   16.7793750000000        -2.215892556211217E-160
   16.9931250000000        -8.888631982561932E-160
   17.2068750000000        -3.375885733405326E-159
   17.4206250000000        -1.219436840057777E-158
   17.6343750000000        -4.212712286486816E-158
   17.8481250000000        -1.402406297612428E-157
   18.0618750000000        -4.545985003734865E-157
   18.2756250000000        -1.454517198059019E-156
   18.4893750000000        -4.664038855282078E-156
   18.7031250000000        -1.518318234792493E-155
   18.9168750000000        -5.044870833158073E-155
   19.1306250000000        -1.702459467107385E-154
   19.3443750000000        -5.758843731602007E-154
   19.5581250000000        -1.920940289629075E-153
   19.7718750000000        -6.220603318614447E-153
   19.9856250000000        -1.929405365310414E-152
   20.1993750000000        -5.661927166588528E-152
   20.4131250000000        -1.551218297954243E-151
   20.6268750000000        -3.894738276406907E-151
   20.8406250000000        -8.667166976998177E-151
   21.0543750000000        -1.578691907473074E-150
   21.2681250000000        -1.707206262328110E-150
   21.4818750000000         2.732518309196558E-150
   21.6956250000000         2.542684900977591E-149
   21.9093750000000         1.047042196914966E-148
   22.1231250000000         3.293707392222211E-148
   22.3368750000000         8.574687672257072E-148
   22.5506250000000         1.824116877903081E-147
   22.7643750000000         2.766896927983184E-147
   22.9781250000000         5.149378540436997E-148
   23.1918750000000        -1.692444504837649E-146
   23.4056250000000        -8.503604444033933E-146
   23.6193750000000        -2.910856049037054E-145
   23.8331250000000        -8.100959868423122E-145
   24.0468750000000        -1.889269675946313E-144
   24.2606250000000        -3.548133246868192E-144
   24.4743750000000        -4.305409020878621E-144
   24.6881250000000         2.758552720186515E-144
   24.9018750000000         4.006813106861224E-143
   25.1156250000000         1.672830317007109E-142
   25.3293750000000         5.194332367687333E-142
   25.5431250000000         1.351958150244154E-141
   25.7568750000000         3.028519340804786E-141
   25.9706250000000         5.736955501278129E-141
   26.1843750000000         8.384420098254363E-141
   26.3981250000000         5.528498118326026E-141
   26.6118750000000        -1.952340928933805E-140
   26.8256250000000        -1.072886941064245E-139
   27.0393750000000        -3.386009740880139E-139
   27.2531250000000        -8.392846188349586E-139
   27.4668750000000        -1.719921651398637E-138
   27.6806250000000        -2.818703117151369E-138
   27.8943750000000        -2.985894833720821E-138
   28.1081250000000         1.480809590233379E-138
   28.3218750000000         1.953176242612243E-137
   28.5356250000000         6.844387789834369E-137
   28.7493750000000         1.730566151922392E-136
   28.9631250000000         3.482654278410053E-136
   29.1768750000000         5.343878111725894E-136
   29.3906250000000         4.272020588740185E-136
   29.6043750000000        -8.836115114359103E-136
   29.8181250000000        -5.537903831031388E-135
   30.0318750000000        -1.767835147104730E-134
   30.2456250000000        -4.364652224557775E-134
   30.4593750000000        -8.935266856913717E-134
   30.6731250000000        -1.494978055598906E-133
   30.8868750000000        -1.782804560863057E-133
   31.1006250000000        -2.524310844126557E-134
   31.3143750000000         6.815661501692160E-133
   31.5281250000000         2.704555286279001E-132
   31.7418750000000         7.345098387159474E-132
   31.9556250000000         1.631248377373949E-131
   32.1693750000000         3.066610263237910E-131
   32.3831250000000         4.751652738245503E-131
   32.5968750000000         5.227628874993631E-131
   32.8106250000000         3.590169129867324E-132
   33.0243750000000        -1.909461201197378E-130
   33.2381250000000        -7.043778253123577E-130
   33.4518750000000        -1.804938084772468E-129
   33.6656250000000        -3.799345590624462E-129
   33.8793750000000        -6.784225912284127E-129
   34.0931250000000        -9.991240352159796E-129
   34.3068750000000        -1.041706834716619E-128
   34.5206250000000        -4.327908085085498E-130
   34.7343750000000         3.560088931292498E-128
   34.9481250000000         1.245910977894770E-127
   35.1618750000000         3.041938313791600E-127
   35.3756250000000         6.101388199619970E-127
   35.5893750000000         1.035743814621169E-126
   35.8031250000000         1.439520120777773E-126
   36.0168750000000         1.372695276501264E-126
   36.2306250000000        -1.877492443870889E-127
   36.4443750000000        -5.157479565337672E-126
   36.6581250000000        -1.653004402324355E-125
   36.8718750000000        -3.797001628256647E-125
   37.0856250000000        -7.191821761727080E-125
   37.2993750000000        -1.147679562207435E-124
   37.5131250000000        -1.472783591178800E-124
   37.7268750000000        -1.188028490535434E-124
   37.9406250000000         7.361717563231139E-125
   38.1543750000000         6.037483591941904E-124
   38.3681250000000         1.711809990391893E-123
   38.5818750000000         3.635934485225582E-123
   38.7956250000000         6.411213596145803E-123
   39.0093750000000         9.445831495341029E-123
   39.2231250000000         1.079274854728666E-122
   39.4368750000000         6.125922848701619E-123
   39.6506250000000        -1.232103466194430E-122
   39.8643750000000        -5.609846460420774E-122
   40.0781250000000        -1.386085116512477E-121
   40.2918750000000        -2.683089957989546E-121
   40.5056250000000        -4.335903438490041E-121
   40.7193750000000        -5.760578006202885E-121
   40.9331250000000        -5.518647067680275E-121
   41.1468750000000        -8.874609834517156E-122
   41.3606250000000         1.237970289511555E-120
   41.5743750000000         3.962715893314446E-120
   41.7881250000000         8.542873673318564E-120
   42.0018750000000         1.492708869228723E-119
   42.2156250000000         2.178736138458259E-119
   42.4293750000000         2.540774956642375E-119
   42.6431250000000         1.843453888996872E-119
   42.8568750000000        -1.092419573126254E-119
   43.0706250000000        -7.811816216146533E-119
   43.2843750000000        -1.981899979818477E-118
   43.4981250000000        -3.764511663376799E-118
   43.7118750000000        -5.925187331225050E-118
   43.9256250000000        -7.785130971973242E-118
   44.1393750000000        -7.965364737919929E-118
   44.3531250000000        -4.267576134188016E-118
   44.5668750000000         6.164752554238267E-118
   44.7806250000000         2.621688323353142E-117
   44.9943750000000         5.762172070060258E-117
   45.2081250000000         9.943888584632179E-117
   45.4218750000000         1.468958091100123E-116
   45.6356250000000         1.917932875867862E-116
   45.8493750000000         2.256584193016965E-116
   46.0631250000000         2.452995939141723E-116
   46.2768750000000         2.560536123613167E-116
   46.4906250000000         2.598002551788362E-116
   46.7043750000000         2.036107271600578E-116
   46.9181250000000        -1.438887940086288E-116
   47.1318750000000        -1.414236241704056E-115
   47.3456250000000        -4.937400079490073E-115
   47.5593750000000        -1.297394607894950E-114
   47.7731250000000        -2.851270779127473E-114
   47.9868750000000        -5.393731735819479E-114
   48.2006250000000        -8.752456994536383E-114
   48.4143750000000        -1.166419536914613E-113
   48.6281250000000        -1.071632970799523E-113
   48.8418750000000         9.209634896924316E-115
   49.0556250000000         3.434505824735972E-113
   49.2693750000000         1.039714967505632E-112
   49.4831250000000         2.224216161486261E-112
   49.6968750000000         3.880248655444649E-112
   49.9106250000000         5.617825937646042E-112
   50.1243750000000         6.330425256485804E-112
   50.3381250000000         3.798144658546334E-112
   50.5518750000000        -5.574055223187727E-112
   50.7656250000000        -2.649509115693361E-111
   50.9793750000000        -6.337442193124997E-111
   51.1931250000000        -1.169407291888054E-110
   51.4068750000000        -1.781436271884454E-110
   51.6206250000000        -2.192319831707021E-110
   51.8343750000000        -1.835336043110337E-110
   52.0481250000000         2.154534694298677E-111
   52.2618750000000         5.193739413667047E-110
   52.4756250000000         1.432783502667622E-109
   52.6893750000000         2.808916695939202E-109
   52.9031250000000         4.484450622015692E-109
   53.1168750000000         5.889067095208786E-109
   53.3306250000000         5.818043523783217E-109
   53.5443750000000         2.263435896832581E-109
   53.7581250000000        -7.522665528000561E-109
   53.9718750000000        -2.646442495274780E-108
   54.1856250000000        -5.626237649866717E-108
   54.3993750000000        -9.485249781679989E-108
   54.6131250000000        -1.326520181243685E-107
   54.8268750000000        -1.480753694246234E-107
   55.0406250000000        -1.037790002345907E-107
   55.2543750000000         5.351611439732173E-108
   55.4681250000000         3.851888646646059E-107
   55.6818750000000         9.392122053150822E-107
   55.8956250000000         1.709471254292974E-106
   56.1093750000000         2.573381106766591E-106
   56.3231250000000         3.212799897742605E-106
   56.5368750000000         3.036736038827415E-106
   56.7506250000000         1.144122058294420E-106
   56.9643750000000        -3.611163896459248E-106
   57.1781250000000        -1.236880249588428E-105
   57.3918750000000        -2.573073906472083E-105
   57.6056250000000        -4.287717160883001E-105
   57.8193750000000        -6.032764154146995E-105
   58.0331250000000        -7.048773051899195E-105
   58.2468750000000        -6.035261644230292E-105
   58.4606250000000        -1.105908799231359E-105
   58.6743750000000         1.006372419562234E-104
   58.8881250000000         2.974983012032357E-104
   59.1018750000000         5.918323296230934E-104
   59.3156250000000         9.687642940710487E-104
   59.5293750000000         1.361817792737507E-103
   59.7431250000000         1.621722466630912E-103
   59.9568750000000         1.482987464192457E-103
   60.1706250000000         5.390132810358653E-104
   60.3843750000000        -1.753833383503161E-103
   60.5981250000000        -6.009362255021948E-103
   60.8118750000000        -1.273215268862178E-102
   61.0256250000000        -2.196178827841142E-102
   61.2393750000000        -3.267502575783001E-102
   61.4531250000000        -4.190927097343885E-102
   61.6668750000000        -4.365998016675907E-102
   61.8806250000000        -2.779158824661491E-102
   62.0943750000000         2.047765919701141E-102
   62.3081250000000         1.194906150239396E-101
   62.5218750000000         2.868825942350046E-101
   62.7356250000000         5.300773722472059E-101
   62.9493750000000         8.294888122945481E-101
   63.1631250000000         1.113440732727131E-100
   63.3768750000000         1.226812339396629E-100
   63.5906250000000         9.012416375174888E-101
   63.8043750000000        -2.560601036290348E-101
   64.0181250000000        -2.725719212714321E-100
   64.2318750000000        -6.950312128334601E-100
   64.4456250000000        -1.307106956216175E-099
   64.6593750000000        -2.048866314790211E-099
   64.8731250000000        -2.725012216153027E-099
   65.0868750000000        -2.935228384103169E-099
   65.3006250000000        -2.020126698984618E-099
   65.5143750000000         9.324676115296438E-100
   65.7281250000000         6.952797268135231E-099
   65.9418750000000         1.684034706163358E-098
   66.1556250000000         3.051852859284700E-098
   66.3693750000000         4.605678875214942E-098
   66.5831250000000         5.843983499845563E-098
   66.7968750000000         5.837203142723548E-098
   67.0106250000000         3.171110500973859E-098
   67.2243750000000        -3.950564355843559E-098
   67.4381250000000        -1.731490608970020E-097
   67.6518750000000        -3.788080645831695E-097
   67.8656250000000        -6.443587854005170E-097
   68.0793750000000        -9.176546065843832E-097
   68.2931250000000        -1.086274105636513E-096
   68.5068750000000        -9.622563715249319E-097
   68.7206250000000        -2.838716775859198E-097
   68.9343750000000         1.248370675792425E-096
   69.1481250000000         3.881314122506486E-096
   69.3618750000000         7.646958905838299E-096
   69.5756250000000         1.212425374713528E-095
   69.7893750000000         1.614904951868039E-095
   70.0031250000000         1.754318863801968E-095
   70.2168750000000         1.299735471857836E-095
   70.4306250000000        -1.687437531499752E-096
   70.6443750000000        -3.074110386820270E-095
   70.8581250000000        -7.669152618647177E-095
   71.0718750000000        -1.376108557467193E-094
   71.2856250000000        -2.034738499603742E-094
   71.4993750000000        -2.522568888756065E-094
   71.7131250000000        -2.471231722192583E-094
   71.9268750000000        -1.368954257202588E-094
   72.1406250000000         1.372040099813862E-094
   72.3543750000000         6.252530445536387E-094
   72.5681250000000         1.340194153505621E-093
   72.7818750000000         2.217110699264087E-093
   72.9956250000000         3.064812088020132E-093
   73.2093750000000         3.521666843167778E-093
   73.4231250000000         3.037043054228310E-093
   73.6368750000000         9.094117832430682E-094
   73.8506250000000        -3.581403447215650E-093
   74.0643750000000        -1.091265447440107E-092
   74.2781250000000        -2.091061500941020E-092
   74.4918750000000        -3.221974953259696E-092
   74.7056250000000        -4.174119380603857E-092
   74.9193750000000        -4.422682008860189E-092
   75.1331250000000        -3.232207254730949E-092
   75.3468750000000         2.558919423910352E-093
   75.5606250000000         6.811725502568782E-092
   75.7743750000000         1.675095097675567E-091
   75.9881250000000         2.941526300183146E-091
   76.2018750000000         4.255784647406502E-091
   76.4156250000000         5.177791311500851E-091
   76.6293750000000         5.025426116420632E-091
   76.8431250000000         2.913211127049800E-091
   77.0568750000000        -2.101907466306552E-091
   77.2706250000000        -1.072937947121952E-090
   77.4843750000000        -2.299038904478400E-090
   77.6981250000000        -3.762519699290803E-090
   77.9118750000000        -5.145854721896987E-090
   78.1256250000000        -5.891376096047338E-090
   78.3393750000000        -5.197069552763350E-090
   78.5531250000000        -2.094843618333811E-090
   78.7668750000000         4.348497765010779E-090
   78.9806250000000         1.467754780672800E-089
   79.1943750000000         2.854067635802372E-089
   79.4081250000000         4.407964879512297E-089
   79.6218750000000         5.734394221223991E-089
   79.8356250000000         6.195012793826939E-089
   80.0493750000000         4.929740878420088E-089
   80.2631250000000         9.706321461543391E-090
   80.4768750000000        -6.517716479258583E-089
   80.6906250000000        -1.785292020522561E-088
   80.9043750000000        -3.232076555172354E-088
   81.1181250000000        -4.760370251530701E-088
   81.3318750000000        -5.929694161590178E-088
   81.5456250000000        -6.073892736130033E-088
   81.7593750000000        -4.345167954548564E-088
   81.9731250000000         1.489953045491094E-089
   82.1868750000000         8.090384641792268E-088
   82.4006250000000         1.956970199640408E-087
   82.6143750000000         3.361037754135967E-087
   82.8281250000000         4.767781510354487E-087
   83.0418750000000         5.731962981683617E-087
   83.2556250000000         5.614717652701739E-087
   83.4693750000000         3.641369880161589E-087
   83.6831250000000        -9.558430483936162E-088
   83.8968750000000        -8.693266088438450E-087
   84.1106250000000        -1.949222344380619E-086
   84.3243750000000        -3.227150842051890E-086
   84.5381250000000        -4.455563598705347E-086
   84.7518750000000        -5.222965879653647E-086
   84.9656250000000        -4.961816659627789E-086
   85.1793750000000        -3.009151228392402E-086
   85.3931250000000         1.261581796846389E-086
   85.6068750000000         8.227541633068667E-086
   85.8206250000000         1.772975040671535E-085
   86.0343750000000         2.874672446584305E-085
   86.2481250000000         3.909728547543834E-085
   86.4618750000000         4.527902682409705E-085
   86.6756250000000         4.258068220497973E-085
   86.8893750000000         2.561956711846989E-085
   87.1031250000000        -1.056650998559313E-085
   87.3168750000000        -6.881604892958365E-085
   87.5306250000000        -1.476079592665961E-084
   87.7443750000000        -2.385718715049471E-084
   87.9581250000000        -3.242743049665795E-084
   88.1718750000000        -3.770742692122496E-084
   88.3856250000000        -3.600553833198720E-084
   88.5993750000000        -2.311158594442867E-084
   88.8131250000000         4.887281407282091E-085
   89.0268750000000         5.034474143052401E-084
   89.2406250000000         1.124028429424336E-083
   89.4543750000000         1.851423719307447E-083
   89.6681250000000         2.559016916502655E-083
   89.8818750000000         3.043124498612898E-083
   90.0956250000000         3.027536704750756E-083
   90.3093750000000         2.189930343420715E-083
   90.5231250000000         2.169774937369101E-084
   90.7368750000000        -3.108125627188443E-083
   90.9506250000000        -7.787886165688718E-083
   91.1643750000000        -1.347360129731641E-082
   91.3781250000000        -1.933199631713067E-082
   91.5918750000000        -2.395115852360006E-082
   91.8056250000000        -2.533377872911870E-082
   92.0193750000000        -2.103380269736721E-082
   92.2331250000000        -8.492064325297747E-083
   92.4468750000000         1.438779876061219E-082
   92.6606250000000         4.841490702322875E-082
   92.8743750000000         9.208557894370281E-082
   93.0881250000000         1.404831554718896E-081
   93.3018750000000         1.843282149712321E-081
   93.5156250000000         2.095107985114134E-081
   93.7293750000000         1.975304352292462E-081
   93.9431250000000         1.273203895528721E-081
   94.1568750000000        -2.110152249008786E-082
   94.3706250000000        -2.608799022771590E-081
   94.5843750000000        -5.905374335159839E-081
   94.7981250000000        -9.847904444959539E-081
   95.0118750000000        -1.385371804381379E-080
   95.2256250000000        -1.694208144142249E-080
   95.4393750000000        -1.772268676203479E-080
   95.6531250000000        -1.448169945594247E-080
   95.8668750000000        -5.408406226712615E-081
   96.0806250000000         1.100215318723224E-080
   96.2943750000000         3.535748303366235E-080
   96.5081250000000         6.661483963917290E-080
   96.7218750000000         1.012570439685191E-079
   96.9356250000000         1.325664145575038E-079
   97.1493750000000         1.502549538197983E-079
   97.3631250000000         1.407880967367046E-079
   97.5768750000000         8.878083945217308E-080
   97.7906250000000        -2.018826459084216E-080
   98.0043750000000        -1.951496995423652E-079
   98.2181250000000        -4.338109316749723E-079
   98.4318750000000        -7.157074002308726E-079
   98.6456250000000        -9.956631065814569E-079
   98.8593750000000        -1.199516967019838E-078
   99.0731250000000        -1.224750872555481E-078
   99.2868750000000        -9.490652512796132E-079
   99.5006250000000        -2.497973544079027E-079
   99.7143750000000         9.639594959331998E-079
   99.9281250000000         2.706894574425159E-078
   100.141875000000         4.864591246583561E-078
   100.355625000000         7.140913801069751E-078
   100.569375000000         9.019876686823046E-078
   100.783125000000         9.761384987105772E-078
   100.996875000000         8.453482060702341E-078
   101.210625000000         4.142950151533924E-078
   101.424375000000        -3.941043219298755E-078
   101.638125000000        -1.607112931473413E-077
   101.851875000000        -3.163966704543574E-077
   102.065625000000        -4.876998784010612E-077
   102.279375000000        -6.401911092406632E-077
   102.493125000000        -7.230631808017196E-077
   102.706875000000        -6.722478447643438E-077
   102.920625000000        -4.188862959956806E-077
   103.134375000000         9.580155101608519E-078
   103.348125000000         8.992470386544197E-077
   103.561875000000         1.961529166465458E-076
   103.775625000000         3.168535610254990E-076
   103.989375000000         4.300728695958616E-076
   104.203125000000         5.026329784967270E-076
   104.416875000000         4.919221952348137E-076
   104.630625000000         3.511564818071453E-076
   104.844375000000         3.880503541269226E-077
   105.058125000000        -4.677906640665824E-076
   105.271875000000        -1.155631076739250E-075
   105.485625000000        -1.958536325987642E-075
   105.699375000000        -2.742908131907912E-075
   105.913125000000        -3.302274356214359E-075
   106.126875000000        -3.367038349707818E-075
   106.340625000000        -2.635675880140097E-075
   106.554375000000        -8.317616723215872E-076
   106.768125000000         2.212810505703712E-075
   106.981875000000         6.454421933393725E-075
   107.195625000000         1.152858143102801E-074
   107.409375000000         1.665901258950329E-074
   107.623125000000         2.061779853901681E-074
   107.836875000000         2.177497544897755E-074
   108.050625000000         1.827505754642655E-074
   108.264375000000         8.367254663428856E-075
   108.478125000000        -9.107108931513996E-075
   108.691875000000        -3.410333292668656E-074
   108.905625000000        -6.472037514446924E-074
   109.119375000000        -9.664343990663289E-074
   109.333125000000        -1.228706875800067E-073
   109.546875000000        -1.339454465111692E-073
   109.760625000000        -1.189116027977165E-073
   109.974375000000        -6.715089756259181E-074
   110.188125000000         2.886851046473923E-074
   110.401875000000         1.701087033867839E-073
   110.615625000000         3.471932579484719E-073
   110.829375000000         5.371116038960945E-073
   111.043125000000         7.014444342041890E-073
   111.256875000000         7.873471420234834E-073
   111.470625000000         7.325180092010800E-073
   111.684375000000         4.750658368372916E-073
   111.898125000000        -3.150525927291904E-074
   112.111875000000        -7.990915490626400E-073
   112.325625000000        -1.783947112852047E-072
   112.539375000000        -2.867870572162355E-072
   112.753125000000        -3.847277425034575E-072
   112.966875000000        -4.436872485436483E-072
   113.180625000000        -4.294635263672171E-072
   113.394375000000        -3.073221711449977E-072
   113.608125000000        -4.992247820010342E-073
   113.821875000000         3.524155433493872E-072
   114.035625000000         8.803339008819424E-072
   114.249375000000         1.475074959031618E-071
   114.463125000000         2.032107734487072E-071
   114.676875000000         2.402285196259066E-071
   114.890625000000         2.404093910507070E-071
   115.104375000000         1.849738292913919E-071
   115.318125000000         5.859162853734050E-072
   115.531875000000        -1.452898326896291E-071
   115.745625000000        -4.184908218499541E-071
   115.959375000000        -7.326037209825965E-071
   116.173125000000        -1.035478466755450E-070
   116.386875000000        -1.251504477267817E-070
   116.600625000000        -1.287515428038292E-070
   116.814375000000        -1.045727706916795E-070
   117.028125000000        -4.441683335342395E-071
   117.241875000000         5.564871348890496E-071
   117.455625000000         1.922784376884199E-070
   117.669375000000         3.520491464307429E-070
   117.883125000000         5.096314657286123E-070
   118.096875000000         6.278342488033907E-070
   118.310625000000         6.604238767690383E-070
   118.524375000000         5.584094029097921E-070
   118.738125000000         2.800086054121602E-070
   118.951875000000        -1.962464736087851E-070
   119.165625000000        -8.567999673364045E-070
   119.379375000000        -1.639405609286488E-069
   119.593125000000        -2.424173685243958E-069
   119.806875000000        -3.033654547379285E-069
   120.020625000000        -3.246232889667359E-069
   120.234375000000        -2.826035240819757E-069
   120.448125000000        -1.570226116524291E-069
   120.661875000000         6.290598267470908E-070
   120.875625000000         3.715591936473776E-069
   121.089375000000         7.405315312569221E-069
   121.303125000000         1.114522787274253E-068
   121.516875000000         1.411482547905844E-068
   121.730625000000         1.528946367412599E-068
   121.944375000000         1.357958775216786E-068
   122.158125000000         8.048662041041526E-069
   122.371875000000        -1.804245569795833E-069
   122.585625000000        -1.573259028876742E-068
   122.799375000000        -3.245937973252498E-068
   123.013125000000        -4.950098933586805E-068
   123.226875000000        -6.318620510266114E-068
   123.440625000000        -6.895378712075357E-068
   123.654375000000        -6.198514086788499E-068
   123.868125000000        -3.817698166591357E-068