  -1.60312500000000         0.000000000000000E+000
  -1.38937500000000         0.000000000000000E+000
  -1.17562500000000         0.000000000000000E+000
 -0.961875000000000         0.000000000000000E+000
 -0.748125000000000         0.000000000000000E+000
 -0.534375000000000         0.000000000000000E+000
 -0.320625000000000         0.000000000000000E+000
 -0.106875000000000         0.000000000000000E+000
  0.106875000000000         0.000000000000000E+000
  0.320625000000000         0.000000000000000E+000
  0.534375000000000         0.000000000000000E+000
  0.748125000000000         0.000000000000000E+000
  0.961875000000000         0.000000000000000E+000
   1.17562500000000         0.000000000000000E+000
   1.38937500000000         0.000000000000000E+000
   1.60312500000000         0.000000000000000E+000
   1.81687500000000         0.000000000000000E+000
   2.03062500000000         0.000000000000000E+000
   2.24437500000000         0.000000000000000E+000
   2.45812500000000         0.000000000000000E+000
   2.67187500000000         0.000000000000000E+000
   2.88562500000000         0.000000000000000E+000
   3.09937500000000         0.000000000000000E+000
   3.31312500000000         0.000000000000000E+000
   3.52687500000000         0.000000000000000E+000
   3.74062500000000         0.000000000000000E+000
   3.95437500000000         0.000000000000000E+000
   4.16812500000000         0.000000000000000E+000
   4.38187500000000         0.000000000000000E+000
   4.59562500000000         0.000000000000000E+000
   4.80937500000000         0.000000000000000E+000
   5.02312500000000         0.000000000000000E+000
   5.23687500000000         0.000000000000000E+000
   5.45062500000000         0.000000000000000E+000
   5.66437500000000         0.000000000000000E+000
   5.87812500000000         0.000000000000000E+000
   6.09187500000000         0.000000000000000E+000
   6.30562500000000         0.000000000000000E+000
   6.51937500000000         0.000000000000000E+000
   6.73312500000000         0.000000000000000E+000
   6.94687500000000         0.000000000000000E+000
   7.16062500000000         0.000000000000000E+000
   7.37437500000000         0.000000000000000E+000
   7.58812500000000         0.000000000000000E+000
   7.80187500000000         0.000000000000000E+000
   8.01562500000000         0.000000000000000E+000
   8.22937500000000         0.000000000000000E+000
   8.44312500000000         0.000000000000000E+000
   8.65687500000000         0.000000000000000E+000
   8.87062500000000         0.000000000000000E+000
   9.08437500000000         0.000000000000000E+000
   9.29812500000000        -8.201373225221382E-204
   9.51187500000000         6.519149173922856E-196
   9.72562500000000        -6.527767177343141E-193
   9.93937500000000         7.688680482782560E-191
   10.1531250000000        -1.961279333095445E-188
   10.3668750000000        -1.353252396186789E-186
   10.5806250000000        -3.734878444877028E-185
   10.7943750000000        -4.914902594413436E-184
   11.0081250000000         4.283162748913703E-184
   11.2218750000000         1.631296072915534E-181
   11.4356250000000         4.020948309352964E-180
   11.6493750000000         6.284022826055714E-179
   11.8631250000000         7.426279142343092E-178
   12.0768750000000         7.081165006570812E-177
   12.2906250000000         5.685727515701157E-176
   12.5043750000000         4.070703398173447E-175
   12.7181250000000         2.890407825352150E-174
   12.9318750000000         2.328907956937592E-173
   13.1456250000000         2.183821232751050E-172
   13.3593750000000         2.136361916725682E-171
   13.5731250000000         1.971533938624649E-170
   13.7868750000000         1.644146350349013E-169
   14.0006250000000         1.225208836943534E-168
   14.2143750000000         8.148385346462094E-168
   14.4281250000000         4.831105551874581E-167
   14.6418750000000         2.537532956201284E-166
   14.8556250000000         1.159439217100358E-165
   15.0693750000000         4.388879820948744E-165
   15.2831250000000         1.165265687971917E-164
   15.4968750000000         7.255667623067220E-168
   15.7106250000000        -2.709122884395227E-163
   15.9243750000000        -2.377068986186951E-162
   16.1381250000000        -1.467130583687041E-161
   16.3518750000000        -7.527161424179300E-161
   16.5656250000000        -3.366016566255079E-160
   16.7793750000000        -1.328760062619718E-159
   16.9931250000000        -4.588818188277227E-159
   17.2068750000000        -1.329919588409900E-158
   17.4206250000000        -2.791673843309043E-158
   17.6343750000000        -7.557929846605531E-159
   17.8481250000000         3.334952187260756E-157
   18.0618750000000         2.390814080442687E-156
   18.2756250000000         1.185341566504492E-155
   18.4893750000000         4.907487353460455E-155
   18.7031250000000         1.789791144078497E-154
   18.9168750000000         5.857496268938462E-154
   19.1306250000000         1.723719278140297E-153
   19.3443750000000         4.504037869327192E-153
   19.5581250000000         1.006542543890536E-152
   19.7718750000000         1.719216786838810E-152
   19.9856250000000         1.134095925048772E-152
   20.1993750000000        -6.912290391108166E-152
   20.4131250000000        -4.116235457830626E-151
   20.6268750000000        -1.442128836348062E-150
   20.8406250000000        -3.716788076363901E-150
   21.0543750000000        -6.321275540473595E-150
   21.2681250000000         8.142890128341668E-151
   21.4818750000000         6.438644308785560E-149
   21.6956250000000         3.496232974323963E-148
   21.9093750000000         1.348868239635289E-147
   22.1231250000000         4.324870671829376E-147
   22.3368750000000         1.201128528311003E-146
   22.5506250000000         2.894916123198615E-146
   22.7643750000000         5.838597087154623E-146
   22.9781250000000         8.543749012422641E-146
   23.1918750000000         1.850348291743555E-146
   23.4056250000000        -4.749418730601800E-145
   23.6193750000000        -2.356497735544193E-144
   23.8331250000000        -7.978223313907029E-144
   24.0468750000000        -2.219216618389191E-143
   24.2606250000000        -5.286398895532127E-143
   24.4743750000000        -1.069074409101759E-142
   24.6881250000000        -1.705713487334244E-142
   24.9018750000000        -1.475927455515087E-142
   25.1156250000000         2.948817866551939E-142
   25.3293750000000         2.041708621367815E-141
   25.5431250000000         7.032144109319706E-141
   25.7568750000000         1.870504472686100E-140
   25.9706250000000         4.128206831348870E-140
   26.1843750000000         7.469872322722966E-140
   26.3981250000000         9.796482572671952E-140
   26.6118750000000         2.800970158935080E-140
   26.8256250000000        -3.619839759491800E-139
   27.0393750000000        -1.565384312488746E-138
   27.2531250000000        -4.432748587728382E-138
   27.4668750000000        -9.943692259454372E-138
   27.6806250000000        -1.789675142433740E-137
   27.8943750000000        -2.291067149659560E-137
   28.1081250000000        -5.087816874126824E-138
   28.3218750000000         8.746132389808517E-137
   28.5356250000000         3.629459911813580E-136
   28.7493750000000         9.997319228416841E-136
   28.9631250000000         2.190076070131965E-135
   29.1768750000000         3.866062465655512E-135
   29.3906250000000         4.914185816986716E-135
   29.6043750000000         1.419536113145705E-135
   29.8181250000000        -1.651648964247969E-134
   30.0318750000000        -6.914418893985873E-134
   30.2456250000000        -1.898543888253724E-133
   30.4593750000000        -4.173065331887952E-133
   30.6731250000000        -7.551707775198873E-133
   30.8868750000000        -1.057468180384092E-132
   31.1006250000000        -7.746797962835434E-133
   31.3143750000000         1.506506249568038E-132
   31.5281250000000         8.717614718908357E-132
   31.7418750000000         2.585746836261554E-131
   31.9556250000000         5.943017135698228E-131
   32.1693750000000         1.133774515194016E-130
   32.3831250000000         1.769015491139286E-130
   32.5968750000000         1.970206090833177E-130
   32.8106250000000         2.790334096408090E-131
   33.0243750000000        -6.445754138607347E-130
   33.2381250000000        -2.380114236874622E-129
   33.4518750000000        -5.979785352575854E-129
   33.6656250000000        -1.219903292748041E-128
   33.8793750000000        -2.078899986455201E-128
   34.0931250000000        -2.825418119786656E-128
   34.3068750000000        -2.360695328939820E-128
   34.5206250000000         1.820962393437111E-128
   34.7343750000000         1.439199597480486E-127
   34.9481250000000         4.251476669806602E-127
   35.1618750000000         9.439614636755982E-127
   35.3756250000000         1.734872498584696E-126
   35.5893750000000         2.642348344320048E-126
   35.8031250000000         3.044326982531545E-126
   36.0168750000000         1.412236490023402E-126
   36.2306250000000        -5.231434316593421E-126
   36.4443750000000        -2.167209357309439E-125
   36.6581250000000        -5.396147704198997E-125
   36.8718750000000        -1.065902029624859E-124
   37.0856250000000        -1.752040686545283E-124
   37.2993750000000        -2.322565511615632E-124
   37.5131250000000        -2.039741091355318E-124
   37.7268750000000         5.866079659866361E-125
   37.9406250000000         8.017993977602232E-124
   38.1543750000000         2.351174801135323E-123
   38.3681250000000         4.994418710786776E-123
   38.5818750000000         8.671679145852544E-123
   38.7956250000000         1.237063472356567E-122
   39.0093750000000         1.317219007170886E-122
   39.2231250000000         5.077584435920414E-123
   39.4368750000000        -2.184387255931842E-122
   39.6506250000000        -8.074864391863403E-122
   39.8643750000000        -1.835808020981317E-121
   40.0781250000000        -3.298898298931733E-121
   40.2918750000000        -4.859794982340251E-121
   40.5056250000000        -5.539683154663580E-121
   40.7193750000000        -3.373411703295421E-121
   40.9331250000000         4.769701962023096E-121
   41.1468750000000         2.279930822019918E-120
   41.3606250000000         5.383509120069369E-120
   41.5743750000000         9.674947631337020E-120
   41.7881250000000         1.404268928026788E-119
   42.0018750000000         1.564512243482369E-119
   42.2156250000000         9.322910085480977E-120
   42.4293750000000        -1.218939151920274E-119
   42.6431250000000        -5.620228148615638E-119
   42.8568750000000        -1.249348035967016E-118
   43.0706250000000        -2.066165839375144E-118
   43.2843750000000        -2.641103005774803E-118
   43.4981250000000        -2.264086078084423E-118
   43.7118750000000         5.464212410439251E-120
   43.9256250000000         5.201547389079028E-118
   44.1393750000000         1.305702612127528E-117
   44.3531250000000         2.100672497584375E-117
   44.5668750000000         2.221250791376327E-117
   44.7806250000000         4.807116644749295E-118
   44.9943750000000        -4.561124176756870E-117
   45.2081250000000        -1.365786291284703E-116
   45.4218750000000        -2.486470295840599E-116
   45.6356250000000        -3.035093579887395E-116
   45.8493750000000        -1.278790328166579E-116
   46.0631250000000         5.623045003613592E-116
   46.2768750000000         2.106868785073381E-115
   46.4906250000000         4.696710989848877E-115
   46.7043750000000         7.928551968305369E-115
   46.9181250000000         1.007002699942886E-114
   47.1318750000000         7.137681243755905E-115
   47.3456250000000        -7.785638468621440E-115
   47.5593750000000        -4.404082755652343E-114
   47.7731250000000        -1.100820345965666E-113
   47.9868750000000        -2.052637790659062E-113
   48.2006250000000        -3.049144181798057E-113
   48.4143750000000        -3.389786861371578E-113
   48.6281250000000        -1.696928586148590E-113
   48.8418750000000         4.169413343255547E-113
   49.0556250000000         1.678004989481139E-112
   49.2693750000000         3.797460232933713E-112
   49.4831250000000         6.640407947389853E-112
   49.6968750000000         9.350421896442509E-112
   49.9106250000000         9.828394141381295E-112
   50.1243750000000         4.267493366590102E-112
   50.3381250000000        -1.286368961336214E-111
   50.5518750000000        -4.772530136473762E-111
   50.7656250000000        -1.040036690374413E-110
   50.9793750000000        -1.769259165348766E-110
   51.1931250000000        -2.441073953232554E-110
   51.4068750000000        -2.545220220794694E-110
   51.6206250000000        -1.197938093891707E-110
   51.8343750000000         2.837410954558290E-110
   52.0481250000000         1.088930762549442E-109
   52.2618750000000         2.371080496837025E-109
   52.4756250000000         4.026036010604548E-109
   52.6893750000000         5.591351834139001E-109
   52.9031250000000         6.038636836553961E-109
   53.1168750000000         3.616165199811406E-109
   53.3306250000000        -4.109217109506960E-109
   53.5443750000000        -1.978775294924312E-108
   53.7581250000000        -4.513219283696848E-108
   53.9718750000000        -7.884578947621492E-108
   54.1856250000000        -1.136057512068138E-107
   54.3993750000000        -1.325102393820220E-107
   54.6131250000000        -1.061110204494916E-107
   54.8268750000000         7.891736380616439E-109
   55.0406250000000         2.592005275249527E-107
   55.2543750000000         6.899176585612583E-107
   55.4681250000000         1.306359064497661E-106
   55.6818750000000         2.035823838558322E-106
   55.8956250000000         2.670563366643441E-106
   56.1093750000000         2.808200362107899E-106
   56.3231250000000         1.807952971593896E-106
   56.5368750000000        -1.205065603517900E-106
   56.7506250000000        -7.240250723374386E-106
   56.9643750000000        -1.718368703385334E-105
   57.1781250000000        -3.130501204799670E-105
   57.3918750000000        -4.844442481045730E-105
   57.6056250000000        -6.480714246325301E-105
   57.8193750000000        -7.235158156328022E-105
   58.0331250000000        -5.691722874032010E-105
   58.2468750000000         3.414153386018027E-106
   58.4606250000000         1.385799882023282E-104
   58.6743750000000         3.832228886550256E-104
   58.8881250000000         7.661603935645517E-104
   59.1018750000000         1.287487066730673E-103
   59.3156250000000         1.877481511467639E-103
   59.5293750000000         2.333438448376456E-103
   59.7431250000000         2.237964476850326E-103
   59.9568750000000         8.787997487359769E-104
   60.1706250000000        -2.780892628527536E-103
   60.3843750000000        -9.991317125075765E-103
   60.5981250000000        -2.182639142817822E-102
   60.8118750000000        -3.834579259387530E-102
   61.0256250000000        -5.716072617327384E-102
   61.2393750000000        -7.139265785234863E-102
   61.4531250000000        -6.734282655514374E-102
   61.6668750000000        -2.277715448393225E-102
   61.8806250000000         9.241566400886742E-102
   62.0943750000000         3.104452441938772E-101
   62.3081250000000         6.512145311497566E-101
   62.5218750000000         1.095962309968102E-100
   62.7356250000000         1.547812463431914E-100
   62.9493750000000         1.783592201770604E-100
   63.1631250000000         1.411247067073548E-100
   63.3768750000000        -1.382075481961313E-101
   63.5906250000000        -3.538008043177000E-100
   63.8043750000000        -9.351885945278340E-100
   64.0181250000000        -1.761864767600738E-099
   64.2318750000000        -2.720453607008402E-099
   64.4456250000000        -3.497302165863254E-099
   64.6593750000000        -3.496965685107046E-099
   64.8731250000000        -1.803944214939027E-099
   65.0868750000000         2.744077586975121E-099
   65.3006250000000         1.128001118158732E-098
   65.5143750000000         2.433158174108095E-098
   65.7281250000000         4.088480586153117E-098
   65.9418750000000         5.712895210566010E-098
   66.1556250000000         6.512163498818946E-098
   66.3693750000000         5.191040765798820E-098
   66.5831250000000         1.611650282262970E-101
   66.7968750000000        -1.094714730472835E-097
   67.0106250000000        -2.897972189790686E-097
   67.2243750000000        -5.364043374666366E-097
   67.4381250000000        -8.099065473312037E-097
   67.6518750000000        -1.016674603328586E-096
   67.8656250000000        -9.932210266286193E-097
   68.0793750000000        -5.052786747639706E-097
   68.2931250000000         7.228182965703764E-097
   68.5068750000000         2.930200402088921E-096
   68.7206250000000         6.177390743060242E-096
   68.9343750000000         1.013662923985017E-095
   69.1481250000000         1.383685550305835E-095
   69.3618750000000         1.542733575701128E-095
   69.5756250000000         1.207951700239080E-095
   69.7893750000000         2.060832198454080E-097
   70.0031250000000        -2.378205431094075E-095
   70.2168750000000        -6.197058594949359E-095
   70.4306250000000        -1.125867720601371E-094
   70.6443750000000        -1.669481277572592E-094
   70.8581250000000        -2.063041999781368E-094
   71.0718750000000        -1.997684838987562E-094
   71.2856250000000        -1.052298217410756E-094
   71.4993750000000         1.242935055629272E-094
   71.7131250000000         5.262815607052493E-094
   71.9268750000000         1.104569722318215E-093
   72.1406250000000         1.795971815020936E-093
   72.3543750000000         2.432393857890124E-093
   72.5681250000000         2.709315258246057E-093
   72.7818750000000         2.178980686387323E-093
   72.9956250000000         2.936716945025949E-094
   73.2093750000000        -3.472140442151746E-093
   73.4231250000000        -9.396678581623041E-093
   73.6368750000000        -1.717700000900785E-092
   73.8506250000000        -2.551746254576308E-092
   74.0643750000000        -3.172916251235930E-092
   74.2781250000000        -3.150342772479261E-092
   74.4918750000000        -1.910007877439349E-092
   74.7056250000000         1.175471689149756E-092
   74.9193750000000         6.597640299783713E-092
   75.1331250000000         1.440773583941536E-091
   75.3468750000000         2.381053172318793E-091
   75.5606250000000         3.271964321921151E-091
   75.7743750000000         3.740590447964105E-091
   75.9881250000000         3.244837956283516E-091
   76.2018750000000         1.126433007578788E-091
   76.4156250000000        -3.248381010681901E-091
   76.6293750000000        -1.023751316522257E-090
   76.8431250000000        -1.955904793042625E-090
   77.0568750000000        -2.985158980032885E-090
   77.2706250000000        -3.825373546319128E-090
   77.4843750000000        -4.016884319818130E-090
   77.6981250000000        -2.945169267694441E-090
   77.9118750000000         7.026556714271092E-092
   78.1256250000000         5.590742037799456E-090
   78.3393750000000         1.376371928067742E-089
   78.5531250000000         2.393287442295912E-089
   78.7668750000000         3.421188069409966E-089
   78.9806250000000         4.114033832772614E-089
   79.1943750000000         3.960589992544138E-089
   79.4081250000000         2.327044802444023E-089
   79.6218750000000        -1.424732585833616E-089
   79.8356250000000        -7.724072374471473E-089
   80.0493750000000        -1.648146936235966E-088
   80.2631250000000        -2.671063375188811E-088
   80.4768750000000        -3.615669161784136E-088
   80.6906250000000        -4.105920368185377E-088
   80.9043750000000        -3.623183177761376E-088
   81.1181250000000        -1.567352850288685E-088
   81.3318750000000         2.608678339976877E-088
   81.5456250000000         9.179870045636995E-088
   81.7593750000000         1.785298020494571E-087
   81.9731250000000         2.743205667966601E-087
   82.1868750000000         3.552465140456437E-087
   82.4006250000000         3.841293223037995E-087
   82.6143750000000         3.125183962970243E-087
   82.8281250000000         8.770301585490202E-088
   83.0418750000000        -3.338023409367840E-087
   83.2556250000000        -9.658533289978451E-087
   83.4693750000000        -1.766746623526482E-086
   83.6831250000000        -2.611865184419014E-086
   83.8968750000000        -3.272327685293413E-086
   84.1106250000000        -3.410440223111944E-086
   84.3243750000000        -2.605152086652855E-086
   84.5381250000000        -4.207699811046526E-087
   84.7518750000000         3.471721625885010E-086
   84.9656250000000         9.120747527248521E-086
   85.1793750000000         1.608332802100510E-085
   85.3931250000000         2.321461566062145E-085
   85.6068750000000         2.852002748064855E-085
   85.8206250000000         2.915561030310301E-085
   86.0343750000000         2.167625100254804E-085
   86.2481250000000         2.625783247058381E-086
   86.4618750000000        -3.047303241203771E-085
   86.6756250000000        -7.774655007983339E-085
   86.8893750000000        -1.353538076296657E-084
   87.1031250000000        -1.939207152413371E-084
   87.3168750000000        -2.374957301004757E-084
   87.5306250000000        -2.436549695167195E-084
   87.7443750000000        -1.854688520037253E-084
   87.9581250000000        -3.598605853027302E-085
   88.1718750000000         2.243768299349857E-084
   88.3856250000000         5.976876100397561E-084
   88.5993750000000         1.056566251523259E-083
   88.8131250000000         1.532517573674283E-083
   89.0268750000000         1.907776369133835E-083
   89.2406250000000         2.015001221576716E-083
   89.4543750000000         1.649793662270254E-083
   89.6681250000000         6.007878144057421E-084
   89.8818750000000        -1.299502796662154E-083
   90.0956250000000        -4.103177560027602E-083
   90.3093750000000        -7.660100495423922E-083
   90.5231250000000        -1.152808282854696E-082
   90.7368750000000        -1.490074459532889E-082
   90.9506250000000        -1.658197753975699E-082
   91.1643750000000        -1.504226567108828E-082
   91.3781250000000        -8.593885408360113E-083
   91.5918750000000         4.283945668602392E-083
   91.8056250000000         2.445587114086349E-082
   92.0193750000000         5.149385242834103E-082
   92.2331250000000         8.295605424435595E-082
   92.4468750000000         1.137041300612754E-081
   92.6606250000000         1.354510812218916E-081
   92.8743750000000         1.367995151034690E-081
   93.0881250000000         1.040790277623670E-081
   93.3018750000000         2.329726564898704E-082
   93.5156250000000        -1.165485038938222E-081
   93.7293750000000        -3.187271611416003E-081
   93.9431250000000        -5.728361610306873E-081
   94.1568750000000        -8.483740441516082E-081
   94.3706250000000        -1.089130446487256E-080
   94.5843750000000        -1.210385770743559E-080
   94.7981250000000        -1.101554416456889E-080
   95.0118750000000        -6.373020370581453E-081
   95.2256250000000         2.999633760772503E-081
   95.4393750000000         1.784326182305078E-080
   95.6531250000000         3.797638884400900E-080
   95.8668750000000         6.171845144101745E-080
   96.0806250000000         8.531552378471388E-080
   96.2943750000000         1.025238488218014E-079
   96.5081250000000         1.045714803304672E-079
   96.7218750000000         8.076809269000809E-080
   96.9356250000000         2.004286945309049E-080
   97.1493750000000        -8.637036281005097E-080
   97.3631250000000        -2.410450958227131E-079
   97.5768750000000        -4.355071862650657E-079
   97.7906250000000        -6.450753401974000E-079
   98.0043750000000        -8.245933199601438E-079
   98.2181250000000        -9.068154220571853E-079
   98.4318750000000        -8.056663309901807E-079
   98.6456250000000        -4.267503453233583E-079
   98.8593750000000         3.129151406812271E-079
   99.0731250000000         1.455179720944071E-078
   99.2868750000000         2.962519160084313E-078
   99.5006250000000         4.676033864021884E-078
   99.7143750000000         6.278596372371288E-078
   99.9281250000000         7.276473096958920E-078
   100.141875000000         7.016381307085513E-078
   100.355625000000         4.756293089526533E-078
   100.569375000000        -1.944774458738781E-079
   100.783125000000        -8.259149549574055E-078
   100.996875000000        -1.931077306176476E-077
   101.210625000000        -3.235633987248975E-077
   101.424375000000        -4.525111435393332E-077
   101.638125000000        -5.453835480871828E-077
   101.851875000000        -5.553562623141837E-077
   102.065625000000        -4.279861204440487E-077
   102.279375000000        -1.107402329767320E-077
   102.493125000000         4.320778873145823E-077
   102.706875000000         1.199617895462980E-076
   102.920625000000         2.132239915274007E-076
   103.134375000000         3.091031105624140E-076
   103.348125000000         3.845513387175375E-076
   103.561875000000         4.077709933527387E-076
   103.775625000000         3.411369110369167E-076
   103.989375000000         1.473846874963077E-076
   104.203125000000        -2.005881506967301E-076
   104.416875000000        -7.066931873276638E-076
   104.630625000000        -1.336843553928345E-075
   104.844375000000        -2.005130267111871E-075
   105.058125000000        -2.565112132974387E-075
   105.271875000000        -2.811447245330142E-075
   105.485625000000        -2.497484444391350E-075
   105.699375000000        -1.373606618115005E-075
   105.913125000000         7.514122540193463E-076
   106.126875000000         3.928334470122474E-075
   106.340625000000         7.973550529549318E-075
   106.554375000000         1.238028996115011E-074
   106.768125000000         1.626026261309025E-074
   106.981875000000         1.834772092267278E-074
   107.195625000000         1.710029998910180E-074
   107.409375000000         1.092603215460762E-074
   107.623125000000        -1.449194278909861E-075
   107.836875000000        -2.048661050917950E-074
   108.050625000000        -4.526387989197500E-074
   108.264375000000        -7.292834813045775E-074
   108.478125000000        -9.832306399554027E-074
   108.691875000000        -1.139737396117190E-073
   108.905625000000        -1.106390492339058E-073
   109.119375000000        -7.859854365343333E-074
   109.333125000000        -9.765892569113558E-075
   109.546875000000         9.944015578768015E-074
   109.760625000000         2.447576584152045E-073
   109.974375000000         4.108388935583741E-073
   110.188125000000         5.689468174177840E-073
   110.401875000000         6.766592650213261E-073
   110.615625000000         6.807341631809677E-073
   110.829375000000         5.241371652933148E-073
   111.043125000000         1.577560620564679E-073
   111.256875000000        -4.435322051134825E-073
   111.470625000000        -1.262008934526137E-072
   111.684375000000        -2.218547340129153E-072
   111.898125000000        -3.158958957785754E-072
   112.111875000000        -3.851132324532675E-072
   112.325625000000        -3.999333344595280E-072
   112.539375000000        -3.281245688160163E-072
   112.753125000000        -1.410780608752510E-072
   112.966875000000         1.774920516525235E-072
   113.180625000000         6.212487677093718E-072
   113.394375000000         1.150960650003063E-071
   113.608125000000         1.686721825578963E-071
   113.821875000000         2.105802713983069E-071
   114.035625000000         2.249542664781521E-071
   114.249375000000         1.942291649898252E-071
   114.463125000000         1.024079230739627E-071
   114.676875000000        -6.037183211551595E-072
   114.890625000000        -2.923900435153099E-071
   115.104375000000        -5.748558621005217E-071
   115.318125000000        -8.676543250431573E-071
   115.531875000000        -1.107955469721952E-070
   115.745625000000        -1.213455752911961E-070
   115.959375000000        -1.091815840078675E-070
   116.173125000000        -6.571793032143698E-071
   116.386875000000         1.465715471319176E-071
   116.600625000000         1.317925174468491E-070
   116.814375000000         2.769453338112292E-070
   117.028125000000         4.305556139853712E-070
   117.241875000000         5.614426287613433E-070
   117.455625000000         6.283111641153586E-070
   117.669375000000         5.843495869821238E-070
   117.883125000000         3.853598716603450E-070
   118.096875000000         1.247530935667942E-072
   118.310625000000        -5.701703288965870E-070
   118.524375000000        -1.289127742160038E-069
   118.738125000000        -2.062795935963456E-069
   118.951875000000        -2.741082787206385E-069
   119.165625000000        -3.123641401243296E-069
   119.379375000000        -2.981830230343954E-069
   119.593125000000        -2.097674266304722E-069
   119.806875000000        -3.188987543147581E-070
   120.020625000000         2.375068189110367E-069
   120.234375000000         5.806187552200100E-069
   120.448125000000         9.545012410068950E-069
   120.661875000000         1.289080115921286E-068
   120.875625000000         1.490451902388811E-068
   121.089375000000         1.451178767057698E-068
   121.303125000000         1.068460090363935E-068
   121.516875000000         2.696511811224503E-069
   121.730625000000        -9.573409577421550E-069
   121.944375000000        -2.533516413689599E-068
   122.158125000000        -4.265030033063763E-068
   122.371875000000        -5.834766253231809E-068
   122.585625000000        -6.818137880483157E-068
   122.799375000000        -6.730468856827132E-068
   123.013125000000        -5.109387541418422E-068
   123.226875000000        -1.629158556679560E-068
   123.440625000000         3.764826930744216E-068
   123.654375000000         1.072306967201037E-067
   123.868125000000         1.839145521970614E-067