  -1.60312500000000         0.000000000000000E+000
  -1.38937500000000         0.000000000000000E+000
  -1.17562500000000         0.000000000000000E+000
 -0.961875000000000         0.000000000000000E+000
 -0.748125000000000         0.000000000000000E+000
 -0.534375000000000         0.000000000000000E+000
 -0.320625000000000         0.000000000000000E+000
 -0.106875000000000         0.000000000000000E+000
  0.106875000000000         0.000000000000000E+000
  0.320625000000000         0.000000000000000E+000
  0.534375000000000         0.000000000000000E+000
  0.748125000000000         0.000000000000000E+000
  0.961875000000000         0.000000000000000E+000
   1.17562500000000         0.000000000000000E+000
   1.38937500000000         0.000000000000000E+000
   1.60312500000000         0.000000000000000E+000
   1.81687500000000         0.000000000000000E+000
   2.03062500000000         0.000000000000000E+000
   2.24437500000000         0.000000000000000E+000
   2.45812500000000         0.000000000000000E+000
   2.67187500000000         0.000000000000000E+000
   2.88562500000000         0.000000000000000E+000
   3.09937500000000         0.000000000000000E+000
   3.31312500000000         0.000000000000000E+000
   3.52687500000000         0.000000000000000E+000
   3.74062500000000         0.000000000000000E+000
   3.95437500000000         0.000000000000000E+000
   4.16812500000000         0.000000000000000E+000
   4.38187500000000         0.000000000000000E+000
   4.59562500000000         0.000000000000000E+000
   4.80937500000000         0.000000000000000E+000
   5.02312500000000         0.000000000000000E+000
   5.23687500000000         0.000000000000000E+000
   5.45062500000000         0.000000000000000E+000
   5.66437500000000         0.000000000000000E+000
   5.87812500000000         0.000000000000000E+000
   6.09187500000000         0.000000000000000E+000
   6.30562500000000         0.000000000000000E+000
   6.51937500000000         0.000000000000000E+000
   6.73312500000000         0.000000000000000E+000
   6.94687500000000         0.000000000000000E+000
   7.16062500000000         0.000000000000000E+000
   7.37437500000000         0.000000000000000E+000
   7.58812500000000         0.000000000000000E+000
   7.80187500000000         0.000000000000000E+000
   8.01562500000000         0.000000000000000E+000
   8.22937500000000         0.000000000000000E+000
   8.44312500000000         0.000000000000000E+000
   8.65687500000000         0.000000000000000E+000
   8.87062500000000         0.000000000000000E+000
   9.08437500000000         0.000000000000000E+000
   9.29812500000000         0.000000000000000E+000
   9.51187500000000        -3.747130538729660E-205
   9.72562500000000         2.978538065599235E-197
   9.93937500000000        -2.976518549342123E-194
   10.1531250000000         3.453325874836326E-192
   10.3668750000000        -8.891537233623947E-190
   10.5806250000000        -6.361059408025257E-188
   10.7943750000000        -1.832762981416036E-186
   11.0081250000000        -2.605764455050857E-185
   11.2218750000000        -3.071315706632212E-185
   11.4356250000000         7.417870153562098E-183
   11.6493750000000         1.985798120794874E-181
   11.8631250000000         3.260852870516274E-180
   12.0768750000000         4.025309911664905E-179
   12.2906250000000         4.007771359208086E-178
   12.5043750000000         3.359056770953366E-177
   12.7181250000000         2.491599860379682E-176
   12.9318750000000         1.785329642196437E-175
   13.1456250000000         1.396206141848180E-174
   13.3593750000000         1.259155379867569E-173
   13.5731250000000         1.213952745914026E-172
   13.7868750000000         1.130974368811057E-171
   14.0006250000000         9.652503999055006E-171
   14.2143750000000         7.415267675596436E-170
   14.4281250000000         5.109449368814646E-169
   14.6418750000000         3.155024032043911E-168
   14.8556250000000         1.739285331037538E-167
   15.0693750000000         8.460437344375614E-167
   15.2831250000000         3.523396980214529E-166
   15.4968750000000         1.152473991067693E-165
   15.7106250000000         1.952939788765444E-165
   15.9243750000000        -9.624322892068180E-165
   16.1381250000000        -1.298076390496089E-163
   16.3518750000000        -9.203091645445367E-163
   16.5656250000000        -5.149900177608634E-162
   16.7793750000000        -2.475850531783910E-161
   16.9931250000000        -1.050769120066058E-160
   17.2068750000000        -3.950541197007073E-160
   17.4206250000000        -1.292659119343151E-159
   17.6343750000000        -3.465753726051214E-159
   17.8481250000000        -5.984163061891454E-159
   18.0618750000000         6.734511494095142E-159
   18.2756250000000         1.286872399973076E-157
   18.4893750000000         7.922114176592364E-157
   18.7031250000000         3.697920559423308E-156
   18.9168750000000         1.478101764556227E-155
   19.1306250000000         5.262646604420584E-155
   19.3443750000000         1.692270322742563E-154
   19.5581250000000         4.916128662183638E-154
   19.7718750000000         1.273878552129708E-153
   19.9856250000000         2.841638270290328E-153
   20.1993750000000         4.927555784456434E-153
   20.4131250000000         3.855312621647639E-153
   20.6268750000000        -1.602362445091511E-152
   20.8406250000000        -1.017920760604367E-151
   21.0543750000000        -3.573770903902033E-151
   21.2681250000000        -9.017752579683891E-151
   21.4818750000000        -1.408969323946132E-150
   21.6956250000000         1.025592832469851E-150
   21.9093750000000         1.943411567673068E-149
   22.1231250000000         9.947116382595318E-149
   22.3368750000000         3.771074984048050E-148
   22.5506250000000         1.203528196989001E-147
   22.7643750000000         3.352608932423989E-147
   22.9781250000000         8.169289940132231E-147
   23.1918750000000         1.688952977396939E-146
   23.4056250000000         2.645517639528893E-146
   23.6193750000000         1.432117409449487E-146
   23.8331250000000        -1.054790005266863E-145
   24.0468750000000        -5.897967187759228E-145
   24.2606250000000        -2.088053704811383E-144
   24.4743750000000        -6.001616786225826E-144
   24.6881250000000        -1.479968061710035E-143
   24.9018750000000        -3.139098946096560E-143
   25.1156250000000        -5.472567248088032E-143
   25.3293750000000        -6.458748312019421E-143
   25.5431250000000         1.883445904895475E-143
   25.7568750000000         4.235484729378185E-142
   25.9706250000000         1.682878444417530E-141
   26.1843750000000         4.828347415201496E-141
   26.3981250000000         1.138673102018456E-140
   26.6118750000000         2.242103567059731E-140
   26.8256250000000         3.473507732753227E-140
   27.0393750000000         3.051041048332665E-140
   27.2531250000000        -4.523519805069681E-140
   27.4668750000000        -3.235089338562289E-139
   27.6806250000000        -1.056100646784738E-138
   27.8943750000000        -2.606378154086762E-138
   28.1081250000000        -5.203422763313710E-138
   28.3218750000000        -8.032924955691193E-138
   28.5356250000000        -6.866401254156320E-138
   28.7493750000000         1.088278452258807E-137
   28.9631250000000         7.430878460529130E-137
   29.1768750000000         2.377973071360083E-136
   29.3906250000000         5.779225992889639E-136
   29.6043750000000         1.142572434370840E-135
   29.8181250000000         1.772079543647236E-135
   30.0318750000000         1.646963725367774E-135
   30.2456250000000        -1.637285262896698E-135
   30.4593750000000        -1.359580328810292E-134
   30.6731250000000        -4.462066558983032E-134
   30.8868750000000        -1.101485727438375E-133
   31.1006250000000        -2.239912096831746E-133
   31.3143750000000        -3.732282402523978E-133
   31.5281250000000        -4.536344126284665E-133
   31.7418750000000        -1.357409412614116E-133
   31.9556250000000         1.363556018216957E-132
   32.1693750000000         5.578161791210199E-132
   32.3831250000000         1.497287703276410E-131
   32.5968750000000         3.245005820813110E-131
   32.8106250000000         5.892892630569388E-131
   33.0243750000000         8.668267189252336E-131
   33.2381250000000         8.498637110950637E-131
   33.4518750000000        -2.545511779921502E-131
   33.6656250000000        -4.091073934183590E-130
   33.8793750000000        -1.350122046900714E-129
   34.0931250000000        -3.240966614507075E-129
   34.3068750000000        -6.422718232749086E-129
   34.5206250000000        -1.068304941526499E-128
   34.7343750000000        -1.411139995174192E-128
   34.9481250000000        -1.096418245229277E-128
   35.1618750000000         1.160763337556495E-128
   35.3756250000000         7.730816351488857E-128
   35.5893750000000         2.222733916715795E-127
   35.8031250000000         4.879650384786806E-127
   36.0168750000000         8.927491310611020E-127
   36.2306250000000         1.362056984900983E-126
   36.4443750000000         1.592345509285383E-126
   36.6581250000000         8.324563959028248E-127
   36.8718750000000        -2.392882014643526E-126
   37.0856250000000        -1.048822687023058E-125
   37.2993750000000        -2.658848136882867E-125
   37.5131250000000        -5.330031994948187E-125
   37.7268750000000        -8.933154435081018E-125
   37.9406250000000        -1.226826119500424E-124
   38.1543750000000        -1.194002167525454E-124
   38.3681250000000        -8.694849117551568E-126
   38.5818750000000         3.302008271457486E-124
   38.7956250000000         1.065297393883852E-123
   39.0093750000000         2.365596663671618E-123
   39.2231250000000         4.267720948907570E-123
   39.4368750000000         6.401835306785316E-123
   39.6506250000000         7.537923606058328E-123
   39.8643750000000         4.984682066542625E-123
   40.0781250000000        -5.956194213834747E-123
   40.2918750000000        -3.196942755031568E-122
   40.5056250000000        -8.018660855532962E-122
   40.7193750000000        -1.537140825487057E-121
   40.9331250000000        -2.426543583570914E-121
   41.1468750000000        -3.098023130605525E-121
   41.3606250000000        -2.727823659410692E-121
   41.5743750000000         1.020506583458350E-122
   41.7881250000000         7.352317846226200E-121
   42.0018750000000         2.101855811604896E-120
   42.2156250000000         4.183290815331983E-120
   42.4293750000000         6.690680840636490E-120
   42.6431250000000         8.641148994983170E-120
   42.8568750000000         8.023787597866265E-120
   43.0706250000000         1.698272150794435E-120
   43.2843750000000        -1.406736131333499E-119
   43.4981250000000        -4.189994680744269E-119
   43.7118750000000        -8.007692933424828E-119
   43.9256250000000        -1.180042571187200E-118
   44.1393750000000        -1.321662025275574E-118
   44.3531250000000        -8.667181968448716E-119
   44.5668750000000         5.480032019274696E-119
   44.7806250000000         2.977593263053484E-118
   44.9943750000000         5.626815977006238E-118
   45.2081250000000         6.192103815137938E-118
   45.4218750000000         5.172421308546308E-119
   45.6356250000000        -1.651806922853412E-117
   45.8493750000000        -4.742043861440527E-117
   46.0631250000000        -8.416548112307625E-117
   46.2768750000000        -9.521935817070583E-117
   46.4906250000000        -1.001237561781862E-117
   46.7043750000000         2.897829288947108E-116
   46.9181250000000         9.518263398216419E-116
   47.1318750000000         2.073959843702166E-115
   47.3456250000000         3.522207312033731E-115
   47.5593750000000         4.614736257770044E-115
   47.7731250000000         3.695081080724639E-115
   47.9868750000000        -2.254119055130457E-115
   48.2006250000000        -1.758162882171393E-114
   48.4143750000000        -4.684039249766567E-114
   48.6281250000000        -9.158677455070591E-114
   48.8418750000000        -1.440862642268041E-113
   49.0556250000000        -1.775360952200686E-113
   49.2693750000000        -1.343194513736176E-113
   49.4831250000000         8.239959039660638E-114
   49.6968750000000         6.025126459006218E-113
   49.9106250000000         1.549837711832567E-112
   50.1243750000000         2.946212891964718E-112
   50.3381250000000         4.537565843241338E-112
   50.5518750000000         5.541188875792453E-112
   50.7656250000000         4.364287631458738E-112
   50.9793750000000        -1.564443747755951E-112
   51.1931250000000        -1.557675438540240E-111
   51.4068750000000        -4.074210306468527E-111
   51.6206250000000        -7.753632431838341E-111
   51.8343750000000        -1.198038124163764E-110
   52.0481250000000        -1.491074358702696E-110
   52.2618750000000        -1.286588336558687E-110
   52.4756250000000         1.222135710501466E-113
   52.6893750000000         3.128490717137307E-110
   52.9031250000000         8.810395532658773E-110
   53.1168750000000         1.725129690658140E-109
   53.3306250000000         2.734439025874912E-109
   53.5443750000000         3.556002083749350E-109
   53.7581250000000         3.473481260391260E-109
   53.9718750000000         1.328912857742866E-109
   54.1856250000000        -4.418045748146151E-109
   54.3993750000000        -1.535554462128274E-108
   54.6131250000000        -3.234731210343448E-108
   54.8268750000000        -5.418719263084184E-108
   55.0406250000000        -7.566650712152167E-108
   55.2543750000000        -8.530319251008098E-108
   55.4681250000000        -6.341818687678129E-108
   55.6818750000000         1.815313970179351E-108
   55.8956250000000         1.927393488792494E-107
   56.1093750000000         4.893410946254879E-107
   56.3231250000000         9.142468822285964E-107
   56.5368750000000         1.421756346147920E-106
   56.7506250000000         1.874207492391514E-106
   56.9643750000000         1.995858370819186E-106
   57.1781250000000         1.332402698376692E-106
   57.3918750000000        -7.613496260899762E-107
   57.6056250000000        -5.068482303498176E-106
   57.8193750000000        -1.233659256335634E-105
   58.0331250000000        -2.291037875523307E-105
   58.2468750000000        -3.608465976835307E-105
   58.4606250000000        -4.910295131403470E-105
   58.6743750000000        -5.578965311749090E-105
   58.8881250000000        -4.496726040975711E-105
   59.1018750000000         8.602824045720792E-107
   59.3156250000000         1.055119022787006E-104
   59.5293750000000         2.959438922728686E-104
   59.7431250000000         5.929884973748114E-104
   59.9568750000000         9.922836013323484E-104
   60.1706250000000         1.431730241934868E-103
   60.3843750000000         1.744120505426804E-103
   60.5981250000000         1.600016856333833E-103
   60.8118750000000         4.586858451293621E-104
   61.0256250000000        -2.434628480508714E-103
   61.2393750000000        -7.939562796822883E-103
   61.4531250000000        -1.670636071979413E-102
   61.6668750000000        -2.854998925416999E-102
   61.8806250000000        -4.143428462333438E-102
   62.0943750000000        -5.009619494361866E-102
   62.3081250000000        -4.457415309910109E-102
   62.5218750000000        -9.298729839974110E-103
   62.7356250000000         7.605018389692983E-102
   62.9493750000000         2.321171980138534E-101
   63.1631250000000         4.696748677119868E-101
   63.3768750000000         7.717110928605852E-101
   63.5906250000000         1.067432744701679E-100
   63.8043750000000         1.201506125932556E-100
   64.0181250000000         9.083006057167390E-101
   64.2318750000000        -1.898844093336581E-101
   64.4456250000000        -2.531019173173628E-100
   64.6593750000000        -6.470038509388713E-100
   64.8731250000000        -1.200678868307591E-099
   65.0868750000000        -1.836774405659173E-099
   65.3006250000000        -2.347495610634600E-099
   65.5143750000000        -2.342843679733785E-099
   65.7281250000000        -1.226504589940863E-099
   65.9418750000000         1.757822950159921E-099
   66.1556250000000         7.352318753575715E-099
   66.3693750000000         1.592216100806908E-098
   66.5831250000000         2.686374112244876E-098
   66.7968750000000         3.780605758473317E-098
   67.0106250000000         4.374672507299318E-098
   67.2243750000000         3.644682931099235E-098
   67.4381250000000         4.639122249207264E-099
   67.6518750000000        -6.417245567275239E-098
   67.8656250000000        -1.794349430883545E-097
   68.0793750000000        -3.400767680659058E-097
   68.2931250000000        -5.238043019946653E-097
   68.5068750000000        -6.745069455952773E-097
   68.7206250000000        -6.913314798873235E-097
   68.9343750000000        -4.259168224327689E-097
   69.1481250000000         3.026309219006275E-097
   69.3618750000000         1.663371622116725E-096
   69.5756250000000         3.728972829943397E-096
   69.7893750000000         6.346475845062116E-096
   70.0031250000000         8.973394609292551E-096
   70.2168750000000         1.051373360773202E-095
   70.4306250000000         9.222694631563455E-096
   70.6443750000000         2.787671590066032E-096
   70.8581250000000        -1.127505489479079E-095
   71.0718750000000        -3.476362686646120E-095
   71.2856250000000        -6.737943358451212E-095
   71.4993750000000        -1.048030922049549E-094
   71.7131250000000        -1.365478970813890E-094
   71.9268750000000        -1.442473908381634E-094
   72.1406250000000        -1.014801295163334E-094
   72.3543750000000         2.334340031022665E-095
   72.5681250000000         2.593007251345446E-094
   72.7818750000000         6.190441241250703E-094
   72.9956250000000         1.078343107882239E-093
   73.2093750000000         1.551059676044018E-093
   73.4231250000000         1.865137402535549E-093
   73.6368750000000         1.749889694018893E-093
   73.8506250000000         8.498409585281768E-094
   74.0643750000000        -1.216076718057317E-093
   74.2781250000000        -4.731670083742653E-093
   74.4918750000000        -9.686625527710272E-093
   74.7056250000000        -1.551424566455608E-092
   74.9193750000000        -2.080480380667645E-092
   75.1331250000000        -2.308096194870345E-092
   75.3468750000000        -1.877436065822506E-092
   75.5606250000000        -3.588950647157028E-093
   75.7743750000000         2.654575760411357E-092
   75.9881250000000         7.377087293177766E-092
   76.2018750000000         1.358213486781427E-091
   76.4156250000000         2.030183912330409E-091
   76.6293750000000         2.553738854858531E-091
   76.8431250000000         2.609551418536227E-091
   77.0568750000000         1.771729418880182E-091
   77.2706250000000        -4.299837328874493E-092
   77.4843750000000        -4.379474195091292E-091
   77.6981250000000        -1.016424144472954E-090
   77.9118750000000        -1.729462892181549E-090
   78.1256250000000        -2.439291272001362E-090
   78.3393750000000        -2.893683889434780E-090
   78.5531250000000        -2.719225076420871E-090
   78.7668750000000        -1.451295668091732E-090
   78.9806250000000         1.379742495512667E-090
   79.1943750000000         6.090444148243690E-090
   79.4081250000000         1.261070223803695E-089
   79.6218750000000         2.019416528202186E-089
   79.8356250000000         2.712668136440739E-089
   80.0493750000000         3.053014119207542E-089
   80.2631250000000         2.640337218185658E-089
   80.4768750000000         1.007276502259150E-089
   80.6906250000000        -2.277749556788138E-089
   80.9043750000000        -7.438732139055874E-089
   81.1181250000000        -1.425511314790049E-088
   81.3318750000000        -2.178760298010903E-088
   81.5456250000000        -2.812821213514158E-088
   81.7593750000000        -3.027462472760427E-088
   81.9731250000000        -2.426417803611669E-088
   82.1868750000000        -5.720281823221068E-089
   82.4006250000000         2.905449457281308E-088
   82.6143750000000         8.137977958366817E-088
   82.8281250000000         1.479837371353378E-087
   83.0418750000000         2.185947632598405E-087
   83.2556250000000         2.739546733666362E-087
   83.4693750000000         2.851856503590164E-087
   83.6831250000000         2.156956304474311E-087
   83.8968750000000         2.687193888335150E-088
   84.1106250000000        -3.114613368145791E-087
   84.3243750000000        -8.056144290187850E-087
   84.5381250000000        -1.418794477732079E-086
   84.7518750000000        -2.051199112410187E-086
   84.9656250000000        -2.524984040740633E-086
   85.1793750000000        -2.582050565251902E-086
   85.3931250000000        -1.904284910603466E-086
   85.6068750000000        -1.658652301234190E-087
   85.8206250000000         2.875607768421696E-086
   86.0343750000000         7.249173268330927E-086
   86.2481250000000         1.261310635506127E-085
   86.4618750000000         1.809700901667791E-085
   86.6756250000000         2.218862739585643E-085
   86.8893750000000         2.272807878927807E-085
   87.1031250000000         1.708334160629494E-085
   87.3168750000000         2.578548744605652E-086
   87.5306250000000        -2.277720137312739E-085
   87.7443750000000        -5.926531862154544E-085
   87.9581250000000        -1.042273338409649E-084
   88.1718750000000        -1.508335183377027E-084
   88.3856250000000        -1.871881358279891E-084
   88.5993750000000        -1.962349667476935E-084
   88.8131250000000        -1.570082761661608E-084
   89.0268750000000        -4.776229437867572E-085
   89.2406250000000         1.486482011741883E-084
   89.4543750000000         4.371222134772475E-084
   89.6681250000000         8.009737515278758E-084
   89.8818750000000         1.192274721580126E-083
   90.0956250000000         1.524202627136755E-083
   90.3093750000000         1.668660196704686E-083
   90.5231250000000         1.463134955980912E-083
   90.7368750000000         7.309024183984792E-084
   90.9506250000000        -6.821311702964727E-084
   91.1643750000000        -2.852779767178978E-083
   91.3781250000000        -5.710695380449439E-083
   91.5918750000000        -8.961257561260303E-083
   91.8056250000000        -1.201609028067179E-082
   92.0193750000000        -1.395355717503642E-082
   92.2331250000000        -1.353831822743679E-082
   92.4468750000000        -9.332894932713402E-083
   92.6606250000000         6.756346688773033E-085
   92.8743750000000         1.565665478212844E-082
   93.0881250000000         3.749598769290123E-082
   93.3018750000000         6.409059380804804E-082
   93.5156250000000         9.174963014951055E-082
   93.7293750000000         1.140836746122867E-081
   93.9431250000000         1.218553738892166E-081
   94.1568750000000         1.034547260025556E-081
   94.3706250000000         4.629266338927382E-082
   94.5843750000000        -6.063074826421698E-082
   94.7981250000000        -2.228555510463209E-081
   95.0118750000000        -4.354093424090746E-081
   95.2256250000000        -6.770808663743552E-081
   95.4393750000000        -9.050473449023316E-081
   95.6531250000000        -1.051489632966585E-080
   95.8668750000000        -1.024421360689015E-080
   96.0806250000000        -7.153672698822587E-081
   96.2943750000000        -1.651454923349971E-082
   96.5081250000000         1.150760025071243E-080
   96.7218750000000         2.795811889429608E-080
   96.9356250000000         4.809885597279931E-080
   97.1493750000000         6.915533296642416E-080
   97.3631250000000         8.626562905547282E-080
   97.5768750000000         9.236280069615915E-080
   97.7906250000000         7.856205728438173E-080
   98.0043750000000         3.528842633711654E-080
   98.2181250000000        -4.566010034289014E-080
   98.4318750000000        -1.680401735172314E-079
   98.6456250000000        -3.272303860423289E-079
   98.8593750000000        -5.059184217668016E-079
   99.0731250000000        -6.703096580714936E-079
   99.2868750000000        -7.682150971572395E-079
   99.5006250000000        -7.307658131804455E-079
   99.7143750000000        -4.796729257382393E-079
   99.9281250000000         5.828314377351175E-080
   100.141875000000         9.286944473917876E-079
   100.355625000000         2.119677635073324E-078
   100.569375000000         3.527971394990558E-078
   100.783125000000         4.927379662728419E-078
   100.996875000000         5.949435130498946E-078
   101.210625000000         6.089199480927185E-078
   101.424375000000         4.750632996650000E-078
   101.638125000000         1.344585520461306E-078
   101.851875000000        -4.553268257230091E-078
   102.065625000000        -1.298849273278540E-077
   102.279375000000        -2.337914566895079E-077
   102.493125000000        -3.427576034769000E-077
   102.706875000000        -4.319825166659084E-077
   102.920625000000        -4.663980128529902E-077
   103.134375000000        -4.033934662861232E-077
   103.348125000000        -1.991626063449507E-077
   103.561875000000         1.807661550874641E-077
   103.775625000000         7.470016605296825E-077
   103.989375000000         1.469099422466127E-076
   104.203125000000         2.258535866388190E-076
   104.416875000000         2.956325464770828E-076
   104.630625000000         3.331233571112089E-076
   104.844375000000         3.095350390571809E-076
   105.058125000000         1.943341989084366E-076
   105.271875000000        -3.806420980328255E-077
   105.485625000000        -3.989150074223434E-076
   105.699375000000        -8.738735279139780E-076
   105.913125000000        -1.411590847031083E-075
   106.126875000000        -1.914976844711033E-075
   106.340625000000        -2.238880923264653E-075
   106.554375000000        -2.198480953326784E-075
   106.768125000000        -1.592437141585807E-075
   106.981875000000        -2.434771750489359E-076
   107.195625000000         1.943772959456489E-075
   107.409375000000         4.912319768932736E-075
   107.623125000000         8.380066744397860E-075
   107.836875000000         1.178160139187923E-074
   108.050625000000         1.424712201139354E-074
   108.264375000000         1.464457839353091E-074
   108.478125000000         1.171000691991404E-074
   108.691875000000         4.283146830213432E-075
   108.905625000000        -8.351066571965731E-075
   109.119375000000        -2.604027440953339E-074
   109.333125000000        -4.732057602049174E-074
   109.546875000000        -6.904707210740860E-074
   109.760625000000        -8.623024070153241E-074
   109.974375000000        -9.223066134297029E-074
   110.188125000000        -7.946023809918878E-074
   110.401875000000        -4.069516815523005E-074
   110.615625000000         2.898582923949210E-074
   110.829375000000         1.297689323616746E-073
   111.043125000000         2.544993711875163E-073
   111.256875000000         3.864375365924098E-073
   111.470625000000         4.981111313571107E-073
   111.684375000000         5.521247210366883E-073
   111.898125000000         5.047749626338964E-073
   112.111875000000         3.130953309738965E-073
   112.325625000000        -5.453892615744724E-074
   112.539375000000        -6.048989744283387E-073
   112.753125000000        -1.305176062023436E-072
   112.966875000000        -2.069910393025614E-072
   113.180625000000        -2.753550269615738E-072
   113.394375000000        -3.153347408446647E-072
   113.608125000000        -3.027281416547251E-072
   113.821875000000        -2.130568035557943E-072
   114.035625000000        -2.717331364502124E-073
   114.249375000000         2.614896716733712E-072
   114.463125000000         6.388941415771929E-072
   114.676875000000         1.063087831459230E-071
   114.890625000000         1.459698197233613E-071
   115.104375000000         1.722718293282509E-071
   115.318125000000         1.723092135211384E-071
   115.531875000000         1.327042850287337E-071
   115.745625000000         4.247790983298604E-072
   115.959375000000        -1.031901210985408E-071
   116.173125000000        -2.987421941859124E-071
   116.386875000000        -5.243201735315519E-071
   116.600625000000        -7.432014362995590E-071
   116.814375000000        -9.018679334009520E-071
   117.028125000000        -9.340007038464991E-071
   117.241875000000        -7.694166507210113E-071
   117.455625000000        -3.483147240391106E-071
   117.669375000000         3.598566831099339E-071
   117.883125000000         1.335011938273733E-070
   118.096875000000         2.486234506050348E-070
   118.310625000000         3.638027059015865E-070
   118.524375000000         4.529314134055367E-070
   118.738125000000         4.831610829274530E-070
   118.951875000000         4.191435400063889E-070
   119.165625000000         2.298884943029781E-070
   119.379375000000        -1.020827986094250E-070
   119.593125000000        -5.702911192804026E-070
   119.806875000000        -1.134340210609218E-069
   120.020625000000        -1.712959487055093E-069
   120.234375000000        -2.183064124566942E-069
   120.448125000000        -2.387889496119598E-069
   120.661875000000        -2.156612199105340E-069
   120.875625000000        -1.336366282252732E-069
   121.089375000000         1.648531358147382E-070
   121.303125000000         2.329102527749929E-069
   121.516875000000         4.981521318159053E-069
   121.730625000000         7.757141205243204E-069
   121.944375000000         1.009536098380644E-068
   122.158125000000         1.127604086467128E-068
   122.371875000000         1.050806850808585E-068
   122.585625000000         7.074246151332423E-069
   122.799375000000         5.252805170288789E-070
   123.013125000000        -9.098773239813448E-069
   123.226875000000        -2.105725826382165E-068
   123.440625000000        -3.376009055901527E-068
   123.654375000000        -4.474280872480434E-068
   123.868125000000        -5.082625688623003E-068