  -1.60312500000000         0.000000000000000E+000
  -1.38937500000000         0.000000000000000E+000
  -1.17562500000000         0.000000000000000E+000
 -0.961875000000000         0.000000000000000E+000
 -0.748125000000000         0.000000000000000E+000
 -0.534375000000000         0.000000000000000E+000
 -0.320625000000000         0.000000000000000E+000
 -0.106875000000000         0.000000000000000E+000
  0.106875000000000         0.000000000000000E+000
  0.320625000000000         0.000000000000000E+000
  0.534375000000000         0.000000000000000E+000
  0.748125000000000         0.000000000000000E+000
  0.961875000000000         0.000000000000000E+000
   1.17562500000000         0.000000000000000E+000
   1.38937500000000         0.000000000000000E+000
   1.60312500000000         0.000000000000000E+000
   1.81687500000000         0.000000000000000E+000
   2.03062500000000         0.000000000000000E+000
   2.24437500000000         0.000000000000000E+000
   2.45812500000000         0.000000000000000E+000
   2.67187500000000         0.000000000000000E+000
   2.88562500000000         0.000000000000000E+000
   3.09937500000000         0.000000000000000E+000
   3.31312500000000         0.000000000000000E+000
   3.52687500000000         0.000000000000000E+000
   3.74062500000000         0.000000000000000E+000
   3.95437500000000         0.000000000000000E+000
   4.16812500000000         0.000000000000000E+000
   4.38187500000000         0.000000000000000E+000
   4.59562500000000         0.000000000000000E+000
   4.80937500000000         0.000000000000000E+000
   5.02312500000000         0.000000000000000E+000
   5.23687500000000         0.000000000000000E+000
   5.45062500000000         0.000000000000000E+000
   5.66437500000000         0.000000000000000E+000
   5.87812500000000         0.000000000000000E+000
   6.09187500000000         0.000000000000000E+000
   6.30562500000000         0.000000000000000E+000
   6.51937500000000         0.000000000000000E+000
   6.73312500000000         0.000000000000000E+000
   6.94687500000000         0.000000000000000E+000
   7.16062500000000         0.000000000000000E+000
   7.37437500000000         0.000000000000000E+000
   7.58812500000000         0.000000000000000E+000
   7.80187500000000         0.000000000000000E+000
   8.01562500000000         0.000000000000000E+000
   8.22937500000000         0.000000000000000E+000
   8.44312500000000         0.000000000000000E+000
   8.65687500000000         0.000000000000000E+000
   8.87062500000000         0.000000000000000E+000
   9.08437500000000         0.000000000000000E+000
   9.29812500000000         0.000000000000000E+000
   9.51187500000000         4.533484973090790E-205
   9.72562500000000        -2.193419273972129E-199
   9.93937500000000         3.976525589356593E-197
   10.1531250000000         9.574380600175434E-194
   10.3668750000000         2.584956850937526E-192
   10.5806250000000         8.532742491631917E-190
   10.7943750000000         5.053442669889222E-188
   11.0081250000000         1.519964343378553E-186
   11.2218750000000         3.136782334645897E-185
   11.4356250000000         5.360578415102050E-184
   11.6493750000000         8.697300190890739E-183
   11.8631250000000         1.389954746557130E-181
   12.0768750000000         2.081967095543882E-180
   12.2906250000000         2.766624114020644E-179
   12.5043750000000         3.177301989213814E-178
   12.7181250000000         3.134735442873967E-177
   12.9318750000000         2.664288834535674E-176
   13.1456250000000         1.965641631385813E-175
   13.3593750000000         1.280881145755870E-174
   13.5731250000000         7.716778445052525E-174
   13.7868750000000         4.769070636403162E-173
   14.0006250000000         3.458785045651177E-172
   14.2143750000000         2.991346300910036E-171
   14.4281250000000         2.740230019827867E-170
   14.6418750000000         2.403345236813531E-169
   14.8556250000000         1.939045716116024E-168
   15.0693750000000         1.428017807474932E-167
   15.2831250000000         9.630032506415404E-167
   15.4968750000000         5.980467598899252E-166
   15.7106250000000         3.438862969446185E-165
   15.9243750000000         1.838974759786574E-164
   16.1381250000000         9.174773773286719E-164
   16.3518750000000         4.278581800803312E-163
   16.5656250000000         1.866076565512802E-162
   16.7793750000000         7.604106165265481E-162
   16.9931250000000         2.886352309002753E-161
   17.2068750000000         1.014528893716456E-160
   17.4206250000000         3.267028060327202E-160
   17.6343750000000         9.450549567096641E-160
   17.8481250000000         2.358895482746025E-159
   18.0618750000000         4.582709532332280E-159
   18.2756250000000         4.228776514486871E-159
   18.4893750000000        -1.518955739184040E-158
   18.7031250000000        -9.858157993587918E-158
   18.9168750000000        -2.667578580085297E-157
   19.1306250000000         1.071464385741749E-157
   19.3443750000000         5.961378824356854E-156
   19.5581250000000         4.342667614327404E-155
   19.7718750000000         2.269862172330717E-154
   19.9856250000000         9.985237512655392E-154
   20.1993750000000         3.899683603023089E-153
   20.4131250000000         1.384415326120384E-152
   20.6268750000000         4.516224522462916E-152
   20.8406250000000         1.358177616985302E-151
   21.0543750000000         3.752570558469627E-151
   21.2681250000000         9.409780225797399E-151
   21.4818750000000         2.079297601905695E-150
   21.6956250000000         3.744637897348653E-150
   21.9093750000000         3.945427598607575E-150
   22.1231250000000        -6.866633520696279E-150
   22.3368750000000        -6.175359522904085E-149
   22.5506250000000        -2.563963303244178E-148
   22.7643750000000        -8.302624040905623E-148
   22.9781250000000        -2.296948454199607E-147
   23.1918750000000        -5.540149427844889E-147
   23.4056250000000        -1.145610826101361E-146
   23.6193750000000        -1.876736991930281E-146
   23.8331250000000        -1.636950773547700E-146
   24.0468750000000         3.785925584969824E-146
   24.2606250000000         2.663893628481816E-145
   24.4743750000000         9.679642719073908E-145
   24.6881250000000         2.760568091921054E-144
   24.9018750000000         6.679128425184981E-144
   25.1156250000000         1.385330863238206E-143
   25.3293750000000         2.372818510655927E-143
   25.5431250000000         2.856834644027931E-143
   25.7568750000000         4.483303746387004E-145
   25.9706250000000        -1.330653844843565E-142
   26.1843750000000        -5.207276957718934E-142
   26.3981250000000        -1.393338793322546E-141
   26.6118750000000        -2.930923856368423E-141
   26.8256250000000        -4.717522790856955E-141
   27.0393750000000        -4.267751808587370E-141
   27.2531250000000         6.042494897132781E-141
   27.4668750000000         4.371594728786911E-140
   27.6806250000000         1.395679541402823E-139
   27.8943750000000         3.278749512173163E-139
   28.1081250000000         5.909703498116566E-139
   28.3218750000000         6.903976715474502E-139
   28.5356250000000        -2.248819151811446E-139
   28.7493750000000        -4.335987287826087E-138
   28.9631250000000        -1.608128114821581E-137
   29.1768750000000        -4.237305529690801E-137
   29.3906250000000        -8.912185817384256E-137
   29.6043750000000        -1.469020711240503E-136
   29.8181250000000        -1.520102887333524E-136
   30.0318750000000         9.705858049589541E-137
   30.2456250000000         1.082148859427816E-135
   30.4593750000000         3.733662142859685E-135
   30.6731250000000         9.437308285245545E-135
   30.8868750000000         1.932590654050156E-134
   31.1006250000000         3.159994240784474E-134
   31.3143750000000         3.456806808610416E-134
   31.5281250000000        -7.846662336615802E-135
   31.7418750000000        -1.805250773591115E-133
   31.9556250000000        -6.469168148865213E-133
   32.1693750000000        -1.657857048079724E-132
   32.3831250000000        -3.462668916141347E-132
   32.5968750000000        -5.950342359457053E-132
   32.8106250000000        -7.704559221287044E-132
   33.0243750000000        -4.012575815548117E-132
   33.2381250000000         1.659106067828072E-131
   33.4518750000000         7.697824879069994E-131
   33.6656250000000         2.147584403210115E-130
   33.8793750000000         4.764541614107123E-130
   34.0931250000000         8.844984169088817E-130
   34.3068750000000         1.343098214661920E-129
   34.5206250000000         1.430815524921781E-129
   34.7343750000000         2.212830821318379E-131
   34.9481250000000        -5.274670987014582E-129
   35.1618750000000        -1.870331085036849E-128
   35.3756250000000        -4.638216277990277E-128
   35.5893750000000        -9.433208980145362E-128
   35.8031250000000        -1.617005462072489E-127
   36.0168750000000        -2.246249437425145E-127
   36.2306250000000        -2.049734085243903E-127
   36.4443750000000         7.999809052375165E-128
   36.6581250000000         9.811571943065324E-127
   36.8718750000000         3.061762704467252E-126
   37.0856250000000         7.035482458817728E-126
   37.2993750000000         1.341853529484775E-125
   37.5131250000000         2.158980506795499E-125
   37.7268750000000         2.783634714266407E-125
   37.9406250000000         2.198246686728501E-125
   38.1543750000000        -1.737397078185088E-125
   38.3681250000000        -1.277066673617370E-124
   38.5818750000000        -3.633956202970978E-124
   38.7956250000000        -7.835803849136989E-124
   39.0093750000000        -1.411061906379364E-123
   39.2231250000000        -2.138872152750225E-123
   39.4368750000000        -2.558623184913683E-123
   39.6506250000000        -1.698511359662129E-123
   39.8643750000000         2.291604653767803E-123
   40.0781250000000         1.235823878137955E-122
   40.2918750000000         3.231322221983046E-122
   40.5056250000000         6.550247262554826E-122
   40.7193750000000         1.113831935512625E-121
   40.9331250000000         1.588175939514472E-121
   41.1468750000000         1.752177560663365E-121
   41.3606250000000         9.218507709245792E-122
   41.5743750000000        -2.081276948816326E-121
   41.7881250000000        -8.951563102603338E-121
   42.0018750000000        -2.160022522989773E-120
   42.2156250000000        -4.121570314215383E-120
   42.4293750000000        -6.628096009467016E-120
   42.6431250000000        -8.919773916450126E-120
   42.8568750000000        -9.152003763761014E-120
   43.0706250000000        -3.866302649143565E-120
   43.2843750000000         1.234788011516599E-119
   43.4981250000000         4.652695065381001E-119
   43.7118750000000         1.056011054732659E-118
   43.9256250000000         1.923090293875401E-118
   44.1393750000000         2.978502347109446E-118
   44.3531250000000         3.909008200641900E-118
   44.5668750000000         4.039053205764019E-118
   44.7806250000000         2.197167528031772E-118
   44.9943750000000        -3.355070786605233E-118
   45.2081250000000        -1.484360900336774E-117
   45.4218750000000        -3.464384571929910E-117
   45.6356250000000        -6.456818675785011E-117
   45.8493750000000        -1.046526242013926E-116
   46.0631250000000        -1.512442053586597E-116
   46.2768750000000        -1.939481345969644E-116
   46.4906250000000        -2.104430058529074E-116
   46.7043750000000        -1.572822713012287E-116
   46.9181250000000         4.606589831256245E-117
   47.1318750000000         5.422607790786842E-116
   47.3456250000000         1.567993478635020E-115
   47.5593750000000         3.477061218643018E-115
   47.7731250000000         6.710225617476191E-115
   47.9868750000000         1.161866962907767E-114
   48.2006250000000         1.798251809935471E-114
   48.4143750000000         2.400877247956370E-114
   48.6281250000000         2.460838965553830E-114
   48.8418750000000         8.962425919154238E-115
   49.0556250000000        -4.202244654010253E-114
   49.2693750000000        -1.565848243880279E-113
   49.4831250000000        -3.676177875708959E-113
   49.6968750000000        -6.967043844008514E-113
   49.9106250000000        -1.118537724823689E-112
   50.1243750000000        -1.498073493509165E-112
   50.3381250000000        -1.499525480383946E-112
   50.5518750000000        -4.846695237536405E-113
   50.7656250000000         2.546489233441421E-112
   50.9793750000000         8.864180091818629E-112
   51.1931250000000         1.958935647924478E-111
   51.4068750000000         3.471292189869767E-111
   51.6206250000000         5.133217965861018E-111
   51.8343750000000         6.105619361550125E-111
   52.0481250000000         4.699291502176047E-111
   52.2618750000000        -1.839271543500988E-111
   52.4756250000000        -1.719191666158968E-110
   52.6893750000000        -4.505567346148745E-110
   52.9031250000000        -8.688947777832441E-110
   53.1168750000000        -1.377711969478239E-109
   53.3306250000000        -1.801757150104658E-109
   53.5443750000000        -1.764535645464605E-109
   53.7581250000000        -6.262491492388319E-110
   53.9718750000000         2.510907413610857E-109
   54.1856250000000         8.641225968463975E-109
   54.3993750000000         1.841840373499578E-108
   54.6131250000000         3.131961879324081E-108
   54.8268750000000         4.434633083637521E-108
   55.0406250000000         5.036710706103700E-108
   55.2543750000000         3.653749259398469E-108
   55.4681250000000        -1.625250721006865E-108
   55.6818750000000        -1.312900148361085E-107
   55.8956250000000        -3.290469748537429E-107
   56.1093750000000        -6.127300501579210E-107
   56.3231250000000        -9.444643405868339E-107
   56.5368750000000        -1.212584049422953E-106
   56.7506250000000        -1.195516360032890E-106
   56.9643750000000        -5.360721065343074E-107
   57.1781250000000         1.248485837640635E-106
   57.3918750000000         4.682108154703511E-106
   57.6056250000000         1.012246760781478E-105
   57.8193750000000         1.738161731362451E-105
   58.0331250000000         2.514897398200757E-105
   58.2468750000000         3.025204690620264E-105
   58.4606250000000         2.690666313533858E-105
   58.6743750000000         6.291630630372257E-106
   58.8881250000000        -4.297080209609540E-105
   59.1018750000000        -1.325727055770553E-104
   59.3156250000000        -2.694453141615272E-104
   59.5293750000000        -4.467885920637933E-104
   59.7431250000000        -6.306370711840158E-104
   59.9568750000000        -7.427325998025367E-104
   60.1706250000000        -6.430777631920188E-104
   60.3843750000000        -1.197705012155771E-104
   60.5981250000000         1.100371368847039E-103
   60.8118750000000         3.299954851255728E-103
   61.0256250000000         6.651506026016342E-103
   61.2393750000000         1.100290868527952E-102
   61.4531250000000         1.555117151617405E-102
   61.6668750000000         1.842016757693491E-102
   61.8806250000000         1.622322391734675E-102
   62.0943750000000         3.799465674384537E-103
   62.3081250000000        -2.553541637622762E-102
   62.5218750000000        -7.870762490384345E-102
   62.7356250000000        -1.599140063216921E-101
   62.9493750000000        -2.653049778025860E-101
   63.1631250000000        -3.749937999358820E-101
   63.3768750000000        -4.429590725101706E-101
   63.5906250000000        -3.871237333503723E-101
   63.8043750000000        -8.459013725695705E-102
   64.0181250000000         6.194500506955732E-101
   64.2318750000000         1.876951652203133E-100
   64.4456250000000         3.762083388715383E-100
   64.6593750000000         6.144065444734152E-100
   64.8731250000000         8.506451996363652E-100
   65.0868750000000         9.735523715168884E-100
   65.3006250000000         7.941599575423128E-100
   65.5143750000000         4.355110161722018E-101
   65.7281250000000        -1.594979686402457E-099
   65.9418750000000        -4.394709943760251E-099
   66.1556250000000        -8.410354858246616E-099
   66.3693750000000        -1.320509293890065E-098
   66.5831250000000        -1.749547857121130E-098
   66.7968750000000        -1.878528503231417E-098
   67.0106250000000        -1.314298924295936E-098
   67.2243750000000         4.617842915279599E-099
   67.4381250000000         3.999570801518518E-098
   67.6518750000000         9.669038963525557E-098
   67.8656250000000         1.730062599257249E-097
   68.0793750000000         2.567749350426352E-097
   68.2931250000000         3.194660675128496E-097
   68.5068750000000         3.112205896952044E-097
   68.7206250000000         1.599558895902296E-097
   68.9343750000000        -2.208034409832445E-097
   69.1481250000000        -9.096892290665464E-097
   69.3618750000000        -1.935554209876087E-096
   69.5756250000000        -3.213611483221113E-096
   69.7893750000000        -4.464557194421428E-096
   70.0031250000000        -5.133808924864350E-096
   70.2168750000000        -4.345172127255445E-096
   70.4306250000000        -9.430092924083186E-097
   70.6443750000000         6.306462073332888E-096
   70.8581250000000         1.828087016017714E-095
   71.0718750000000         3.478488915318016E-095
   71.2856250000000         5.357004994368250E-095
   71.4993750000000         6.923733901106555E-095
   71.7131250000000         7.235796749930340E-095
   71.9268750000000         4.938071974803943E-095
   72.1406250000000        -1.588231459463230E-095
   72.3543750000000        -1.382856935599886E-094
   72.5681250000000        -3.241338002674664E-094
   72.7818750000000        -5.605380624140352E-094
   72.9956250000000        -8.023662653151346E-094
   73.2093750000000        -9.597024706155500E-094
   73.4231250000000        -8.912316715335580E-094
   73.6368750000000        -4.116132437635204E-094
   73.8506250000000         6.771875917223461E-094
   74.0643750000000         2.520895404424663E-093
   74.2781250000000         5.108783594809642E-093
   74.4918750000000         8.135102464309726E-093
   74.7056250000000         1.084820687466472E-092
   74.9193750000000         1.193392419453856E-092
   75.1331250000000         9.507925020051294E-093
   75.3468750000000         1.316511511365733E-093
   75.5606250000000        -1.474609334854474E-092
   75.7743750000000        -3.972026456982218E-092
   75.9881250000000        -7.225636532738135E-092
   76.2018750000000        -1.070213866791151E-091
   76.4156250000000        -1.331935455090787E-091
   76.6293750000000        -1.336741069558715E-091
   76.8431250000000        -8.591798083843139E-092
   77.0568750000000         3.454321114085811E-092
   77.2706250000000         2.468860933475641E-091
   77.4843750000000         5.535870027510529E-091
   77.6981250000000         9.254102406179728E-091
   77.9118750000000         1.285164237676552E-090
   78.1256250000000         1.494992536219122E-090
   78.3393750000000         1.354623860104327E-090
   78.5531250000000         6.201941239386118E-091
   78.7668750000000        -9.461761386761089E-091
   78.9806250000000        -3.488407600636744E-090
   79.1943750000000        -6.929693514528741E-090
   79.4081250000000        -1.081968567846707E-089
   79.6218750000000        -1.418752954982055E-089
   79.8356250000000        -1.545588663202704E-089
   80.0493750000000        -1.249364208907057E-089
   80.2631250000000        -2.898637798766729E-090
   80.4768750000000         1.540501520602662E-089
   80.6906250000000         4.321107330873301E-089
   80.9043750000000         7.875926358476329E-089
   81.1181250000000         1.163281108143027E-088
   81.3318750000000         1.450561845968485E-088
   81.5456250000000         1.485559491702021E-088
   81.7593750000000         1.060493513618973E-088
   81.9731250000000        -4.196816467154922E-090
   82.1868750000000        -1.985264448412264E-088
   82.4006250000000        -4.785222144983106E-088
   82.6143750000000        -8.193775059715476E-088
   82.8281250000000        -1.158074104616146E-087
   83.0418750000000        -1.384995862680779E-087
   83.2556250000000        -1.344153806015125E-087
   83.4693750000000        -8.482154910917480E-088
   83.6831250000000         2.856728728863306E-088
   83.8968750000000         2.175503962793493E-087
   84.1106250000000         4.790655022614872E-087
   84.3243750000000         7.854008375590075E-087
   84.5381250000000         1.075001807667776E-086
   84.7518750000000         1.247097590018857E-086
   84.9656250000000         1.164449688358087E-086
   85.1793750000000         6.690393665470064E-087
   85.3931250000000        -3.850677335761228E-087
   85.6068750000000        -2.079671361305920E-086
   85.8206250000000        -4.363509404113623E-086
   86.0343750000000        -6.975274228846993E-086
   86.2481250000000        -9.375639352374471E-086
   86.4618750000000        -1.071408660297163E-085
   86.6756250000000        -9.863331863618022E-086
   86.8893750000000        -5.556350171396411E-086
   87.1031250000000         3.345273935527273E-086
   87.3168750000000         1.744128723784102E-085
   87.5306250000000         3.626349554113053E-085
   87.7443750000000         5.769719546188498E-085
   87.9581250000000         7.748126689335377E-085
   88.1718750000000         8.897441927540236E-085
   88.3856250000000         8.342117051680720E-085
   88.5993750000000         5.096351163140591E-085
   88.8131250000000        -1.740055630942547E-085
   89.0268750000000        -1.268348241320137E-084
   89.2406250000000        -2.748017096083620E-084
   89.4543750000000        -4.467761341298876E-084
   89.6681250000000        -6.123833624285662E-084
   89.8818750000000        -7.232177013517644E-084
   90.0956250000000        -7.139428128554819E-084
   90.3093750000000        -5.084313107713863E-084
   90.5231250000000        -3.252543535013899E-085
   90.7368750000000         7.656607046817328E-084
   90.9506250000000         1.888254036427469E-083
   91.1643750000000         3.255269007670146E-083
   91.3781250000000         4.672310244777761E-083
   91.5918750000000         5.806293355794412E-083
   91.8056250000000         6.180194238438228E-083
   92.0193750000000         5.200205930892693E-083
   92.2331250000000         2.229401314777801E-083
   92.4468750000000        -3.280153212368065E-083
   92.6606250000000        -1.159128796508740E-082
   92.8743750000000        -2.242804008240998E-082
   93.0881250000000        -3.468921930224263E-082
   93.3018750000000        -4.617889515243067E-082
   93.5156250000000        -5.343301651411600E-082
   93.7293750000000        -5.175147921825824E-082
   93.9431250000000        -3.556822347088762E-082
   94.1568750000000         7.027512774132453E-084
   94.3706250000000         6.123484256543248E-082
   94.5843750000000         1.467356888714630E-081
   94.7981250000000         2.518805734263953E-081
   95.0118750000000         3.625543459520649E-081
   95.2256250000000         4.535064753071556E-081
   95.4393750000000         4.873447542873017E-081
   95.6531250000000         4.160892389820595E-081
   95.8668750000000         1.866760380436323E-081
   96.0806250000000        -2.483020111337958E-081
   96.2943750000000        -9.138726278091907E-081
   96.5081250000000        -1.790378925112281E-080
   96.7218750000000        -2.787844482825703E-080
   96.9356250000000        -3.721796091874409E-080
   97.1493750000000        -4.298301150321753E-080
   97.3631250000000        -4.118829173096846E-080
   97.5768750000000        -2.717372072474735E-080
   97.7906250000000         3.581961963447028E-081
   98.0043750000000         5.412736158734767E-080
   98.2181250000000         1.241997750094525E-079
   98.4318750000000         2.080502345507611E-079
   98.6456250000000         2.923106751915980E-079
   98.8593750000000         3.545268199690348E-079
   99.0731250000000         3.632144304115451E-079
   99.2868750000000         2.804451024073509E-079
   99.5006250000000         6.793121317240822E-080
   99.7143750000000        -3.027547784059435E-079
   99.9281250000000        -8.359257546146269E-079
   100.141875000000        -1.494778405178971E-078
   100.355625000000        -2.184539065666450E-078
   100.569375000000        -2.740493067087253E-078
   100.783125000000        -2.927347218479592E-078
   100.996875000000        -2.457398896851424E-078
   101.210625000000        -1.034594008726483E-078
   101.424375000000         1.571039529908086E-078
   101.638125000000         5.419568512359953E-078
   101.851875000000         1.027757087918905E-077
   102.065625000000         1.549583737872202E-077
   102.279375000000         1.992218129365640E-077
   102.493125000000         2.189466417373832E-077
   102.706875000000         1.936681365876195E-077
   102.920625000000         1.021256943707348E-077
   103.134375000000        -7.260359594522336E-078
   103.348125000000        -3.359836622407440E-077
   103.561875000000        -6.735955557126004E-077
   103.775625000000        -1.042855385432735E-076
   103.989375000000        -1.367146968130673E-076
   104.203125000000        -1.535359795424600E-076
   104.416875000000        -1.410173795458667E-076
   104.630625000000        -8.481080032482953E-077
   104.844375000000         2.669583639353753E-077
   105.058125000000         1.977604902782243E-076
   105.271875000000         4.198615340966597E-076
   105.485625000000         6.663996833251308E-076
   105.699375000000         8.889694795357942E-076
   105.913125000000         1.017067036651276E-075
   106.126875000000         9.632852877437216E-076
   106.340625000000         6.358088219057712E-076
   106.554375000000        -4.081977010803502E-077
   106.768125000000        -1.097253053348830E-075
   106.981875000000        -2.486092068158216E-075
   107.195625000000        -4.049556948042210E-075
   107.409375000000        -5.496756441781466E-075
   107.623125000000        -6.401648506310699E-075
   107.836875000000        -6.233725619568565E-075
   108.050625000000        -4.431887571152643E-075
   108.264375000000        -5.269040497971093E-076
   108.478125000000         5.691309803120364E-075
   108.691875000000         1.397861554510983E-074
   108.905625000000         2.344695794133056E-074
   109.119375000000         3.242991761906491E-074
   109.333125000000         3.846667315589031E-074
   109.546875000000         3.847236496635326E-074
   109.760625000000         2.915350041520766E-074
   109.974375000000         7.698273301102561E-075
   110.188125000000        -2.727972111657309E-074
   110.401875000000        -7.463925792476285E-074
   110.615625000000        -1.296345790186111E-073
   110.829375000000        -1.831386728856439E-073
   111.043125000000        -2.215135990372637E-073
   111.256875000000        -2.275002824210439E-073
   111.470625000000        -1.824489609352289E-073
   111.684375000000        -7.005595193636172E-074
   111.898125000000         1.185038196896862E-073
   112.111875000000         3.785517806778070E-073
   112.325625000000         6.859660995575220E-073
   112.539375000000         9.927903178283898E-073
   112.753125000000         1.226237084335891E-072
   112.966875000000         1.293073666250619E-072
   113.180625000000         1.091113495696155E-072
   113.394375000000         5.287312345801786E-073
   113.608125000000        -4.481166347737930E-073
   113.821875000000        -1.823925120367997E-072
   114.035625000000        -3.481756433445967E-072
   114.249375000000        -5.178993627745704E-072
   114.463125000000        -6.540303433521234E-072
   114.676875000000        -7.078150437179199E-072
   114.890625000000        -6.249924645475997E-072
   115.104375000000        -3.556689487884031E-072
   115.318125000000         1.318701816581620E-072
   115.531875000000         8.346723466489502E-072
   115.745625000000         1.698467174269095E-071
   115.959375000000         2.604655433559486E-071
   116.173125000000         3.365773697673196E-071
   116.386875000000         3.734685148991017E-071
   116.600625000000         3.432137851005871E-071
   116.814375000000         2.195339059929076E-071
   117.028125000000        -1.533945531274102E-072
   117.241875000000        -3.623977132469118E-071
   117.455625000000        -7.974166775053744E-071
   117.669375000000        -1.264211856854768E-070
   117.883125000000        -1.671968861820450E-070
   118.096875000000        -1.899240209963344E-070
   118.310625000000        -1.806909700934523E-070
   118.524375000000        -1.261461385157716E-070
   118.738125000000        -1.681523880158227E-071
   118.951875000000         1.488789077139906E-070
   119.165625000000         3.604814813052429E-070
   119.379375000000         5.921494908150727E-070
   119.593125000000         8.012133513882955E-070
   119.806875000000         9.298933919028511E-070
   120.020625000000         9.112672357096028E-070
   120.234375000000         6.801233647103643E-070
   120.448125000000         1.885129370443702E-070
   120.661875000000        -5.753529125662042E-070
   120.875625000000        -1.567609159523868E-069
   121.089375000000        -2.672807074530481E-069
   121.303125000000        -3.696817671621930E-069
   121.516875000000        -4.374246558063335E-069
   121.730625000000        -4.395331863432621E-069
   121.944375000000        -3.455127260240311E-069
   122.158125000000        -1.323972078931224E-069
   122.371875000000         2.067044972791543E-069
   122.585625000000         6.538170405044497E-069
   122.799375000000         1.158935404628094E-068
   123.013125000000         1.636832563093697E-068
   123.226875000000         1.970324261558779E-068
   123.440625000000         2.022118205122148E-068
   123.654375000000         1.656373026213534E-068
   123.868125000000         7.693940117053045E-069