  -1.60312500000000         0.000000000000000E+000
  -1.38937500000000         0.000000000000000E+000
  -1.17562500000000         0.000000000000000E+000
 -0.961875000000000         0.000000000000000E+000
 -0.748125000000000         0.000000000000000E+000
 -0.534375000000000         0.000000000000000E+000
 -0.320625000000000         0.000000000000000E+000
 -0.106875000000000         0.000000000000000E+000
  0.106875000000000         0.000000000000000E+000
  0.320625000000000         0.000000000000000E+000
  0.534375000000000         0.000000000000000E+000
  0.748125000000000         0.000000000000000E+000
  0.961875000000000         0.000000000000000E+000
   1.17562500000000         0.000000000000000E+000
   1.38937500000000         0.000000000000000E+000
   1.60312500000000         0.000000000000000E+000
   1.81687500000000         0.000000000000000E+000
   2.03062500000000         0.000000000000000E+000
   2.24437500000000         0.000000000000000E+000
   2.45812500000000         0.000000000000000E+000
   2.67187500000000         0.000000000000000E+000
   2.88562500000000         0.000000000000000E+000
   3.09937500000000         0.000000000000000E+000
   3.31312500000000         0.000000000000000E+000
   3.52687500000000         0.000000000000000E+000
   3.74062500000000         0.000000000000000E+000
   3.95437500000000         0.000000000000000E+000
   4.16812500000000         0.000000000000000E+000
   4.38187500000000         0.000000000000000E+000
   4.59562500000000         0.000000000000000E+000
   4.80937500000000         0.000000000000000E+000
   5.02312500000000         0.000000000000000E+000
   5.23687500000000         0.000000000000000E+000
   5.45062500000000         0.000000000000000E+000
   5.66437500000000         0.000000000000000E+000
   5.87812500000000         0.000000000000000E+000
   6.09187500000000         0.000000000000000E+000
   6.30562500000000         0.000000000000000E+000
   6.51937500000000         0.000000000000000E+000
   6.73312500000000         0.000000000000000E+000
   6.94687500000000         0.000000000000000E+000
   7.16062500000000         0.000000000000000E+000
   7.37437500000000         0.000000000000000E+000
   7.58812500000000         0.000000000000000E+000
   7.80187500000000         0.000000000000000E+000
   8.01562500000000         0.000000000000000E+000
   8.22937500000000         0.000000000000000E+000
   8.44312500000000         0.000000000000000E+000
   8.65687500000000         0.000000000000000E+000
   8.87062500000000         0.000000000000000E+000
   9.08437500000000         0.000000000000000E+000
   9.29812500000000        -4.193863398445058E-203
   9.51187500000000         1.619182543509708E-196
   9.72562500000000        -1.280113494092169E-193
   9.93937500000000         1.566539527011077E-191
   10.1531250000000        -6.567674249916103E-189
   10.3668750000000        -4.095281005583531E-187
   10.5806250000000        -1.018674158155365E-185
   10.7943750000000        -1.003364412571736E-184
   11.0081250000000         1.263238850642443E-183
   11.2218750000000         6.618939757031308E-182
   11.4356250000000         1.356817007553731E-180
   11.6493750000000         1.869990398171797E-179
   11.8631250000000         1.908792091416461E-178
   12.0768750000000         1.450294396954125E-177
   12.2906250000000         7.467943472053576E-177
   12.5043750000000         1.336334670449351E-176
   12.7181250000000        -1.809235898511462E-175
   12.9318750000000        -1.929010966994054E-174
   13.1456250000000        -3.644005523325592E-174
   13.3593750000000         1.350356219705479E-172
   13.5731250000000         2.302524708501742E-171
   13.7868750000000         2.345192485721403E-170
   14.0006250000000         1.799679890775229E-169
   14.2143750000000         1.082350517232079E-168
   14.4281250000000         4.787844022230895E-168
   14.6418750000000         9.526939915314314E-168
   14.8556250000000        -8.697692157521460E-167
   15.0693750000000        -1.368148995279105E-165
   15.2831250000000        -1.215665187259579E-164
   15.4968750000000        -8.623358285099075E-164
   15.7106250000000        -5.313126432696422E-163
   15.9243750000000        -2.944943110098028E-162
   16.1381250000000        -1.495834814487676E-161
   16.3518750000000        -7.040905702100992E-161
   16.5656250000000        -3.094276863728399E-160
   16.7793750000000        -1.276607406098133E-159
   16.9931250000000        -4.966891472358678E-159
   17.2068750000000        -1.830349482143439E-158
   17.4206250000000        -6.420862370181656E-158
   17.6343750000000        -2.158639326892047E-157
   17.8481250000000        -7.021571844698564E-157
   18.0618750000000        -2.239203008393243E-156
   18.2756250000000        -7.116761414395369E-156
   18.4893750000000        -2.291385058301337E-155
   18.7031250000000        -7.551088385107180E-155
   18.9168750000000        -2.544589499141287E-154
   19.1306250000000        -8.664508828733126E-154
   19.3443750000000        -2.928996382150895E-153
   19.5581250000000        -9.656322134516936E-153
   19.7718750000000        -3.057444304897193E-152
   19.9856250000000        -9.175023844332930E-152
   20.1993750000000        -2.574915675242137E-151
   20.4131250000000        -6.641697950913563E-151
   20.6268750000000        -1.528597436209382E-150
   20.8406250000000        -2.936832926916952E-150
   21.0543750000000        -3.724923421838667E-150
   21.2681250000000         2.522449926119033E-150
   21.4818750000000         3.901883261446267E-149
   21.6956250000000         1.733257821278004E-148
   21.9093750000000         5.684507856543814E-148
   22.1231250000000         1.533692087147719E-147
   22.3368750000000         3.407576011130513E-147
   22.5506250000000         5.637084673570066E-147
   22.7643750000000         3.184249128349016E-147
   22.9781250000000        -2.425521122368924E-146
   23.1918750000000        -1.389203013135756E-145
   23.4056250000000        -4.983812134650240E-145
   23.6193750000000        -1.429567890285769E-144
   23.8331250000000        -3.426669601537451E-144
   24.0468750000000        -6.670861992418117E-144
   24.2606250000000        -8.850668495739812E-144
   24.4743750000000         1.765047218449241E-144
   24.6881250000000         6.433050123596141E-143
   24.9018750000000         2.847649686908291E-142
   25.1156250000000         9.055498910247145E-142
   25.3293750000000         2.389422787974327E-141
   25.5431250000000         5.400284004778146E-141
   25.7568750000000         1.028683824608158E-140
   25.9706250000000         1.505525448349356E-140
   26.1843750000000         9.716344084705114E-141
   26.3981250000000        -3.643842108988252E-140
   26.6118750000000        -1.979653909116528E-139
   26.8256250000000        -6.232302564996820E-139
   27.0393750000000        -1.541095170228640E-138
   27.2531250000000        -3.143664078865580E-138
   27.4668750000000        -5.096214588396914E-138
   27.6806250000000        -5.184781582388870E-138
   27.8943750000000         3.620414643727336E-138
   28.1081250000000         3.817331096052251E-137
   28.3218750000000         1.307244933518896E-136
   28.5356250000000         3.269327274408240E-136
   28.7493750000000         6.518999022096605E-136
   28.9631250000000         9.874808009366893E-136
   29.1768750000000         7.540151834524012E-136
   29.3906250000000        -1.756922807298679E-135
   29.6043750000000        -1.050799948799890E-134
   29.8181250000000        -3.304093449652018E-134
   30.0318750000000        -8.055389722292698E-134
   30.2456250000000        -1.624231392639077E-133
   30.4593750000000        -2.652367093775840E-133
   30.6731250000000        -2.975248063253721E-133
   30.8868750000000         2.821345637061188E-134
   31.1006250000000         1.403714942647307E-132
   31.3143750000000         5.209705020959538E-132
   31.5281250000000         1.371884829936594E-131
   31.7418750000000         2.970143802466188E-131
   31.9556250000000         5.420392231760730E-131
   32.1693750000000         8.009894419597963E-131
   32.3831250000000         7.756584878718713E-131
   32.5968750000000        -3.303006991016935E-131
   32.8106250000000        -4.225125698097746E-130
   33.0243750000000        -1.397710019660215E-129
   33.2381250000000        -3.406329327171318E-129
   33.4518750000000        -6.891310527426201E-129
   33.6656250000000        -1.176981233434684E-128
   33.8793750000000        -1.615889242972021E-128
   34.0931250000000        -1.384826022408722E-128
   34.3068750000000         9.863904715255474E-129
   34.5206250000000         8.355623599733062E-128
   34.7343750000000         2.536010049049715E-127
   34.9481250000000         5.790559165130591E-127
   35.1618750000000         1.101437497191578E-126
   35.3756250000000         1.761205670834967E-126
   35.5893750000000         2.221063285040329E-126
   35.8031250000000         1.556960632214449E-126
   36.0168750000000        -2.182222333047284E-126
   36.2306250000000        -1.241842815479696E-125
   36.4443750000000        -3.408197250906817E-125
   36.6581250000000        -7.232798733098683E-125
   36.8718750000000        -1.282799402416254E-124
   37.0856250000000        -1.893640488550233E-124
   37.2993750000000        -2.115691778441367E-124
   37.5131250000000        -9.262172645655552E-125
   37.7268750000000         3.590592475263716E-124
   37.9406250000000         1.441362036083966E-123
   38.1543750000000         3.518929739933615E-123
   38.3681250000000         6.848898388232026E-123
   38.5818750000000         1.115460565699547E-122
   38.7956250000000         1.481291818787209E-122
   39.0093750000000         1.358116741863294E-122
   39.2231250000000        -9.784347688492355E-124
   39.4368750000000        -4.268777059802838E-122
   39.6506250000000        -1.299153406126937E-121
   39.8643750000000        -2.796980389640401E-121
   40.0781250000000        -4.923257930550473E-121
   40.2918750000000        -7.212459884439645E-121
   40.5056250000000        -8.252461570535757E-121
   40.7193750000000        -5.077826782332965E-121
   40.9331250000000         7.341508078450961E-121
   41.1468750000000         3.599122721257649E-120
   41.3606250000000         8.814597866875463E-120
   41.5743750000000         1.668009784122177E-119
   41.7881250000000         2.617517963250098E-119
   42.0018750000000         3.356016557422334E-119
   42.2156250000000         3.062952043555788E-119
   42.4293750000000         3.245456704476362E-120
   42.6431250000000        -6.849187239060537E-119
   42.8568750000000        -2.062097381004473E-118
   43.0706250000000        -4.225057372698712E-118
   43.2843750000000        -7.009734283009584E-118
   43.4981250000000        -9.669673282448396E-118
   43.7118750000000        -1.054717507168729E-117
   43.9256250000000        -6.855806362213922E-118
   44.1393750000000         5.169408552186438E-118
   44.3531250000000         2.942978306167941E-117
   44.5668750000000         6.818264911073029E-117
   44.7806250000000         1.194396262510770E-116
   44.9943750000000         1.744068061893550E-116
   45.2081250000000         2.168649144723453E-116
   45.4218750000000         2.271764727902561E-116
   45.6356250000000         1.929168930742947E-116
   45.8493750000000         1.239498364219417E-116
   46.0631250000000         5.982723597549283E-117
   46.2768750000000         4.079515885158913E-117
   46.4906250000000        -5.738851787079613E-118
   46.7043750000000        -5.200111179792668E-116
   46.9181250000000        -2.731446390031840E-115
   47.1318750000000        -9.154845518229462E-115
   47.3456250000000        -2.381043015696135E-114
   47.5593750000000        -5.138532188476426E-114
   47.7731250000000        -9.400660056974089E-114
   47.9868750000000        -1.438844830973474E-113
   48.2006250000000        -1.703822077767490E-113
   48.4143750000000        -1.020611489118826E-113
   48.6281250000000         1.907503335809729E-113
   48.8418750000000         8.981192053839547E-113
   49.0556250000000         2.229281473696026E-112
   49.2693750000000         4.285473006135880E-112
   49.4831250000000         6.797579101285217E-112
   49.6968750000000         8.697461777857593E-112
   49.9106250000000         7.560571271979997E-112
   50.1243750000000        -8.929753062278238E-113
   50.3381250000000        -2.280087824174383E-111
   50.5518750000000        -6.489222006687899E-111
   50.7656250000000        -1.308601629389305E-110
   50.9793750000000        -2.142095986920998E-110
   51.1931250000000        -2.869956154136823E-110
   51.4068750000000        -2.856630793197910E-110
   51.6206250000000        -9.878937431536004E-111
   51.8343750000000         4.328092934701520E-110
   52.0481250000000         1.486058086684425E-109
   52.2618750000000         3.171987241256795E-109
   52.4756250000000         5.374534969745941E-109
   52.6893750000000         7.501565084257161E-109
   52.9031250000000         8.175945335171978E-109
   53.1168750000000         4.966664940318979E-109
   53.3306250000000        -5.631212977049454E-109
   53.5443750000000        -2.762827359090972E-108
   53.7581250000000        -6.393758769407877E-108
   53.9718750000000        -1.132952490287025E-107
   54.1856250000000        -1.655159935062157E-107
   54.3993750000000        -1.955611650260201E-107
   54.6131250000000        -1.581185571500614E-107
   54.8268750000000         1.380649820030893E-108
   55.0406250000000         4.006624532853770E-107
   55.2543750000000         1.071104701165266E-106
   55.4681250000000         2.032266061569557E-106
   55.6818750000000         3.151578061475836E-106
   55.8956250000000         4.055524151182801E-106
   56.1093750000000         4.027842889506012E-106
   56.3231250000000         1.955022990971318E-106
   56.5368750000000        -3.602404127019883E-106
   56.7506250000000        -1.410626469668066E-105
   56.9643750000000        -3.038763897352911E-105
   57.1781250000000        -5.155517833103258E-105
   57.3918750000000        -7.346878956451405E-105
   57.6056250000000        -8.696566698855443E-105
   57.8193750000000        -7.631358384316423E-105
   58.0331250000000        -1.875157618043374E-105
   58.2468750000000         1.135830529213838E-104
   58.4606250000000         3.476429442714988E-104
   58.6743750000000         6.974689148960988E-104
   58.8881250000000         1.144505908467759E-103
   59.1018750000000         1.609496696630326E-103
   59.3156250000000         1.917352093525977E-103
   59.5293750000000         1.760341461247904E-103
   59.7431250000000         6.715151365851266E-104
   59.9568750000000        -1.969620422558973E-103
   60.1706250000000        -6.862886554344810E-103
   60.3843750000000        -1.459064948812561E-102
   60.5981250000000        -2.522716451438936E-102
   60.8118750000000        -3.767613778829907E-102
   61.0256250000000        -4.868302562493735E-102
   61.2393750000000        -5.155779289593836E-102
   61.4531250000000        -3.484450151911492E-102
   61.6668750000000         1.846359678629397E-102
   61.8806250000000         1.300125849226572E-101
   62.0943750000000         3.216294964212150E-101
   62.3081250000000         6.048075171640781E-101
   62.5218750000000         9.614332239920854E-101
   62.7356250000000         1.314073470858921E-100
   62.9493750000000         1.487437079291650E-100
   63.1631250000000         1.169422994931350E-100
   63.3768750000000        -1.086360319418989E-101
   63.5906250000000        -2.937639541196254E-100
   63.8043750000000        -7.890914761929114E-100
   64.0181250000000        -1.521700672658819E-099
   64.2318750000000        -2.431134803944953E-099
   64.4456250000000        -3.295889695542443E-099
   64.6593750000000        -3.644548747255556E-099
   64.8731250000000        -2.681962610525176E-099
   65.0868750000000         7.150277057285253E-100
   65.3006250000000         7.847327242749139E-099
   65.5143750000000         1.977928618896327E-098
   65.7281250000000         3.655128369740484E-098
   65.9418750000000         5.596380208971425E-098
   66.1556250000000         7.201918299766277E-098
   66.3693750000000         7.336804656306167E-098
   66.5831250000000         4.249671363629466E-098
   66.7968750000000        -4.313113301613226E-098
   67.0106250000000        -2.063278276154177E-097
   67.2243750000000        -4.600277145429373E-097
   67.4381250000000        -7.904370090927718E-097
   67.6518750000000        -1.133857762239790E-096
   67.8656250000000        -1.350827344823109E-096
   68.0793750000000        -1.206326537599034E-096
   68.2931250000000        -3.713997693214820E-097
   68.5068750000000         1.531799620657919E-096
   68.7206250000000         4.815659503917632E-096
   68.9343750000000         9.521111054008409E-096
   69.1481250000000         1.511461710238047E-095
   69.3618750000000         2.011948613347275E-095
   69.5756250000000         2.177333109503705E-095
   69.7893750000000         1.588557670889377E-095
   70.0031250000000        -2.841000153672282E-096
   70.2168750000000        -3.969311839080799E-095
   70.4306250000000        -9.770844652220358E-095
   70.6443750000000        -1.741387238796953E-094
   70.8581250000000        -2.558067481041088E-094
   71.0718750000000        -3.141986746818331E-094
   71.2856250000000        -3.020632594810203E-094
   71.4993750000000        -1.543862274451292E-094
   71.7131250000000         2.024210031770425E-094
   71.9268750000000         8.289497242989769E-094
   72.1406250000000         1.735723358289513E-093
   72.3543750000000         2.830817316070745E-093
   72.5681250000000         3.858690136111543E-093
   72.7818750000000         4.346376958704517E-093
   72.9956250000000         3.585331941936833E-093
   73.2093750000000         6.893324337136571E-094
   73.4231250000000        -5.223824026129733E-093
   73.6368750000000        -1.468383698893686E-092
   73.8506250000000        -2.733548680482891E-092
   74.0643750000000        -4.126101403433294E-092
   74.2781250000000        -5.228715471429048E-092
   74.4918750000000        -5.352930866055639E-092
   74.7056250000000        -3.556022840088564E-092
   74.9193750000000         1.230290645877274E-092
   75.1331250000000         9.908654421998652E-092
   75.3468750000000         2.272853104814857E-091
   75.5606250000000         3.861260167866075E-091
   75.7743750000000         5.438599924940371E-091
   75.9881250000000         6.411048753493117E-091
   76.2018750000000         5.886105372573376E-091
   76.4156250000000         2.740857566321128E-091
   76.6293750000000        -4.166496818533708E-091
   76.8431250000000        -1.559691828669046E-090
   77.0568750000000        -3.132816796693623E-090
   77.2706250000000        -4.939671628955945E-090
   77.4843750000000        -6.532618030519588E-090
   77.6981250000000        -7.160769523280671E-090
   77.9118750000000        -5.782716068356147E-090
   78.1256250000000        -1.192922520185144E-090
   78.3393750000000         7.689358012900819E-090
   78.5531250000000         2.133731739696622E-089
   78.7668750000000         3.895125695011768E-089
   78.9806250000000         5.769482531156389E-089
   79.1943750000000         7.201865820933181E-089
   79.4081250000000         7.337523593896525E-089
   79.6218750000000         5.073511182353251E-089
   79.8356250000000        -7.636298012730404E-090
   80.0493750000000        -1.107517174639339E-088
   80.2631250000000        -2.596912048533294E-088
   80.4768750000000        -4.409729940157158E-088
   80.6906250000000        -6.196308633847078E-088
   80.9043750000000        -7.340856602642211E-088
   81.1181250000000        -6.958967456851097E-088
   81.3318750000000        -3.982074976453960E-088
   81.5456250000000         2.632848548010886E-088
   81.7593750000000         1.354235408666953E-087
   81.9731250000000         2.850829629085256E-087
   82.1868750000000         4.579710101668577E-087
   82.4006250000000         6.161171633640717E-087
   82.6143750000000         6.976302560469782E-087
   82.8281250000000         6.186212117598243E-087
   83.0418750000000         2.835368900685998E-087
   83.2556250000000        -3.932401218645078E-087
   83.4693750000000        -1.453167150687680E-086
   83.6831250000000        -2.848318630416607E-086
   83.8968750000000        -4.391375442139963E-086
   84.1106250000000        -5.712912141829855E-086
   84.3243750000000        -6.244313567375019E-086
   84.5381250000000        -5.249606962715809E-086
   84.7518750000000        -1.930765256683491E-086
   84.9656250000000         4.374266730609650E-086
   85.1793750000000         1.389628701194368E-085
   85.3931250000000         2.606378807800993E-085
   85.6068750000000         3.911478348898217E-085
   85.8206250000000         4.979477228782886E-085
   86.0343750000000         5.328802592623149E-085
   86.2481250000000         4.355932854951392E-085
   86.4618750000000         1.428152617477818E-085
   86.6756250000000        -3.952919512558347E-085
   86.8893750000000        -1.191712969119357E-084
   87.1031250000000        -2.194118806699406E-084
   87.3168750000000        -3.256130451217836E-084
   87.5306250000000        -4.116212036455844E-084
   87.7443750000000        -4.395031213916178E-084
   87.9581250000000        -3.623909928692697E-084
   88.1718750000000        -1.316437603065913E-084
   88.3856250000000         2.908847978960893E-084
   88.5993750000000         9.155668874895040E-084
   88.8131250000000         1.704210174658872E-083
   89.0268750000000         2.549119418159086E-083
   89.2406250000000         3.257486571259361E-083
   89.4543750000000         3.548551228816527E-083
   89.6681250000000         3.072203832659100E-083
   89.8818750000000         1.457457754337330E-083
   90.0956250000000        -1.603308457140999E-083
   90.3093750000000        -6.233944046531903E-083
   90.5231250000000        -1.222643349436919E-082
   90.7368750000000        -1.888564249089727E-082
   90.9506250000000        -2.490159061787724E-082
   91.1643750000000        -2.829808312834680E-082
   91.3781250000000        -2.651730886991532E-082
   91.5918750000000        -1.670292230172802E-082
   91.8056250000000         3.766125057109238E-083
   92.0193750000000         3.646756880723208E-082
   92.2331250000000         8.088202999575708E-082
   92.4468750000000         1.331985602817629E-081
   92.6606250000000         1.851837392514913E-081
   92.8743750000000         2.234307348582076E-081
   93.0881250000000         2.294120864581608E-081
   93.3018750000000         1.808340842959205E-081
   93.5156250000000         5.479242836074651E-082
   93.7293750000000        -1.668893947435971E-081
   93.9431250000000        -4.900467051523009E-081
   94.1568750000000        -8.986963315069733E-081
   94.3706250000000        -1.344844064161529E-080
   94.5843750000000        -1.739670848014614E-080
   94.7981250000000        -1.949246213786272E-080
   95.0118750000000        -1.798883469352212E-080
   95.2256250000000        -1.090813276948322E-080
   95.4393750000000         3.604223336853514E-081
   95.6531250000000         2.672080408857170E-080
   95.8668750000000         5.817550682819891E-080
   96.0806250000000         9.537358710344887E-080
   96.2943750000000         1.325125401146107E-079
   96.5081250000000         1.599539544398740E-079
   96.7218750000000         1.641836299282774E-079
   96.9356250000000         1.287695451733337E-079
   97.1493750000000         3.673725494170321E-080
   97.3631250000000        -1.253160346665563E-079
   97.5768750000000        -3.613015773524525E-079
   97.7906250000000        -6.582923786055851E-079
   98.0043750000000        -9.787736794203615E-079
   98.2181250000000        -1.254313872697600E-078
   98.4318750000000        -1.383313903264038E-078
   98.6456250000000        -1.236154694168333E-078
   98.8593750000000        -6.712498479451711E-079
   99.0731250000000         4.351431294830137E-079
   99.2868750000000         2.144371455554341E-078
   99.5006250000000         4.398486059034765E-078
   99.7143750000000         6.958303183922924E-078
   99.9281250000000         9.349861293194819E-078
   100.141875000000         1.083911341705923E-077
   100.355625000000         1.045981106936127E-077
   100.569375000000         7.121128212540922E-078
   100.783125000000        -1.830388531703633E-079
   100.996875000000        -1.205464934709568E-077
   101.210625000000        -2.827781296091289E-077
   101.424375000000        -4.736189109366189E-077
   101.638125000000        -6.613599050105507E-077
   101.851875000000        -7.953453797334592E-077
   102.065625000000        -8.074916536859920E-077
   102.279375000000        -6.193268804857220E-077
   102.493125000000        -1.560843154072036E-077
   102.706875000000         6.315494479206622E-077
   102.920625000000         1.739084926522969E-076
   103.134375000000         3.076707794054958E-076
   103.348125000000         4.440910803730628E-076
   103.561875000000         5.498571093916516E-076
   103.775625000000         5.795056450313029E-076
   103.989375000000         4.798563065042527E-076
   104.203125000000         1.990686890594009E-076
   104.416875000000        -2.992865441416307E-076
   104.630625000000        -1.017819546409653E-075
   104.844375000000        -1.904767086520901E-075
   105.058125000000        -2.835309633753016E-075
   105.271875000000        -3.600624052073111E-075
   105.485625000000        -3.911939683584356E-075
   105.699375000000        -3.427211716839232E-075
   105.913125000000        -1.806624300063182E-075
   106.126875000000         1.200645413574672E-075
   106.340625000000         5.642512196415701E-075
   106.554375000000         1.123621723346509E-074
   106.768125000000         1.725100782408157E-074
   106.981875000000         2.243658448178990E-074
   107.195625000000         2.504093128554848E-074
   107.409375000000         2.296310294579910E-074
   107.623125000000         1.407816909643275E-074
   107.836875000000        -3.250782804402440E-075
   108.050625000000        -2.949698704402797E-074
   108.264375000000        -6.320760133489781E-074
   108.478125000000        -1.002952159277254E-073
   108.691875000000        -1.335875816879244E-073
   108.905625000000        -1.528876671334339E-073
   109.119375000000        -1.458076756704366E-073
   109.333125000000        -9.959347215060501E-074
   109.546875000000        -4.030003228693548E-075
   109.760625000000         1.446975467463797E-073
   109.974375000000         3.396131455120970E-073
   110.188125000000         5.588140641003574E-073
   110.401875000000         7.627316006673118E-073
   110.615625000000         8.941999040034541E-073
   110.829375000000         8.828138592491548E-073
   111.043125000000         6.548032664406192E-073
   111.256875000000         1.489647599387434E-073
   111.470625000000        -6.619858857624004E-073
   111.684375000000        -1.746923329337375E-072
   111.898125000000        -2.992923183974539E-072
   112.111875000000        -4.189170755578407E-072
   112.325625000000        -5.025852063503762E-072
   112.539375000000        -5.116121824779833E-072
   112.753125000000        -4.047918903849117E-072
   112.966875000000        -1.468760023888027E-072
   113.180625000000         2.799634613495616E-072
   113.394375000000         8.628796284489824E-072
   113.608125000000         1.545538551152368E-071
   113.821875000000         2.219027732351638E-071
   114.035625000000         2.720559238713205E-071
   114.249375000000         2.844269375552769E-071
   114.463125000000         2.367733201808211E-071
   114.676875000000         1.095915563309862E-071
   114.890625000000        -1.078991921223277E-071
   115.104375000000        -4.107961225847134E-071
   115.318125000000        -7.717273932426690E-071
   115.531875000000        -1.135935401863479E-070
   115.745625000000        -1.420331163379329E-070
   115.959375000000        -1.518736898680483E-070
   116.173125000000        -1.315178851240951E-070
   116.386875000000        -7.061171535531260E-071
   116.600625000000         3.691725849404948E-071
   116.814375000000         1.893168665319120E-070
   117.028125000000         3.735457050541051E-070
   117.241875000000         5.627401133536510E-070
   117.455625000000         7.156666627821617E-070
   117.669375000000         7.792639453331402E-070
   117.883125000000         6.951905042375680E-070
   118.096875000000         4.108004485088965E-070
   118.310625000000        -1.058682570174561E-070
   118.524375000000        -8.486531358175958E-070
   118.738125000000        -1.756266606850305E-069
   118.951875000000        -2.699921267029887E-069
   119.165625000000        -3.480696218140823E-069
   119.379375000000        -3.841929671450600E-069
   119.593125000000        -3.500929518794737E-069
   119.806875000000        -2.201815390073815E-069
   120.020625000000         2.127782692497258E-070
   120.234375000000         3.718895638096251E-069
   120.448125000000         8.031365174025079E-069
   120.661875000000         1.254674891506387E-068
   120.875625000000         1.633308369056594E-068
   121.089375000000         1.819064380506398E-068
   121.303125000000         1.680269009129448E-068
   121.516875000000         1.098301850581337E-068
   121.730625000000         7.748231660804024E-072
   121.944375000000        -1.600658726752632E-068
   122.158125000000        -3.574476441552712E-068
   122.371875000000        -5.644618398996865E-068
   122.585625000000        -7.387750928695857E-068
   122.799375000000        -8.263046211662082E-068
   123.013125000000        -7.682319499068282E-068
   123.226875000000        -5.122560750562685E-068
   123.440625000000        -2.740072195822894E-069
   123.654375000000         6.794377982500268E-068
   123.868125000000         1.548226220647883E-067