  -1.60312500000000         0.000000000000000E+000
  -1.38937500000000         0.000000000000000E+000
  -1.17562500000000         0.000000000000000E+000
 -0.961875000000000         0.000000000000000E+000
 -0.748125000000000         0.000000000000000E+000
 -0.534375000000000         0.000000000000000E+000
 -0.320625000000000         0.000000000000000E+000
 -0.106875000000000         0.000000000000000E+000
  0.106875000000000         0.000000000000000E+000
  0.320625000000000         0.000000000000000E+000
  0.534375000000000         0.000000000000000E+000
  0.748125000000000         0.000000000000000E+000
  0.961875000000000         0.000000000000000E+000
   1.17562500000000         0.000000000000000E+000
   1.38937500000000         0.000000000000000E+000
   1.60312500000000         0.000000000000000E+000
   1.81687500000000         0.000000000000000E+000
   2.03062500000000         0.000000000000000E+000
   2.24437500000000         0.000000000000000E+000
   2.45812500000000         0.000000000000000E+000
   2.67187500000000         0.000000000000000E+000
   2.88562500000000         0.000000000000000E+000
   3.09937500000000         0.000000000000000E+000
   3.31312500000000         0.000000000000000E+000
   3.52687500000000         0.000000000000000E+000
   3.74062500000000         0.000000000000000E+000
   3.95437500000000         0.000000000000000E+000
   4.16812500000000         0.000000000000000E+000
   4.38187500000000         0.000000000000000E+000
   4.59562500000000         0.000000000000000E+000
   4.80937500000000         0.000000000000000E+000
   5.02312500000000         0.000000000000000E+000
   5.23687500000000         0.000000000000000E+000
   5.45062500000000         0.000000000000000E+000
   5.66437500000000         0.000000000000000E+000
   5.87812500000000         0.000000000000000E+000
   6.09187500000000         0.000000000000000E+000
   6.30562500000000         0.000000000000000E+000
   6.51937500000000         0.000000000000000E+000
   6.73312500000000         0.000000000000000E+000
   6.94687500000000         0.000000000000000E+000
   7.16062500000000         0.000000000000000E+000
   7.37437500000000         0.000000000000000E+000
   7.58812500000000         0.000000000000000E+000
   7.80187500000000         0.000000000000000E+000
   8.01562500000000         0.000000000000000E+000
   8.22937500000000         0.000000000000000E+000
   8.44312500000000         0.000000000000000E+000
   8.65687500000000         0.000000000000000E+000
   8.87062500000000         0.000000000000000E+000
   9.08437500000000         0.000000000000000E+000
   9.29812500000000         0.000000000000000E+000
   9.51187500000000        -2.115282846143369E-198
   9.72562500000000         2.625737329598142E-190
   9.93937500000000        -1.575354684914650E-187
   10.1531250000000         1.066710508390756E-185
   10.3668750000000        -2.840270572663564E-183
   10.5806250000000        -1.793193468514706E-181
   10.7943750000000        -4.720214782830644E-180
   11.0081250000000        -6.935114828860983E-179
   11.2218750000000        -5.279289412054650E-178
   11.4356250000000         8.004118149050588E-178
   11.6493750000000         7.977588512877132E-176
   11.8631250000000         1.202271922375769E-174
   12.0768750000000         1.147686232162304E-173
   12.2906250000000         8.151128649905608E-173
   12.5043750000000         4.775460409863002E-172
   12.7181250000000         2.780676831836260E-171
   12.9318750000000         1.991001792968184E-170
   13.1456250000000         1.623431650814834E-169
   13.3593750000000         1.192119741072312E-168
   13.5731250000000         6.864673038036761E-168
   13.7868750000000         2.876694420737302E-167
   14.0006250000000         9.701313873755482E-167
   14.2143750000000         7.504183187161086E-166
   14.4281250000000         1.201543978064707E-164
   14.6418750000000         1.535725353457703E-163
   14.8556250000000         1.485945474886287E-162
   15.0693750000000         1.152787319204626E-161
   15.2831250000000         7.417424040902607E-161
   15.4968750000000         3.993028722460780E-160
   15.7106250000000         1.759399521255821E-159
   15.9243750000000         5.756804468104367E-159
   16.1381250000000         7.530781717341496E-159
   16.3518750000000        -7.335856448623466E-158
   16.5656250000000        -8.160054861698559E-157
   16.7793750000000        -5.347359984368333E-156
   16.9931250000000        -2.748525663798430E-155
   17.2068750000000        -1.172671881556502E-154
   17.4206250000000        -4.107494195297210E-154
   17.6343750000000        -1.059873587276588E-153
   17.8481250000000        -8.332350906989522E-154
   18.0618750000000         1.233489616138356E-152
   18.2756250000000         1.097536265606680E-151
   18.4893750000000         6.345327492418295E-151
   18.7031250000000         3.037274806433879E-150
   18.9168750000000         1.287843031448095E-149
   19.1306250000000         4.979064562262474E-149
   19.3443750000000         1.781873176835970E-148
   19.5581250000000         5.954623406348717E-148
   19.7718750000000         1.868408146827824E-147
   19.9856250000000         5.525664035311097E-147
   20.1993750000000         1.545234106817364E-146
   20.4131250000000         4.101794805072895E-146
   20.6268750000000         1.040004886487461E-145
   20.8406250000000         2.547565190662872E-145
   21.0543750000000         6.151268915431555E-145
   21.2681250000000         1.509399197248226E-144
   21.4818750000000         3.895453564126426E-144
   21.6956250000000         1.078619267361802E-143
   21.9093750000000         3.173885074661645E-143
   22.1231250000000         9.617065500821778E-143
   22.3368750000000         2.901369035125485E-142
   22.5506250000000         8.504145053473299E-142
   22.7643750000000         2.385850202750366E-141
   22.9781250000000         6.350124544732878E-141
   23.1918750000000         1.593422946000446E-140
   23.4056250000000         3.746236684966414E-140
   23.6193750000000         8.182850895748851E-140
   23.8331250000000         1.637745578701980E-139
   24.0468750000000         2.926863993660402E-139
   24.2606250000000         4.410661182854721E-139
   24.4743750000000         4.682896397347892E-139
   24.6881250000000        -1.694193970759869E-140
   24.9018750000000        -1.800263630867541E-138
   25.1156250000000        -5.884821322669898E-138
   25.3293750000000        -1.191185480962355E-137
   25.5431250000000        -1.237029375918716E-137
   25.7568750000000         2.346949538482982E-137
   25.9706250000000         1.866210706286819E-136
   26.1843750000000         7.000246824677099E-136
   26.3981250000000         2.027279647336658E-135
   26.6118750000000         4.963153530997964E-135
   26.8256250000000         1.047294167435948E-134
   27.0393750000000         1.861431896889692E-134
   27.2531250000000         2.498380080213371E-134
   27.4668750000000         1.159393845619276E-134
   27.6806250000000        -7.294961446382606E-134
   27.8943750000000        -3.503548480117278E-133
   28.1081250000000        -1.069368059702941E-132
   28.3218750000000        -2.666635410480696E-132
   28.5356250000000        -5.763307759334204E-132
   28.7493750000000        -1.090975143546687E-131
   28.9631250000000        -1.766348873447066E-131
   29.1768750000000        -2.222157753408539E-131
   29.3906250000000        -1.237330149159497E-131
   29.6043750000000         4.176084900093963E-131
   29.8181250000000         2.022168124642971E-130
   30.0318750000000         5.811905544712568E-130
   30.2456250000000         1.353532288670796E-129
   30.4593750000000         2.739325214677581E-129
   30.6731250000000         4.904583188724236E-129
   30.8868750000000         7.684854464809929E-129
   31.1006250000000         9.976550083853152E-129
   31.3143750000000         8.567059660182625E-129
   31.5281250000000        -3.906255796562395E-129
   31.7418750000000        -4.225652456028518E-128
   31.9556250000000        -1.337430043031278E-127
   32.1693750000000        -3.250807545440331E-127
   32.3831250000000        -6.909754782035929E-127
   32.5968750000000        -1.340540517613437E-126
   32.8106250000000        -2.408161740452790E-126
   33.0243750000000        -3.989606331417318E-126
   33.2381250000000        -5.925532421761242E-126
   33.4518750000000        -7.219510043874859E-126
   33.6656250000000        -4.689330228989499E-126
   33.8793750000000         9.777761107835428E-126
   34.0931250000000         5.407691461333976E-125
   34.3068750000000         1.629594725865841E-124
   34.5206250000000         3.950082750544918E-124
   34.7343750000000         8.308486459342718E-124
   34.9481250000000         1.540755629977576E-123
   35.1618750000000         2.477229322232207E-123
   35.3756250000000         3.217544039621935E-123
   35.5893750000000         2.456387900173526E-123
   35.8031250000000        -2.830117517608044E-123
   36.0168750000000        -1.847309000127714E-122
   36.2306250000000        -5.393533009298822E-122
   36.4443750000000        -1.214145438017646E-121
   36.6581250000000        -2.301332436368936E-121
   36.8718750000000        -3.704393008619313E-121
   37.0856250000000        -4.801716719358175E-121
   37.2993750000000        -3.859725403342348E-121
   37.5131250000000         2.802849377677237E-121
   37.7268750000000         2.166679729862759E-120
   37.9406250000000         6.214558291873611E-120
   38.1543750000000         1.343837628549905E-119
   38.3681250000000         2.418485634351613E-119
   38.5818750000000         3.645437400759189E-119
   38.7956250000000         4.283440390835015E-119
   39.0093750000000         2.587301522825147E-119
   39.2231250000000        -4.732376338634360E-119
   39.4368750000000        -2.283459434735347E-118
   39.6506250000000        -5.818265053205340E-118
   39.8643750000000        -1.158481776179190E-117
   40.0781250000000        -1.928068074899297E-117
   40.2918750000000        -2.649917944804267E-117
   40.5056250000000        -2.665747029023439E-117
   40.7193750000000        -6.306746982146302E-118
   40.9331250000000         5.726341784255767E-117
   41.1468750000000         1.957989829841826E-116
   41.3606250000000         4.426947193275639E-116
   41.5743750000000         8.111073295763999E-116
   41.7881250000000         1.247818167535662E-115
   42.0018750000000         1.553462602652406E-115
   42.2156250000000         1.267429035584836E-115
   42.4293750000000        -4.620432828751376E-116
   42.6431250000000        -4.955786029721271E-115
   42.8568750000000        -1.388352612533596E-114
   43.0706250000000        -2.868548950242824E-114
   43.2843750000000        -4.914689320838041E-114
   43.4981250000000        -7.065766890377931E-114
   43.7118750000000        -7.980312109738615E-114
   43.9256250000000        -4.849067635249245E-114
   44.1393750000000         7.179577293929567E-114
   44.3531250000000         3.513516846564464E-113
   44.5668750000000         8.706607270928684E-113
   44.7806250000000         1.681610821434682E-112
   44.9943750000000         2.721822251926872E-112
   45.2081250000000         3.661490245070876E-112
   45.4218750000000         3.674307560344473E-112
   45.6356250000000         1.163125733591615E-112
   45.8493750000000        -6.444563386090219E-112
   46.0631250000000        -2.256907165718698E-111
   46.2768750000000        -5.054451594891246E-111
   46.4906250000000        -9.116742004183935E-111
   46.7043750000000        -1.378819646516578E-110
   46.9181250000000        -1.689875787655054E-110
   47.1318750000000        -1.372997065337131E-110
   47.3456250000000         3.983376221660452E-111
   47.5593750000000         4.827388593329274E-110
   47.7731250000000         1.329647938427130E-109
   47.9868750000000         2.672740366133433E-109
   48.2006250000000         4.421985301396049E-109
   48.4143750000000         6.072695382859588E-109
   48.6281250000000         6.378972262245193E-109
   48.8418750000000         3.001221860953367E-109
   49.0556250000000        -7.680628410271462E-109
   49.2693750000000        -3.020878116865911E-108
   49.4831250000000        -6.853744826155567E-108
   49.6968750000000        -1.225859075337826E-107
   49.9106250000000        -1.821285755815003E-107
   50.1243750000000        -2.179075367463184E-107
   50.3381250000000        -1.714437984513986E-107
   50.5518750000000         5.197811543860031E-108
   50.7656250000000         5.781089039351504E-107
   50.9793750000000         1.531717556973199E-106
   51.1931250000000         2.958641926800925E-106
   51.4068750000000         4.683554363883489E-106
   51.6206250000000         6.098099223202305E-106
   51.8343750000000         5.908527347491361E-106
   52.0481250000000         1.936883980067365E-106
   52.2618750000000        -8.831674219875427E-106
   52.4756250000000        -2.964329403147776E-105
   52.6893750000000        -6.240062875697122E-105
   52.9031250000000        -1.047153237582141E-104
   53.1168750000000        -1.454350628728136E-104
   53.3306250000000        -1.591637764164616E-104
   53.5443750000000        -1.015533346773439E-104
   53.7581250000000         9.095575522060396E-105
   53.9718750000000         4.909723618615052E-104
   54.1856250000000         1.151685242922575E-103
   54.3993750000000         2.052214100171228E-103
   54.6131250000000         3.013277814488760E-103
   54.8268750000000         3.591462219904431E-103
   55.0406250000000         2.982384739223997E-103
   55.2543750000000        -3.972359196202138E-106
   55.4681250000000        -6.792827514301324E-103
   55.6818750000000        -1.858280655711183E-102
   55.8956250000000        -3.543486409436448E-102
   56.1093750000000        -5.484284146222777E-102
   56.3231250000000        -6.990392935098249E-102
   56.5368750000000        -6.755590507452914E-102
   56.7506250000000        -2.786715451524250E-102
   56.9643750000000         7.401251330011950E-102
   57.1781250000000         2.611057476338566E-101
   57.3918750000000         5.408777789155016E-101
   57.6056250000000         8.833203252429244E-101
   57.8193750000000         1.192359094714160E-100
   58.0331250000000         1.277128071323476E-100
   58.2468750000000         8.371139228735836E-101
   58.4606250000000        -5.159149756171332E-101
   58.6743750000000        -3.168681491384449E-100
   58.8881250000000        -7.318221152534319E-100
   59.1018750000000        -1.266602337160861E-099
   59.3156250000000        -1.801178359320539E-099
   59.5293750000000        -2.083079929938885E-099
   59.7431250000000        -1.701758250424096E-099
   59.9568750000000        -1.095682671433723E-100
   60.1706250000000         3.270547207594307E-099
   60.3843750000000         8.808659755655261E-099
   60.5981250000000         1.627638838873329E-098
   60.8118750000000         2.431826667559288E-098
   61.0256250000000         2.988579673553320E-098
   61.2393750000000         2.785465925030885E-098
   61.4531250000000         1.118899636055857E-098
   61.6668750000000        -2.785941908547561E-098
   61.8806250000000        -9.500123363296851E-098
   62.0943750000000        -1.892699679425403E-097
   62.3081250000000        -2.966620977845806E-097
   62.5218750000000        -3.831667155863825E-097
   62.7356250000000        -3.896763116136828E-097
   62.9493750000000        -2.329115944438399E-097
   63.1631250000000         1.820801316664489E-097
   63.3768750000000         9.319247195456427E-097
   63.5906250000000         2.023375213838606E-096
   63.8043750000000         3.321674917297827E-096
   64.0181250000000         4.470484247517482E-096
   64.2318750000000         4.830003076421568E-096
   64.4456250000000         3.477739434530807E-096
   64.6593750000000        -6.679780295728505E-097
   64.8731250000000        -8.537013668070286E-096
   65.0868750000000        -2.036307914343666E-095
   65.3006250000000        -3.491660205739850E-095
   65.5143750000000        -4.863078089336916E-095
   65.7281250000000        -5.489219562963398E-095
   65.9418750000000        -4.395353470171080E-095
   66.1556250000000        -4.092855108478434E-096
   66.3693750000000         7.529718159831975E-095
   66.5831250000000         1.981804948587459E-094
   66.7968750000000         3.539491254706443E-094
   67.0106250000000         5.081777144721076E-094
   67.2243750000000         5.946994114767636E-094
   67.4381250000000         5.135370118187884E-094
   67.6518750000000         1.409857480675342E-094
   67.8656250000000        -6.410721633175395E-094
   68.0793750000000        -1.890948590346990E-093
   68.2931250000000        -3.527366541462611E-093
   68.5068750000000        -5.233298049245227E-093
   68.7206250000000        -6.367660254818902E-093
   68.9343750000000        -5.927989993422758E-093
   69.1481250000000        -2.625794801862621E-093
   69.3618750000000         4.853136266481749E-093
   69.5756250000000         1.733991238041601E-092
   69.7893750000000         3.440342422508464E-092
   70.0031250000000         5.336675298147694E-092
   70.2168750000000         6.832455159936414E-092
   70.4306250000000         6.954985739993667E-092
   70.6443750000000         4.387231120600127E-092
   70.8581250000000        -2.325165542483348E-092
   71.0718750000000        -1.432734347302780E-091
   71.2856250000000        -3.172903629961465E-091
   71.4993750000000        -5.263040848738336E-091
   71.7131250000000        -7.205374764420528E-091
   71.9268750000000        -8.110471440610912E-091
   72.1406250000000        -6.688180125149669E-091
   72.3543750000000        -1.382163070954874E-091
   72.5681250000000         9.277376547012096E-091
   72.7818750000000         2.604484827776601E-090
   72.9956250000000         4.804853300911752E-090
   73.2093750000000         7.169058298818601E-090
   73.4231250000000         8.959821634911833E-090
   73.6368750000000         9.005180548324712E-090
   73.8506250000000         5.750305285817105E-090
   74.0643750000000        -2.507867647416523E-090
   74.2781250000000        -1.713273942365431E-089
   74.4918750000000        -3.836749006959596E-089
   74.7056250000000        -6.429298586257353E-089
   74.9193750000000        -8.967292330447287E-089
   75.1331250000000        -1.049972406868231E-088
   75.3468750000000        -9.622186779358741E-089
   75.5606250000000        -4.587048473679336E-089
   75.7743750000000         6.376079107437707E-089
   75.9881250000000         2.446716287353931E-088
   76.2018750000000         4.942971680712658E-088
   76.4156250000000         7.843476942244499E-088
   76.6293750000000         1.049259102409889E-087
   76.8431250000000         1.177829330345755E-087
   77.0568750000000         1.013410537249573E-087
   77.2706250000000         3.694598965154907E-088
   77.4843750000000        -9.324325882176603E-088
   77.6981250000000        -2.996700224221342E-087
   77.9118750000000        -5.759726034754874E-087
   78.1256250000000        -8.876037135065151E-087
   78.3393750000000        -1.160635819495853E-086
   78.5531250000000        -1.274538650518944E-086
   78.7668750000000        -1.064380393926734E-086
   78.9806250000000        -3.391017958234901E-087
   79.1943750000000         1.077499371590586E-086
   79.4081250000000         3.278577640577384E-086
   79.6218750000000         6.179560137226633E-086
   79.8356250000000         9.406659370086951E-086
   80.0493750000000         1.219098271022045E-085
   80.2631250000000         1.330595025780509E-085
   80.4768750000000         1.110075731646326E-085
   80.6906250000000         3.692432515841872E-086
   80.9043750000000        -1.062332744396793E-085
   81.1181250000000        -3.270528453961665E-085
   81.3318750000000        -6.165812579336049E-085
   81.5456250000000        -9.378230065876409E-085
   81.7593750000000        -1.216005726864911E-084
   81.9731250000000        -1.333181331080745E-084
   82.1868750000000        -1.132039619022465E-084
   82.4006250000000        -4.345840754025265E-085
   82.6143750000000         9.190719456389526E-085
   82.8281250000000         3.008814905723041E-084
   83.0418750000000         5.751426804465968E-084
   83.2556250000000         8.805949765768379E-084
   83.4693750000000         1.148770599311807E-083
   83.6831250000000         1.272311613934730E-083
   83.8968750000000         1.108828680070100E-083
   84.1106250000000         4.979959301336253E-084
   84.3243750000000        -7.037565883905506E-084
   84.5381250000000        -2.568749311736646E-083
   84.7518750000000        -5.025894744457421E-083
   84.9656250000000        -7.779764243892329E-083
   85.1793750000000        -1.023860646509583E-082
   85.3931250000000        -1.147877885548777E-082
   85.6068750000000        -1.028141535953054E-082
   85.8206250000000        -5.280715654586393E-083
   86.0343750000000         4.742344263235663E-083
   86.2481250000000         2.040641508464004E-082
   86.4618750000000         4.113856860771526E-082
   86.6756250000000         6.452290727113750E-082
   86.8893750000000         8.573620943950104E-082
   87.1031250000000         9.729171695384373E-082
   87.3168750000000         8.937135732834706E-082
   87.5306250000000         5.104424084697298E-082
   87.7443750000000        -2.738737498524550E-082
   87.9581250000000        -1.508366491484637E-081
   88.1718750000000        -3.148895437718413E-081
   88.3856250000000        -5.009066557671053E-081
   88.5993750000000        -6.719181774315680E-081
   88.8131250000000        -7.709779242638807E-081
   89.0268750000000        -7.240192643366579E-081
   89.2406250000000        -4.492962138848058E-081
   89.4543750000000         1.250270022062320E-081
   89.6681250000000         1.034860192847102E-080
   89.8818750000000         2.247635086877249E-080
   90.0956250000000         3.628095964166661E-080
   90.3093750000000         4.910794548213653E-080
   90.5231250000000         5.690958446097919E-080
   90.7368750000000         5.447510479334483E-080
   90.9506250000000         3.611614322738687E-080
   91.1643750000000        -3.101900614458865E-081
   91.3781250000000        -6.558572576624066E-080
   91.5918750000000        -1.490490916428317E-079
   91.8056250000000        -2.443043989981550E-079
   92.0193750000000        -3.335751224840244E-079
   92.2331250000000        -3.900845743523613E-079
   92.4468750000000        -3.797757617992159E-079
   92.6606250000000        -2.659447325996992E-079
   92.8743750000000        -1.724713754170249E-080
   93.0881250000000         3.810908707169895E-079
   93.3018750000000         9.139654942758975E-079
   93.5156250000000         1.523273818946622E-078
   93.7293750000000         2.098487567705405E-078
   93.9431250000000         2.475418391091086E-078
   94.1568750000000         2.448025016840700E-078
   94.3706250000000         1.797396600897366E-078
   94.5843750000000         3.398698221576043E-079
   94.7981250000000        -2.007616528092927E-078
   95.0118750000000        -5.152248463787383E-078
   95.2256250000000        -8.753881723369557E-078
   95.4393750000000        -1.217742036029862E-077
   95.6531250000000        -1.449350038600965E-077
   95.8668750000000        -1.455250004873674E-077
   96.0806250000000        -1.115140201642022E-077
   96.2943750000000        -3.299813637689323E-078
   96.5081250000000         9.430037127681438E-078
   96.7218750000000         2.651298580658911E-077
   96.9356250000000         4.611571852913537E-077
   97.1493750000000         6.488081403525105E-077
   97.3631250000000         7.797123586441015E-077
   97.5768750000000         7.949194085544322E-077
   97.7906250000000         6.336994106372237E-077
   98.0043750000000         2.470208638797462E-077
   98.2181250000000        -3.852860862191938E-077
   98.4318750000000        -1.236025819328947E-076
   98.6456250000000        -2.214554664443281E-076
   98.8593750000000        -3.158048059774201E-076
   99.0731250000000        -3.835566948787028E-076
   99.2868750000000        -3.969831847054342E-076
   99.5006250000000        -3.279664240137160E-076
   99.7143750000000        -1.542538040602048E-076
   99.9281250000000         1.328258012595093E-076
   100.141875000000         5.203170310828092E-076
   100.355625000000         9.669690303486977E-076
   100.569375000000         1.400072177978857E-075
   100.783125000000         1.718046932145727E-075
   100.996875000000         1.800682816992065E-075
   101.210625000000         1.527997318978398E-075
   101.424375000000         8.071458473940947E-076
   101.638125000000        -3.952410019257124E-076
   101.851875000000        -2.020241609571934E-075
   102.065625000000        -3.890489313972254E-075
   102.279375000000        -5.699345154964138E-075
   102.493125000000        -7.024318762020931E-075
   102.706875000000        -7.372077813017113E-075
   102.920625000000        -6.258557211493130E-075
   103.134375000000        -3.321488322257344E-075
   103.348125000000         1.545567702265901E-075
   103.561875000000         8.058034904681537E-075
   103.775625000000         1.543355499524784E-074
   103.989375000000         2.235024071075620E-074
   104.203125000000         2.700902461013147E-074
   104.416875000000         2.733452325702120E-074
   104.630625000000         2.133467158944361E-074
   104.844375000000         7.613999299167543E-075
   105.058125000000        -1.400155992983015E-074
   105.271875000000        -4.181727505749473E-074
   105.485625000000        -7.174054251753942E-074
   105.699375000000        -9.705949861314652E-074
   105.913125000000        -1.087506439752080E-073
   106.126875000000        -9.653490475394967E-074
   106.340625000000        -5.084545938760421E-074
   106.554375000000         3.425983048674998E-074
   106.768125000000         1.574280036537056E-073
   106.981875000000         3.060785883457301E-073
   107.195625000000         4.530818093703765E-073
   107.409375000000         5.553072359703641E-073
   107.623125000000         5.556020096343109E-073
   107.836875000000         3.898279899952231E-073
   108.050625000000         2.555656723358462E-076
   108.264375000000        -6.442968575167607E-073
   108.478125000000        -1.522802897350216E-072
   108.691875000000        -2.534404103018391E-072
   108.905625000000        -3.475238030424437E-072
   109.119375000000        -4.029057233834605E-072
   109.333125000000        -3.783169781683455E-072
   109.546875000000        -2.281589867430255E-072
   109.760625000000         8.754832601646299E-073
   109.974375000000         5.883871167099189E-072
   110.188125000000         1.254958584182192E-071
   110.401875000000         2.009243955971925E-071
   110.615625000000         2.698696181501842E-071
   110.829375000000         3.090833081436005E-071
   111.043125000000         2.886439209203998E-071
   111.256875000000         1.759395063834504E-071
   111.470625000000        -5.712173625468501E-072
   111.684375000000        -4.236475103834834E-071
   111.898125000000        -9.088944110011037E-071
   112.111875000000        -1.457023384533920E-070
   112.325625000000        -1.960834259362824E-070
   112.539375000000        -2.259051451313781E-070
   112.753125000000        -2.146432738271002E-070
   112.966875000000        -1.401662836975414E-070
   113.180625000000         1.638344407925305E-071
   113.394375000000         2.636768556196654E-070
   113.608125000000         5.918889717333950E-070
   113.821875000000         9.643660331808133E-070
   114.035625000000         1.311439718269011E-069
   114.249375000000         1.529239594196940E-069
   114.463125000000         1.486672603194401E-069
   114.676875000000         1.043406589959513E-069
   114.890625000000         8.043906661704671E-071
   115.104375000000        -1.457531258927484E-069
   115.318125000000        -3.512179862298101E-069
   115.531875000000        -5.862606047837912E-069
   115.745625000000        -8.090311730590242E-069
   115.959375000000        -9.574587927516532E-069
   116.173125000000        -9.536023740115895E-069
   116.386875000000        -7.143268549450522E-069
   116.600625000000        -1.690405434837908E-069
   116.814375000000         7.161437640240760E-069
   117.028125000000         1.910396947509959E-068
   117.241875000000         3.291190374901304E-068
   117.455625000000         4.625514117939622E-068
   117.669375000000         5.568173548126747E-068
   117.883125000000         5.686433799798003E-068
   118.096875000000         4.518599891943823E-068
   118.310625000000         1.669731032369826E-068
   118.524375000000        -3.059692844073390E-068
   118.738125000000        -9.526397348779085E-068
   118.951875000000        -1.710410777455255E-067
   119.165625000000        -2.458753917392282E-067
   119.379375000000        -3.018536226050759E-067
   119.593125000000        -3.164775649192824E-067
   119.806875000000        -2.656452542522922E-067
   120.020625000000        -1.284691180910573E-067
   120.234375000000         1.063066613208241E-067
   120.448125000000         4.330166595466391E-067
   120.661875000000         8.221902332107960E-067
   120.875625000000         1.215861551316354E-066
   121.089375000000         1.527194846451837E-066
   121.303125000000         1.646540175045770E-066
   121.516875000000         1.455535689686550E-066
   121.730625000000         8.497698288577690E-067
   121.944375000000        -2.312082288044140E-067
   122.158125000000        -1.769972104028888E-066
   122.371875000000        -3.639287696583642E-066
   122.585625000000        -5.580264670145259E-066
   122.799375000000        -7.200030861136369E-066
   123.013125000000        -7.998169956350401E-066
   123.226875000000        -7.428784835603891E-066
   123.440625000000        -5.000084782574300E-066
   123.654375000000        -4.058483805382262E-067
   123.868125000000         6.326421988044469E-066