  -1.60312500000000         0.000000000000000E+000
  -1.38937500000000         0.000000000000000E+000
  -1.17562500000000         0.000000000000000E+000
 -0.961875000000000         0.000000000000000E+000
 -0.748125000000000         0.000000000000000E+000
 -0.534375000000000         0.000000000000000E+000
 -0.320625000000000         0.000000000000000E+000
 -0.106875000000000         0.000000000000000E+000
  0.106875000000000         0.000000000000000E+000
  0.320625000000000         0.000000000000000E+000
  0.534375000000000         0.000000000000000E+000
  0.748125000000000         0.000000000000000E+000
  0.961875000000000         0.000000000000000E+000
   1.17562500000000         0.000000000000000E+000
   1.38937500000000         0.000000000000000E+000
   1.60312500000000         0.000000000000000E+000
   1.81687500000000         0.000000000000000E+000
   2.03062500000000         0.000000000000000E+000
   2.24437500000000         0.000000000000000E+000
   2.45812500000000         0.000000000000000E+000
   2.67187500000000         0.000000000000000E+000
   2.88562500000000         0.000000000000000E+000
   3.09937500000000         0.000000000000000E+000
   3.31312500000000         0.000000000000000E+000
   3.52687500000000         0.000000000000000E+000
   3.74062500000000         0.000000000000000E+000
   3.95437500000000         0.000000000000000E+000
   4.16812500000000         0.000000000000000E+000
   4.38187500000000         0.000000000000000E+000
   4.59562500000000         0.000000000000000E+000
   4.80937500000000         0.000000000000000E+000
   5.02312500000000         0.000000000000000E+000
   5.23687500000000         0.000000000000000E+000
   5.45062500000000         0.000000000000000E+000
   5.66437500000000         0.000000000000000E+000
   5.87812500000000         0.000000000000000E+000
   6.09187500000000         0.000000000000000E+000
   6.30562500000000         0.000000000000000E+000
   6.51937500000000         0.000000000000000E+000
   6.73312500000000         0.000000000000000E+000
   6.94687500000000         0.000000000000000E+000
   7.16062500000000         0.000000000000000E+000
   7.37437500000000         0.000000000000000E+000
   7.58812500000000         0.000000000000000E+000
   7.80187500000000         0.000000000000000E+000
   8.01562500000000         0.000000000000000E+000
   8.22937500000000         0.000000000000000E+000
   8.44312500000000         0.000000000000000E+000
   8.65687500000000         0.000000000000000E+000
   8.87062500000000         0.000000000000000E+000
   9.08437500000000         0.000000000000000E+000
   9.29812500000000        -4.948030049458173E-198
   9.51187500000000         6.142075624790979E-190
   9.72562500000000        -3.685040198581280E-187
   9.93937500000000         2.495167838637333E-185
   10.1531250000000        -6.643539268292567E-183
   10.3668750000000        -4.194854127638702E-181
   10.5806250000000        -1.103479418072042E-179
   10.7943750000000        -1.618054478169787E-178
   11.0081250000000        -1.223880061807330E-177
   11.2218750000000         2.034533247236669E-177
   11.4356250000000         1.878451791110570E-175
   11.6493750000000         2.810459673826582E-174
   11.8631250000000         2.665985131343690E-173
   12.0768750000000         1.878573440390182E-172
   12.2906250000000         1.090220300970006E-171
   12.5043750000000         6.313837532952541E-171
   12.7181250000000         4.545607459343978E-170
   12.9318750000000         3.732455865488815E-169
   13.1456250000000         2.742011048286852E-168
   13.3593750000000         1.567796461510009E-167
   13.5731250000000         6.450251337146346E-167
   13.7868750000000         2.108736039754805E-166
   14.0006250000000         1.688073390663706E-165
   14.2143750000000         2.787936056587021E-164
   14.4281250000000         3.574786363205949E-163
   14.6418750000000         3.447789555802669E-162
   14.8556250000000         2.660655124374384E-161
   15.0693750000000         1.700310992611459E-160
   15.2831250000000         9.070760211790216E-160
   15.4968750000000         3.942047440577299E-159
   15.7106250000000         1.253216747569189E-158
   15.9243750000000         1.350030923060969E-158
   16.1381250000000        -1.850651905364665E-157
   16.3518750000000        -1.926400626636723E-156
   16.5656250000000        -1.233684542662480E-155
   16.7793750000000        -6.238421322061860E-155
   16.9931250000000        -2.618007676521213E-154
   17.2068750000000        -8.965243576414888E-154
   17.4206250000000        -2.204927249405705E-153
   17.6343750000000        -9.882705758344466E-154
   17.8481250000000         3.133279473370791E-152
   18.0618750000000         2.586827173131390E-151
   18.2756250000000         1.455433574457184E-150
   18.4893750000000         6.848002759937337E-150
   18.7031250000000         2.864069605903888E-149
   18.9168750000000         1.093646100963529E-148
   19.1306250000000         3.866874558341896E-148
   19.3443750000000         1.276425017572508E-147
   19.5581250000000         3.953732933670706E-147
   19.7718750000000         1.153263554310229E-146
   19.9856250000000         3.177528168735865E-146
   20.1993750000000         8.302288658577277E-146
   20.4131250000000         2.071301697791170E-145
   20.6268750000000         4.999732655334696E-145
   20.8406250000000         1.195617316712069E-144
   21.0543750000000         2.934836674109797E-144
   21.2681250000000         7.673278766276659E-144
   21.4818750000000         2.170010169911062E-143
   21.6956250000000         6.513075364325154E-143
   21.9093750000000         1.997297364552042E-142
   22.1231250000000         6.044398895109525E-142
   22.3368750000000         1.764313100208450E-141
   22.5506250000000         4.902253331550452E-141
   22.7643750000000         1.286481880558023E-140
   22.9781250000000         3.169211522164702E-140
   23.1918750000000         7.277717498229535E-140
   23.4056250000000         1.541386654911907E-139
   23.6193750000000         2.954671134983247E-139
   23.8331250000000         4.932348313650333E-139
   24.0468750000000         6.486352290415775E-139
   24.2606250000000         4.107678137280673E-139
   24.4743750000000        -1.071363878346366E-138
   24.6881250000000        -5.306557358134107E-138
   24.9018750000000        -1.372603364435626E-137
   25.1156250000000        -2.365284486258719E-137
   25.3293750000000        -1.517069575793508E-137
   25.5431250000000         8.276339226772723E-137
   25.7568750000000         4.654768757610972E-136
   25.9706250000000         1.582585232942410E-135
   26.1843750000000         4.305634097562519E-135
   26.3981250000000         9.972231224632174E-135
   26.6118750000000         1.975593456613525E-134
   26.8256250000000         3.193255073192740E-134
   27.0393750000000         3.394353012344850E-134
   27.2531250000000        -1.642194271977583E-134
   27.4668750000000        -2.290840123180346E-133
   27.6806250000000        -8.466638279951356E-133
   27.8943750000000        -2.330803380676292E-132
   28.1081250000000        -5.418200146126242E-132
   28.3218750000000        -1.097997590557021E-131
   28.5356250000000        -1.928214274850566E-131
   28.7493750000000        -2.783668064359406E-131
   28.9631250000000        -2.646041192659303E-131
   29.1768750000000         1.237470700087879E-131
   29.3906250000000         1.496664948187720E-130
   29.6043750000000         5.019651788441921E-130
   29.8181250000000         1.261823872445187E-129
   30.0318750000000         2.693135616857307E-129
   30.2456250000000         5.048268211008946E-129
   30.4593750000000         8.306551812990507E-129
   30.6731250000000         1.156848947399380E-128
   30.8868750000000         1.186425004708519E-128
   31.1006250000000         2.063637883912739E-129
   31.3143750000000        -3.247439972027030E-128
   31.5281250000000        -1.188855771239013E-127
   31.7418750000000        -3.037116924130185E-127
   31.9556250000000        -6.615771461608141E-127
   32.1693750000000        -1.303467775205767E-126
   32.3831250000000        -2.375344475016151E-126
   32.5968750000000        -4.016809970173561E-126
   32.8106250000000        -6.196645178488609E-126
   33.0243750000000        -8.227767675575322E-126
   33.2381250000000        -7.555330321538110E-126
   33.4518750000000         2.891701035723367E-126
   33.6656250000000         3.975969860049191E-125
   33.8793750000000         1.374649002159748E-124
   34.0931250000000         3.583197929327453E-124
   34.3068750000000         7.975002583418760E-124
   34.5206250000000         1.562313855784065E-123
   34.7343750000000         2.680110771749905E-123
   34.9481250000000         3.851182868533185E-123
   35.1618750000000         3.922312069343532E-123
   35.3756250000000        -4.875186446475446E-125
   35.5893750000000        -1.414657674205843E-122
   35.8031250000000        -4.895784304432905E-122
   36.0168750000000        -1.195443569014741E-121
   36.2306250000000        -2.407987223403216E-121
   36.4443750000000        -4.121588620910067E-121
   36.6581250000000        -5.825140516027291E-121
   36.8718750000000        -5.848852123951439E-121
   37.0856250000000        -3.633506309310767E-122
   37.2993750000000         1.778845870651559E-120
   37.5131250000000         5.971116421513439E-120
   37.7268750000000         1.388134117919506E-119
   37.9406250000000         2.636654165061123E-119
   38.1543750000000         4.203578491612285E-119
   38.3681250000000         5.383859116279026E-119
   38.5818750000000         4.362467266627843E-119
   38.7956250000000        -2.475171644290156E-119
   39.0093750000000        -2.108962977653657E-118
   39.2231250000000        -5.946642308813713E-118
   39.4368750000000        -1.250298811541966E-117
   39.6506250000000        -2.175756333814398E-117
   39.8643750000000        -3.149103086733949E-117
   40.0781250000000        -3.488739575731176E-117
   40.2918750000000        -1.725564804968752E-117
   40.5056250000000         4.723376015414361E-117
   40.7193750000000         1.963061710708586E-116
   40.9331250000000         4.727619414417050E-116
   41.1468750000000         9.015936876842252E-116
   41.3606250000000         1.439317769806357E-115
   41.5743750000000         1.883329703410757E-115
   41.7881250000000         1.736503562750893E-115
   42.0018750000000         4.587337555362224E-117
   42.2156250000000        -4.714633650356829E-115
   42.4293750000000        -1.455722822293827E-114
   42.6431250000000        -3.139528150283234E-114
   42.8568750000000        -5.550807829872976E-114
   43.0706250000000        -8.248740838139052E-114
   43.2843750000000        -9.818053661134755E-114
   43.4981250000000        -7.171047459416551E-114
   43.7118750000000         5.185261415505697E-114
   43.9256250000000         3.546172959922383E-113
   44.1393750000000         9.353037684419626E-113
   44.3531250000000         1.868689951236428E-112
   44.5668750000000         3.111717279013415E-112
   44.7806250000000         4.330202397272522E-112
   44.9943750000000         4.631296897394606E-112
   45.2081250000000         2.228035809163980E-112
   45.4218750000000        -5.844127512232192E-112
   45.6356250000000        -2.366987355891155E-111
   45.8493750000000        -5.551391202521308E-111
   46.0631250000000        -1.031577837726836E-110
   46.2768750000000        -1.604639728295963E-110
   46.4906250000000        -2.042981256204570E-110
   46.7043750000000        -1.820354590027276E-110
   46.9181250000000         1.362007293437767E-112
   47.1318750000000         4.884709730575670E-110
   47.3456250000000         1.450382610214364E-109
   47.5593750000000         3.017109184118188E-109
   47.7731250000000         5.122810542223404E-109
   47.9868750000000         7.233537691155365E-109
   48.2006250000000         7.953111150236620E-109
   48.4143750000000         4.577747276840105E-109
   48.6281250000000        -7.184733384575955E-109
   48.8418750000000        -3.288795478951266E-108
   49.0556250000000        -7.768421761312860E-108
   49.2693750000000        -1.423551341550508E-107
   49.4831250000000        -2.160868452985344E-107
   49.6968750000000        -2.657102393448997E-107
   49.9106250000000        -2.229745712573938E-107
   50.1243750000000         2.499363071368820E-108
   50.3381250000000         6.313114670992253E-107
   50.5518750000000         1.753339654705378E-106
   50.7656250000000         3.461378810607250E-106
   50.9793750000000         5.568498299101227E-106
   51.1931250000000         7.372717676983135E-106
   51.4068750000000         7.343759757664051E-106
   51.6206250000000         2.865433879784495E-106
   51.8343750000000        -9.733836826046645E-106
   52.0481250000000        -3.448000366635507E-105
   52.2618750000000        -7.387176143051491E-105
   52.4756250000000        -1.253074959932066E-104
   52.6893750000000        -1.756070870800851E-104
   52.9031250000000        -1.942325944230230E-104
   53.1168750000000        -1.273648015397600E-104
   53.3306250000000         1.026473174163033E-104
   53.5443750000000         5.850749278060011E-104
   53.7581250000000         1.386025021143507E-103
   53.9718750000000         2.481238567723909E-103
   54.1856250000000         3.652027458034439E-103
   54.3993750000000         4.354602506587570E-103
   54.6131250000000         3.600580397036733E-103
   54.8268750000000        -7.226450354330837E-105
   55.0406250000000        -8.410373284445927E-103
   55.2543750000000        -2.286599357549783E-102
   55.4681250000000        -4.345926128167398E-102
   55.6818750000000        -6.699891597675595E-102
   55.8956250000000        -8.481879509968641E-102
   56.1093750000000        -8.062939241314151E-102
   56.3231250000000        -2.973816049661138E-102
   56.5368750000000         9.833163704266665E-102
   56.7506250000000         3.311541950284178E-101
   56.9643750000000         6.759600050271324E-101
   57.1781250000000         1.092082492667561E-100
   57.3918750000000         1.455472696161562E-100
   57.6056250000000         1.523932902453001E-100
   57.8193750000000         9.211877101299465E-101
   58.0331250000000        -8.309828581066117E-101
   58.2468750000000        -4.194252741381544E-100
   58.4606250000000        -9.370281670779026E-100
   58.6743750000000        -1.591182731442617E-099
   58.8881250000000        -2.221600439818518E-099
   59.1018750000000        -2.501418114776859E-099
   59.3156250000000        -1.909889105913508E-099
   59.5293750000000         2.325616582372923E-100
   59.7431250000000         4.616401550398862E-099
   59.9568750000000         1.163112387840562E-098
   60.1706250000000         2.086135210011377E-098
   60.3843750000000         3.042302030675787E-098
   60.5981250000000         3.627978226885991E-098
   60.8118750000000         3.183487332584773E-098
   61.0256250000000         8.272263332668955E-099
   61.2393750000000        -4.373520555549622E-098
   61.4531250000000        -1.303253294404315E-097
   61.6668750000000        -2.483981988152680E-097
   61.8806250000000        -3.775685353381629E-097
   62.0943750000000        -4.717213196528937E-097
   62.3081250000000        -4.535596436113268E-097
   62.5218750000000        -2.175771083721690E-097
   62.7356250000000         3.514739675848948E-097
   62.9493750000000         1.337441972585104E-096
   63.1631250000000         2.724763307577737E-096
   63.3768750000000         4.307122999233117E-096
   63.5906250000000         5.590058942110375E-096
   63.8043750000000         5.724231657728365E-096
   64.0181250000000         3.528253003798227E-096
   64.2318750000000        -2.322210088857722E-096
   64.4456250000000        -1.286077451694601E-095
   64.6593750000000        -2.810468562011952E-095
   64.8731250000000        -4.607041196225454E-095
   65.0868750000000        -6.170663950720052E-095
   65.3006250000000        -6.612327894721051E-095
   65.5143750000000        -4.672653467189587E-095
   65.7281250000000         1.094092676411312E-095
   65.9418750000000         1.188288667161533E-094
   66.1556250000000         2.789490439766797E-094
   66.3693750000000         4.731540350110510E-094
   66.5831250000000         6.518174125668412E-094
   66.7968750000000         7.251396950020159E-094
   67.0106250000000         5.631585637570040E-094
   67.2243750000000         1.253636806241122E-095
   67.4381250000000        -1.061318510898783E-093
   67.6518750000000        -2.700840175757493E-093
   67.8656250000000        -4.753062779917013E-093
   68.0793750000000        -6.751565796830578E-093
   68.2931250000000        -7.818361307364296E-093
   68.5068750000000        -6.643961902587814E-093
   68.7206250000000        -1.625010395736917E-093
   68.9343750000000         8.752901644342174E-093
   69.1481250000000         2.521900879509827E-092
   69.3618750000000         4.670340861351725E-092
   69.5756250000000         6.912348060491904E-092
   69.7893750000000         8.427331134751099E-092
   70.0031250000000         7.934766637258359E-092
   70.2168750000000         3.785521501394089E-092
   70.4306250000000        -5.719822314236926E-092
   70.6443750000000        -2.170795621632050E-091
   70.8581250000000        -4.377678267515306E-091
   71.0718750000000        -6.878098422720774E-091
   71.2856250000000        -8.959781289907734E-091
   71.4993750000000        -9.432681016278516E-091
   71.7131250000000        -6.660656355257486E-091
   71.9268750000000         1.209812021686226E-091
   72.1406250000000         1.573873302843518E-090
   72.3543750000000         3.734633139686964E-090
   72.5681250000000         6.415675169291438E-090
   72.7818750000000         9.069276365404778E-090
   72.9956250000000         1.067736484454269E-089
   73.2093750000000         9.719224173099602E-090
   73.4231250000000         4.295022805862242E-090
   73.6368750000000        -7.507640582677720E-090
   73.8506250000000        -2.693110689062278E-089
   74.0643750000000        -5.352758996367585E-089
   74.2781250000000        -8.388215771270045E-089
   74.4918750000000        -1.103163659389924E-088
   74.7056250000000        -1.200127093213495E-088
   74.9193750000000        -9.521463116783534E-089
   75.1331250000000        -1.531916839558968E-089
   75.3468750000000         1.383082010527012E-088
   75.5606250000000         3.742284417964082E-088
   75.7743750000000         6.796306747887405E-088
   75.9881250000000         1.007102636250032E-087
   76.2018750000000         1.262400153190776E-087
   76.4156250000000         1.298156571552335E-087
   76.6293750000000         9.204248798159184E-088
   76.8431250000000        -8.385629277267003E-089
   77.0568750000000        -1.890922652234537E-087
   77.2706250000000        -4.551679825654345E-087
   77.4843750000000        -7.874058761957507E-087
   77.6981250000000        -1.129191449482389E-086
   77.9118750000000        -1.375283487916681E-086
   78.1256250000000        -1.367633253848809E-086
   78.3393750000000        -9.051109637717644E-087
   78.5531250000000         2.251588902201597E-087
   78.7668750000000         2.188156385252524E-086
   78.9806250000000         5.010245065537594E-086
   79.1943750000000         8.462408038364621E-086
   79.4081250000000         1.193464506581531E-085
   79.6218750000000         1.433469410411595E-085
   79.8356250000000         1.406180718828963E-085
   80.0493750000000         9.121148275364071E-086
   80.2631250000000        -2.550234839198099E-086
   80.4768750000000        -2.248776079991397E-085
   80.6906250000000        -5.081657253902032E-085
   80.9043750000000        -8.514085860925970E-085
   81.1181250000000        -1.193796452617370E-084
   81.3318750000000        -1.428702131442046E-084
   81.5456250000000        -1.402162500424109E-084
   81.7593750000000        -9.248147941359147E-085
   81.9731250000000         1.964119481694643E-085
   82.1868750000000         2.101981884627411E-084
   82.4006250000000         4.797921788681678E-084
   82.6143750000000         8.054734458773261E-084
   82.8281250000000         1.130375405573571E-083
   83.0418750000000         1.356054938022301E-083
   83.2556250000000         1.341819693251955E-083
   83.4693750000000         9.162962277377605E-084
   83.6831250000000        -9.343139003908070E-085
   83.8968750000000        -1.811264757429485E-083
   84.1106250000000        -4.239965540258833E-083
   84.3243750000000        -7.173673080398298E-083
   84.5381250000000        -1.011026469255408E-082
   84.7518750000000        -1.218950861322967E-082
   84.9656250000000        -1.219347770909571E-082
   85.1793750000000        -8.652665758117983E-083
   85.3931250000000        -1.001377647595135E-084
   85.6068750000000         1.449839345240089E-082
   85.8206250000000         3.514329736319577E-082
   86.0343750000000         6.008685553035425E-082
   86.2481250000000         8.513736688767157E-082
   86.4618750000000         1.031964729508712E-081
   86.6756250000000         1.043219668579784E-081
   86.8893750000000         7.665218639229531E-082
   87.1031250000000         8.503269915429268E-083
   87.3168750000000        -1.081812306593469E-081
   87.5306250000000        -2.731198416692225E-081
   87.7443750000000        -4.722359999893256E-081
   87.9581250000000        -6.725196930680604E-081
   88.1718750000000        -8.188772084646589E-081
   88.3856250000000        -8.351546986192435E-081
   88.5993750000000        -6.317456573023982E-081
   88.8131250000000        -1.218738874972868E-081
   89.0268750000000         7.524718371440341E-081
   89.2406250000000         1.986073138112023E-080
   89.4543750000000         3.471710892940135E-080
   89.6681250000000         4.965165110341561E-080
   89.8818750000000         6.066048587882009E-080
   90.0956250000000         6.229612775055915E-080
   90.3093750000000         4.825409314459086E-080
   90.5231250000000         1.255475862270951E-080
   90.7368750000000        -4.863962861659022E-080
   90.9506250000000        -1.346830535855057E-079
   91.1643750000000        -2.378991087570236E-079
   91.3781250000000        -3.413969380780652E-079
   91.5918750000000        -4.180553759810864E-079
   91.8056250000000        -4.316398382250122E-079
   92.0193750000000        -3.410062581384944E-079
   92.2331250000000        -1.080716709127289E-079
   92.4468750000000         2.903855947430694E-079
   92.6606250000000         8.480201737017864E-079
   92.8743750000000         1.513533575009799E-078
   93.0881250000000         2.178275162146432E-078
   93.3018750000000         2.671772978314932E-078
   93.5156250000000         2.770811867671363E-078
   93.7293750000000         2.227238765250208E-078
   93.9431250000000         8.176314599656016E-079
   94.1568750000000        -1.586015883494086E-078
   94.3706250000000        -4.931357180545257E-078
   94.5843750000000        -8.900615506410047E-078
   94.7981250000000        -1.284706031799998E-077
   95.0118750000000        -1.578073729889271E-077
   95.2256250000000        -1.643315063511401E-077
   95.4393750000000        -1.342600856757918E-077
   95.6531250000000        -5.555741961258751E-078
   95.8668750000000         7.817773963951893E-078
   96.0806250000000         2.632207347613429E-077
   96.2943750000000         4.814371729614424E-077
   96.5081250000000         6.973754255971561E-077
   96.7218750000000         8.581445941860568E-077
   96.9356250000000         8.974930579803969E-077
   97.1493750000000         7.451583002403460E-077
   97.3631250000000         3.417807443319797E-077
   97.5768750000000        -3.415507555716443E-077
   97.7906250000000        -1.281634022630844E-076
   98.0043750000000        -2.383591805512088E-076
   98.2181250000000        -3.469115048441388E-076
   98.4318750000000        -4.278990826255170E-076
   98.6456250000000        -4.495958457181880E-076
   98.8593750000000        -3.791841600804091E-076
   99.0731250000000        -1.898909443930161E-076
   99.2868750000000         1.300357213216069E-076
   99.5006250000000         5.677880249011227E-076
   99.7143750000000         1.077876550346726E-075
   99.9281250000000         1.577943474018746E-075
   100.141875000000         1.951212231787576E-075
   100.355625000000         2.057906776365025E-075
   100.569375000000         1.756907372624632E-075
   100.783125000000         9.371009099724167E-076
   100.996875000000        -4.445604986370279E-076
   101.210625000000        -2.324063086778878E-075
   101.424375000000        -4.498803089834175E-075
   101.638125000000        -6.613771829160293E-075
   101.851875000000        -8.176019443383721E-075
   102.065625000000        -8.606090164660123E-075
   102.279375000000        -7.330595200113872E-075
   102.493125000000        -3.912824931118082E-075
   102.706875000000         1.791255088953932E-075
   102.920625000000         9.475063136280171E-075
   103.134375000000         1.825526295616148E-074
   103.348125000000         2.661876778231313E-074
   103.561875000000         3.248651998358348E-074
   103.775625000000         3.343206036508701E-074
   103.989375000000         2.707712190616051E-074
   104.203125000000         1.165914045909940E-074
   104.416875000000        -1.327334039926983E-074
   104.630625000000        -4.612988060316635E-074
   104.844375000000        -8.265785150707320E-074
   105.058125000000        -1.156287119454090E-073
   105.271875000000        -1.350619475735893E-073
   105.485625000000        -1.292215755687764E-073
   105.699375000000        -8.657333674308357E-074
   105.913125000000         1.227120138473006E-075
   106.126875000000         1.354507241815286E-073
   106.340625000000         3.059525970542685E-073
   106.554375000000         4.871893872311350E-073
   106.768125000000         6.358333517169124E-073
   106.981875000000         6.915878496296385E-073
   107.195625000000         5.829909885956373E-073
   107.409375000000         2.398133339507239E-073
   107.623125000000        -3.870859554974071E-073
   107.836875000000        -1.299056009267782E-072
   108.050625000000        -2.419005491256105E-072
   108.264375000000        -3.562709855023514E-072
   108.478125000000        -4.421303498249434E-072
   108.691875000000        -4.567099726489394E-072
   108.905625000000        -3.496264633488212E-072
   109.119375000000        -7.203081900795711E-073
   109.333125000000         4.087642962349350E-072
   109.546875000000         1.089743401601891E-071
   109.760625000000         1.910049364802206E-071
   109.974375000000         2.730784229627431E-071
   110.188125000000         3.323641729267853E-071
   110.401875000000         3.377163970338362E-071
   110.615625000000         2.530033042021236E-071
   110.829375000000         4.391649770810696E-072
   111.043125000000        -3.114474894974287E-071
   111.256875000000        -8.088085547955199E-071
   111.470625000000        -1.402542729279378E-070
   111.684375000000        -1.992450701161213E-070
   111.898125000000        -2.417253506784646E-070
   112.111875000000        -2.460678007863672E-070
   112.325625000000        -1.876089045099087E-070
   112.539375000000        -4.341484886740947E-071
   112.753125000000         2.005587401961091E-070
   112.966875000000         5.404133752195397E-070
   113.180625000000         9.446623141922961E-070
   113.394375000000         1.346211760594484E-069
   113.608125000000         1.639039011838944E-069
   113.821875000000         1.683159641018984E-069
   114.035625000000         1.321341663195616E-069
   114.249375000000         4.099014852055914E-070
   114.463125000000        -1.136451471900414E-069
   114.676875000000        -3.289435173280364E-069
   114.890625000000        -5.850147014940346E-069
   115.104375000000        -8.403786968222572E-069
   115.318125000000        -1.030426851207117E-068
   115.531875000000        -1.070908039366582E-068
   115.745625000000        -8.682998548955829E-069
   115.959375000000        -3.381782478422586E-069
   116.173125000000         5.687296790797672E-069
   116.386875000000         1.835232352111810E-068
   116.600625000000         3.346130102851760E-068
   116.814375000000         4.864181265482457E-068
   117.028125000000         6.023500844157262E-068
   117.241875000000         6.351151275858859E-068
   117.455625000000         5.326276428597527E-068
   117.669375000000         2.481683466335391E-068
   117.883125000000        -2.455143055398656E-068
   118.096875000000        -9.395795947200410E-068
   118.310625000000        -1.772700055208705E-067
   118.524375000000        -2.618977399099162E-067
   118.738125000000        -3.285243258591616E-067
   118.951875000000        -3.523074111144733E-067
   119.165625000000        -3.059942569814048E-067
   119.379375000000        -1.651512822925246E-067
   119.593125000000         8.469793766733012E-068
   119.806875000000         4.397858405338601E-067
   120.020625000000         8.700629604049506E-067
   120.234375000000         1.313417023713909E-066
   120.448125000000         1.674581454713385E-066
   120.661875000000         1.831216121098749E-066
   120.875625000000         1.649133598224658E-066
   121.089375000000         1.007435377144832E-066
   121.303125000000        -1.676237585152909E-067
   121.516875000000        -1.863790283480704E-066
   121.730625000000        -3.945599809335591E-066
   121.944375000000        -6.128051304998031E-066
   122.158125000000        -7.972115714103460E-066
   122.371875000000        -8.912965066938880E-066
   122.585625000000        -8.329223776731524E-066
   122.799375000000        -5.655918798140679E-066
   123.013125000000        -5.350970162982942E-067
   123.226875000000         7.013064733979187E-066
   123.440625000000         1.642792153231735E-065
   123.654375000000         2.649475267980998E-065
   123.868125000000         3.532611860183330E-065