  -1.60312500000000         0.000000000000000E+000
  -1.38937500000000         0.000000000000000E+000
  -1.17562500000000         0.000000000000000E+000
 -0.961875000000000         0.000000000000000E+000
 -0.748125000000000         0.000000000000000E+000
 -0.534375000000000         0.000000000000000E+000
 -0.320625000000000         0.000000000000000E+000
 -0.106875000000000         0.000000000000000E+000
  0.106875000000000         0.000000000000000E+000
  0.320625000000000         0.000000000000000E+000
  0.534375000000000         0.000000000000000E+000
  0.748125000000000         0.000000000000000E+000
  0.961875000000000         0.000000000000000E+000
   1.17562500000000         0.000000000000000E+000
   1.38937500000000         0.000000000000000E+000
   1.60312500000000         0.000000000000000E+000
   1.81687500000000         0.000000000000000E+000
   2.03062500000000         0.000000000000000E+000
   2.24437500000000         0.000000000000000E+000
   2.45812500000000         0.000000000000000E+000
   2.67187500000000         0.000000000000000E+000
   2.88562500000000         0.000000000000000E+000
   3.09937500000000         0.000000000000000E+000
   3.31312500000000         0.000000000000000E+000
   3.52687500000000         0.000000000000000E+000
   3.74062500000000         0.000000000000000E+000
   3.95437500000000         0.000000000000000E+000
   4.16812500000000         0.000000000000000E+000
   4.38187500000000         0.000000000000000E+000
   4.59562500000000         0.000000000000000E+000
   4.80937500000000         0.000000000000000E+000
   5.02312500000000         0.000000000000000E+000
   5.23687500000000         0.000000000000000E+000
   5.45062500000000         0.000000000000000E+000
   5.66437500000000         0.000000000000000E+000
   5.87812500000000         0.000000000000000E+000
   6.09187500000000         0.000000000000000E+000
   6.30562500000000         0.000000000000000E+000
   6.51937500000000         0.000000000000000E+000
   6.73312500000000         0.000000000000000E+000
   6.94687500000000         0.000000000000000E+000
   7.16062500000000         0.000000000000000E+000
   7.37437500000000         0.000000000000000E+000
   7.58812500000000         0.000000000000000E+000
   7.80187500000000         0.000000000000000E+000
   8.01562500000000         0.000000000000000E+000
   8.22937500000000         0.000000000000000E+000
   8.44312500000000         0.000000000000000E+000
   8.65687500000000         0.000000000000000E+000
   8.87062500000000         0.000000000000000E+000
   9.08437500000000         0.000000000000000E+000
   9.29812500000000         0.000000000000000E+000
   9.51187500000000        -1.188855381543145E-198
   9.72562500000000         1.526166256226181E-192
   9.93937500000000         3.883155846669605E-189
   10.1531250000000        -2.628698789276145E-186
   10.3668750000000        -5.251497977473670E-185
   10.5806250000000        -9.029760789622709E-183
   10.7943750000000        -6.335843776786143E-181
   11.0081250000000        -2.269166417473568E-179
   11.2218750000000        -5.378618829295697E-178
   11.4356250000000        -9.538347961558270E-177
   11.6493750000000        -1.354624629542350E-175
   11.8631250000000        -1.605872685587148E-174
   12.0768750000000        -1.630136520289266E-173
   12.2906250000000        -1.436173535056411E-172
   12.5043750000000        -1.099581097403922E-171
   12.7181250000000        -7.195187836679076E-171
   12.9318750000000        -3.796331858272834E-170
   13.1456250000000        -1.278633692955266E-169
   13.3593750000000         2.460643921401884E-169
   13.5731250000000         9.266817286607476E-168
   13.7868750000000         1.032572371891785E-166
   14.0006250000000         8.370101170860344E-166
   14.2143750000000         5.487286665638438E-165
   14.4281250000000         2.906730826931527E-164
   14.6418750000000         1.114986891074384E-163
   14.8556250000000         1.176737325577603E-163
   15.0693750000000        -2.977567305507093E-162
   15.2831250000000        -3.775888021267929E-161
   15.4968750000000        -3.110641157190997E-160
   15.7106250000000        -2.098561734116798E-159
   15.9243750000000        -1.237075405781607E-158
   16.1381250000000        -6.545554905845494E-158
   16.3518750000000        -3.147962739248989E-157
   16.5656250000000        -1.383044248507591E-156
   16.7793750000000        -5.547740518925732E-156
   16.9931250000000        -2.017863756958587E-155
   17.2068750000000        -6.542430682910240E-155
   17.4206250000000        -1.816381313600473E-154
   17.6343750000000        -3.843260686240961E-154
   17.8481250000000        -2.953009420829543E-154
   18.0618750000000         2.614249873672583E-153
   18.2756250000000         1.956684576474544E-152
   18.4893750000000         9.043521793987646E-152
   18.7031250000000         3.314906215454974E-151
   18.9168750000000         1.003465457685903E-150
   19.1306250000000         2.404093106099964E-150
   19.3443750000000         3.517551771731523E-150
   19.5581250000000        -4.789111394429446E-150
   19.7718750000000        -6.568242720542790E-149
   19.9856250000000        -3.386816212946818E-148
   20.1993750000000        -1.320840946346206E-147
   20.4131250000000        -4.328475503410923E-147
   20.6268750000000        -1.218839632082496E-146
   20.8406250000000        -2.884869070236646E-146
   21.0543750000000        -5.151554074002609E-146
   21.2681250000000        -3.216671946977038E-146
   21.4818750000000         2.617647253920299E-145
   21.6956250000000         1.672490280570647E-144
   21.9093750000000         6.786030167460682E-144
   22.1231250000000         2.258707375601495E-143
   22.3368750000000         6.577271821336018E-143
   22.5506250000000         1.710476927183392E-142
   22.7643750000000         3.972914506444612E-142
   22.9781250000000         8.075874864584587E-142
   23.1918750000000         1.348297762248498E-141
   23.4056250000000         1.440109885658171E-141
   23.6193750000000        -1.104291390605118E-141
   23.8331250000000        -1.245153190259890E-140
   24.0468750000000        -4.693702714166141E-140
   24.2606250000000        -1.320614312531530E-139
   24.4743750000000        -3.074789870244677E-139
   24.6881250000000        -5.955872792553462E-139
   24.9018750000000        -8.881657651174651E-139
   25.1156250000000        -6.394878930290600E-139
   25.3293750000000         1.791527304617436E-138
   25.5431250000000         1.022220375657292E-137
   25.7568750000000         3.162304453635290E-137
   25.9706250000000         7.444089161655281E-137
   26.1843750000000         1.364626918909618E-136
   26.3981250000000         1.630363381302198E-136
   26.6118750000000        -6.405872933768521E-137
   26.8256250000000        -1.175256518222864E-135
   27.0393750000000        -4.686092188377873E-135
   27.2531250000000        -1.372748256936181E-134
   27.4668750000000        -3.378261492285896E-134
   27.6806250000000        -7.233509090461953E-134
   27.8943750000000        -1.343550043923171E-133
   28.1081250000000        -2.066685184730383E-133
   28.3218750000000        -2.179417988064035E-133
   28.5356250000000         4.665276037080963E-134
   28.7493750000000         1.100119050624672E-132
   28.9631250000000         3.983372650888581E-132
   29.1768750000000         1.049867923965065E-131
   29.3906250000000         2.317141266636707E-131
   29.6043750000000         4.423268056409498E-131
   29.8181250000000         7.215292181766558E-131
   30.0318750000000         9.317485283644695E-131
   30.2456250000000         6.429755202025403E-131
   30.4593750000000        -1.154023541587470E-130
   30.6731250000000        -6.431982854174399E-130
   30.8868750000000        -1.843322086795588E-129
   31.1006250000000        -4.136509352166345E-129
   31.3143750000000        -7.828758069788054E-129
   31.5281250000000        -1.249850387095908E-128
   31.7418750000000        -1.565026666961911E-128
   31.9556250000000        -1.027705091548323E-128
   32.1693750000000         1.873074527578841E-128
   32.3831250000000         9.831296882034874E-128
   32.5968750000000         2.674848351035670E-127
   32.8106250000000         5.654657913092572E-127
   33.0243750000000         9.911802298624484E-127
   33.2381250000000         1.408387864912063E-126
   33.4518750000000         1.366641417343905E-126
   33.6656250000000        -1.741487293493235E-127
   33.8793750000000        -5.156055467568691E-126
   34.0931250000000        -1.653507659395084E-125
   34.3068750000000        -3.760850857643045E-125
   34.5206250000000        -6.942290140511937E-125
   34.7343750000000        -1.044653587022914E-124
   34.9481250000000        -1.144778638239416E-124
   35.1618750000000        -3.120089138617495E-125
   35.3756250000000         2.768499198834662E-124
   35.5893750000000         1.017694770951525E-123
   35.8031250000000         2.444401760211950E-123
   36.0168750000000         4.710545847828846E-123
   36.2306250000000         7.503476242168712E-123
   36.4443750000000         9.319586378861547E-123
   36.6581250000000         6.286741329703910E-123
   36.8718750000000        -9.350988756185603E-123
   37.0856250000000        -5.043581101689934E-122
   37.2993750000000        -1.340895325108117E-121
   37.5131250000000        -2.755291128780226E-121
   37.7268750000000        -4.710146786382786E-121
   37.9406250000000        -6.627387462906832E-121
   38.1543750000000        -6.793182301529507E-121
   38.3681250000000        -1.529901152516546E-121
   38.5818750000000         1.565097810871396E-120
   38.7956250000000         5.429140517317564E-120
   39.0093750000000         1.253189551838636E-119
   39.2231250000000         2.352202547860321E-119
   39.4368750000000         3.728122664683177E-119
   39.6506250000000         4.849082686745364E-119
   39.8643750000000         4.384596227571948E-119
   40.0781250000000        -2.812508009593853E-120
   40.2918750000000        -1.349672176875601E-118
   40.5056250000000        -4.136952888824556E-118
   40.7193750000000        -9.061037399746967E-118
   40.9331250000000        -1.648768350624622E-117
   41.1468750000000        -2.566455494213288E-117
   41.3606250000000        -3.321410527072747E-117
   41.5743750000000        -3.071632417169693E-117
   41.7881250000000        -1.414809606347615E-118
   42.0018750000000         8.320729572723778E-117
   42.2156250000000         2.646778181018935E-116
   42.4293750000000         5.914369774546300E-116
   42.6431250000000         1.095694199069289E-115
   42.8568750000000         1.737781764406036E-115
   43.0706250000000         2.297902259837014E-115
   43.2843750000000         2.197965586934606E-115
   43.4981250000000         2.593241385229136E-116
   43.7118750000000        -5.532973812252840E-115
   43.9256250000000        -1.805407733518961E-114
   44.1393750000000        -4.041756143993643E-114
   44.3531250000000        -7.396184926498234E-114
   44.5668750000000        -1.138034929767415E-113
   44.7806250000000        -1.409190087012780E-113
   44.9943750000000        -1.105837188179800E-113
   45.2081250000000         6.036371125285175E-114
   45.4218750000000         4.994114969259244E-113
   45.6356250000000         1.360092566886144E-112
   45.8493750000000         2.749801083341718E-112
   46.0631250000000         4.562827183219578E-112
   46.2768750000000         6.178918252227327E-112
   46.4906250000000         6.022107614635382E-112
   46.7043750000000         1.073602514043254E-112
   46.9181250000000        -1.336834582657582E-111
   47.1318750000000        -4.307030932715590E-111
   47.3456250000000        -9.237785210428211E-111
   47.5593750000000        -1.585409190823578E-110
   47.7731250000000        -2.216830858171385E-110
   47.9868750000000        -2.305252134142074E-110
   48.2006250000000        -8.728436215277157E-111
   48.4143750000000         3.585939431228888E-110
   48.6281250000000         1.288841099878883E-109
   48.8418750000000         2.837102117116048E-109
   49.0556250000000         4.915494377852914E-109
   49.2693750000000         6.919074173428304E-109
   49.4831250000000         7.322167670868219E-109
   49.6968750000000         3.278234791194771E-109
   49.9106250000000        -9.493034079786741E-109
   50.1243750000000        -3.600593995989170E-108
   50.3381250000000        -7.971883210486189E-108
   50.5518750000000        -1.377703000220483E-107
   50.7656250000000        -1.931887579599426E-107
   50.9793750000000        -2.047220489247386E-107
   51.1931250000000        -9.749082039090953E-108
   51.4068750000000         2.381072765859912E-107
   51.6206250000000         9.262636215490909E-107
   51.8343750000000         2.046229326018012E-106
   52.0481250000000         3.514296839167043E-106
   52.2618750000000         4.898242071751434E-106
   52.4756250000000         5.185416275926226E-106
   52.6893750000000         2.585516866823466E-106
   52.9031250000000        -5.457589039914910E-106
   53.1168750000000        -2.175542381377326E-105
   53.3306250000000        -4.798062936513875E-105
   53.5443750000000        -8.201376528745672E-105
   53.7581250000000        -1.139109872148641E-104
   53.9718750000000        -1.210506270338867E-104
   54.1856250000000        -6.428098825032089E-105
   54.3993750000000         1.112297374907053E-104
   54.6131250000000         4.645492767172294E-104
   54.8268750000000         1.029433914235019E-103
   55.0406250000000         1.759843406319357E-103
   55.2543750000000         2.449269197762583E-103
   55.4681250000000         2.636292337791563E-103
   55.6818750000000         1.533122935740259E-103
   55.8956250000000        -1.951336601218596E-103
   56.1093750000000        -8.983581159734294E-103
   56.3231250000000        -2.023659598325885E-102
   56.5368750000000        -3.486198473231248E-102
   56.7506250000000        -4.899275151912391E-102
   56.9643750000000        -5.401567466878910E-102
   57.1781250000000        -3.528215998084936E-102
   57.3918750000000         2.747530011768316E-102
   57.6056250000000         1.561067801443547E-101
   57.8193750000000         3.640699037956948E-101
   58.0331250000000         6.385500504810103E-101
   58.2468750000000         9.145492911738751E-101
   58.4606250000000         1.044958028041024E-100
   58.6743750000000         7.776330531530983E-101
   58.8881250000000        -2.398796043564757E-101
   59.1018750000000        -2.397054098300325E-100
   59.3156250000000        -5.961199205383506E-100
   59.5293750000000        -1.079038118167999E-099
   59.7431250000000        -1.591447610762582E-099
   59.9568750000000        -1.904311533051197E-099
   60.1706250000000        -1.616504555241226E-099
   60.3843750000000        -1.548348327469044E-100
   60.5981250000000         3.139268360628282E-099
   60.8118750000000         8.779506544859699E-099
   61.0256250000000         1.671009624641590E-098
   61.2393750000000         2.567387026657181E-098
   61.4531250000000         3.244688110116983E-098
   61.6668750000000         3.116096603593379E-098
   61.8806250000000         1.314062573556343E-098
   62.0943750000000        -3.209242772045436E-098
   62.3081250000000        -1.138281513626039E-097
   62.5218750000000        -2.344120959619454E-097
   62.7356250000000        -3.803956350200456E-097
   62.9493750000000        -5.113517226201323E-097
   63.1631250000000        -5.490189235131979E-097
   63.3768750000000        -3.721454093251169E-097
   63.5906250000000         1.744685970144732E-097
   63.8043750000000         1.245666884484913E-096
   64.0181250000000         2.925047908872677E-096
   64.2318750000000         5.110713150973064E-096
   64.4456250000000         7.363163387909660E-096
   64.6593750000000         8.743381429387002E-096
   64.8731250000000         7.702451619304988E-096
   65.0868750000000         2.124550468763961E-096
   65.3006250000000        -1.033753362352926E-095
   65.5143750000000        -3.148029308462646E-095
   65.7281250000000        -6.120302184558025E-095
   65.9418750000000        -9.560195186850582E-095
   66.1556250000000        -1.247526597999407E-094
   66.3693750000000        -1.308065639129401E-094
   66.5831250000000        -8.751518542846378E-095
   66.7968750000000         3.720281244886300E-095
   67.0106250000000         2.737160274083916E-094
   67.2243750000000         6.363854478359413E-094
   67.4381250000000         1.101797661223888E-093
   67.6518750000000         1.581149291861655E-093
   67.8656250000000         1.892331366311607E-093
   68.0793750000000         1.742681013202215E-093
   68.2931250000000         7.395184493403222E-094
   68.5068750000000        -1.549286043470482E-093
   68.7206250000000        -5.461337546644315E-093
   68.9343750000000        -1.101594795330194E-092
   69.1481250000000        -1.760404021927542E-092
   69.3618750000000        -2.363197110673353E-092
   69.5756250000000        -2.621444723249317E-092
   69.7893750000000        -2.108017026706109E-092
   70.0031250000000        -2.921939157587013E-093
   70.2168750000000         3.353548539918029E-092
   70.4306250000000         9.150073659483790E-092
   70.6443750000000         1.690049742603732E-091
   70.8581250000000         2.549101169812221E-091
   71.0718750000000         3.247337852988143E-091
   71.2856250000000         3.376760289103879E-091
   71.4993750000000         2.370145151289563E-091
   71.7131250000000        -4.329343376891408E-092
   71.9268750000000        -5.627413367599575E-091
   72.1406250000000        -1.346771065828079E-090
   72.3543750000000        -2.347420906974135E-090
   72.5681250000000        -3.395982086378677E-090
   72.7818750000000        -4.157704647900012E-090
   72.9956250000000        -4.106473813457578E-090
   73.2093750000000        -2.545598618668785E-090
   73.4231250000000         1.293195603089923E-090
   73.6368750000000         8.040790416988631E-090
   73.8506250000000         1.785161893836964E-089
   74.0643750000000         2.994288447282347E-089
   74.2781250000000         4.206962687320342E-089
   74.4918750000000         5.006334421644470E-089
   74.7056250000000         4.764598607127326E-089
   74.9193750000000         2.681184348693406E-089
   75.1331250000000        -2.088314407391293E-089
   75.3468750000000        -1.018152256262110E-088
   75.5606250000000        -2.164197220626618E-088
   75.7743750000000        -3.541398985893234E-088
   75.9881250000000        -4.879358264963234E-088
   76.2018750000000        -5.698343703218876E-088
   76.4156250000000        -5.298451836368282E-088
   76.6293750000000        -2.813110027712305E-088
   76.8431250000000         2.639224987801884E-088
   77.0568750000000         1.167682632912452E-087
   77.2706250000000         2.424075097332555E-087
   77.4843750000000         3.907329024653961E-087
   77.6981250000000         5.317415876505586E-087
   77.9118750000000         6.139380713789549E-087
   78.1256250000000         5.640298857622541E-087
   78.3393750000000         2.934166306463637E-087
   78.5531250000000        -2.853435337815359E-087
   78.7668750000000        -1.229660700054832E-086
   78.9806250000000        -2.525316649442806E-086
   79.1943750000000        -4.035652146928941E-086
   79.4081250000000        -5.450652157565414E-086
   79.6218750000000        -6.251987650447131E-086
   79.8356250000000        -5.717149431087520E-086
   80.0493750000000        -2.990870771965941E-086
   80.2631250000000         2.748023220815035E-086
   80.4768750000000         1.200516361710707E-085
   80.6906250000000         2.457703452413316E-085
   80.9043750000000         3.908449934052297E-085
   81.1181250000000         5.252438266137629E-085
   81.3318750000000         5.999118430828327E-085
   81.5456250000000         5.477951193118409E-085
   81.7593750000000         2.911357909034025E-085
   81.9731250000000        -2.426439418375432E-085
   82.1868750000000        -1.095114858106268E-084
   82.4006250000000        -2.241789828142924E-084
   82.6143750000000        -3.551901814954686E-084
   82.8281250000000        -4.751529750157257E-084
   83.0418750000000        -5.403621957356248E-084
   83.2556250000000        -4.922921238877348E-084
   83.4693750000000        -2.645910207609271E-084
   83.6831250000000         2.026609478585107E-084
   83.8968750000000         9.406269360377514E-084
   84.1106250000000         1.922383706278705E-083
   84.3243750000000         3.030484064578247E-083
   84.5381250000000         4.028924528580600E-083
   84.7518750000000         4.550873627900548E-083
   84.9656250000000         4.116584052745503E-083
   85.1793750000000         2.196758466979104E-083
   85.3931250000000        -1.666492493321634E-083
   85.6068750000000        -7.677816021318415E-083
   85.8206250000000        -1.555840123871138E-082
   86.0343750000000        -2.430251024483667E-082
   86.2481250000000        -3.198321301222082E-082
   86.4618750000000        -3.569681035362023E-082
   86.6756250000000        -3.175394913653885E-082
   86.8893750000000        -1.622436476745360E-082
   87.1031250000000         1.409101219371157E-082
   87.3168750000000         6.026339540124144E-082
   87.5306250000000         1.195433410563829E-081
   87.7443750000000         1.836698012726317E-081
   87.9581250000000         2.376712630050940E-081
   88.1718750000000         2.598223373405051E-081
   88.3856250000000         2.235102298329982E-081
   88.5993750000000         1.016953117460721E-081
   88.8131250000000        -1.256639744145592E-081
   89.0268750000000        -4.614730371855444E-081
   89.2406250000000        -8.798439726770744E-081
   89.4543750000000        -1.315306999109393E-080
   89.6681250000000        -1.656533746993163E-080
   89.8818750000000        -1.749207698132070E-080
   90.0956250000000        -1.412952398614443E-080
   90.3093750000000        -4.762580745016953E-081
   90.5231250000000         1.169365408184026E-080
   90.7368750000000         3.499538830899818E-080
   90.9506250000000         6.281697258627395E-080
   91.1643750000000         9.012454032554507E-080
   91.3781250000000         1.089339831331498E-079
   91.5918750000000         1.087599461398622E-079
   91.8056250000000         7.805405063711017E-080
   92.0193750000000         6.831399364820539E-081
   92.2331250000000        -1.095327148201412E-079
   92.4468750000000        -2.656993335040523E-079
   92.6606250000000        -4.417724511605328E-079
   92.8743750000000        -6.000307958966761E-079
   93.0881250000000        -6.847282750464401E-079
   93.3018750000000        -6.269009197535948E-079
   93.5156250000000        -3.558807996132430E-079
   93.7293750000000         1.816467177368955E-079
   93.9431250000000         9.958327552008573E-079
   94.1568750000000         2.024284714484079E-078
   94.3706250000000         3.105247218077789E-078
   94.5843750000000         3.962487090437531E-078
   94.7981250000000         4.213295496024331E-078
   95.0118750000000         3.411468733202888E-078
   95.2256250000000         1.134535962874569E-078
   95.4393750000000        -2.882237454440890E-078
   95.6531250000000        -8.574045987113425E-078
   95.8668750000000        -1.536185567527306E-077
   96.0806250000000        -2.199839033380312E-077
   96.2943750000000        -2.650619208163831E-077
   96.5081250000000        -2.628084393771323E-077
   96.7218750000000        -1.843114072165749E-077
   96.9356250000000        -4.063584368921265E-079
   97.1493750000000         2.908737893832822E-077
   97.3631250000000         6.895699215580563E-077
   97.5768750000000         1.145569771826601E-076
   97.7906250000000         1.567832098572409E-076
   98.0043750000000         1.818269904073156E-076
   98.2181250000000         1.720526994121602E-076
   98.4318750000000         1.084387687705628E-076
   98.6456250000000        -2.513207542482218E-077
   98.8593750000000        -2.357666807390584E-076
   99.0731250000000        -5.141707811346245E-076
   99.2868750000000        -8.271560312302489E-076
   99.5006250000000        -1.111951318681647E-075
   99.7143750000000        -1.274878496958202E-075
   99.9281250000000        -1.197327251602704E-075
   100.141875000000        -7.518030367654291E-076
   100.355625000000         1.701410823504919E-076
   100.569375000000         1.618260040696112E-075
   100.783125000000         3.535516740506713E-075
   100.996875000000         5.708828509493592E-075
   101.210625000000         7.730503151587194E-075
   101.424375000000         8.986394888200604E-075
   101.638125000000         8.689401511046397E-075
   101.851875000000         5.976367785838804E-075
   102.065625000000         8.110249721145294E-077
   102.279375000000        -9.415354523180511E-075
   102.493125000000        -2.227455532516957E-074
   102.706875000000        -3.727267926778868E-074
   102.920625000000        -5.192552491585008E-074
   103.134375000000        -6.236487498550451E-074
   103.348125000000        -6.348411892514048E-074
   103.561875000000        -4.947291619118116E-074
   103.775625000000        -1.483460051473781E-074
   103.989375000000         4.408359201881581E-074
   104.203125000000         1.271244701870834E-073
   104.416875000000         2.281454110112068E-073
   104.630625000000         3.330396619837197E-073
   104.844375000000         4.185449185586414E-073
   105.058125000000         4.525768723642475E-073
   105.271875000000         3.968793543481807E-073
   105.485625000000         2.126777631963925E-073
   105.699375000000        -1.303060139091947E-073
   105.913125000000        -6.417188800335652E-073
   106.126875000000        -1.296445191608873E-072
   106.340625000000        -2.020713934772372E-072
   106.554375000000        -2.681887154662118E-072
   106.768125000000        -3.086442299741512E-072
   106.981875000000        -2.991261640097877E-072
   107.195625000000        -2.133066650425520E-072
   107.409375000000        -2.792582140756105E-073
   107.623125000000         2.699810509274419E-072
   107.836875000000         6.742152932461587E-072
   108.050625000000         1.150077059715512E-071
   108.264375000000         1.626493910757462E-071
   108.478125000000         1.992286135890160E-071
   108.691875000000         2.099751557978274E-071
   108.905625000000         1.778799496305689E-071
   109.119375000000         8.641764921689232E-072
   109.333125000000        -7.633375636517334E-072
   109.546875000000        -3.123670769537372E-071
   109.760625000000        -6.077915531250753E-071
   109.974375000000        -9.272913875775379E-071
   110.188125000000        -1.210511989256807E-070
   110.401875000000        -1.372266327200352E-070
   110.615625000000        -1.308595259002332E-070
   110.829375000000        -9.104603701087901E-071
   111.043125000000        -8.604145996225552E-072
   111.256875000000         1.208854913339519E-070
   111.470625000000         2.934906808707600E-070
   111.684375000000         4.933210829709881E-070
   111.898125000000         6.897212804773566E-070
   112.111875000000         8.363323618177890E-070
   112.325625000000         8.732297542570395E-070
   112.539375000000         7.332803425650205E-070
   112.753125000000         3.535018630541450E-070
   112.966875000000        -3.085194715494916E-070
   113.180625000000        -1.254215884515160E-069
   113.394375000000        -2.422150645162203E-069
   113.608125000000        -3.668819501676463E-069
   113.821875000000        -4.757851989171446E-069
   114.035625000000        -5.364379878277448E-069
   114.249375000000        -5.101416221186750E-069
   114.463125000000        -3.573670351122444E-069
   114.676875000000        -4.608742545324891E-070
   114.890625000000         4.372810549589448E-069
   115.104375000000         1.075425482473099E-068
   115.318125000000         1.808150868494400E-068
   115.531875000000         2.523737724376078E-068
   115.745625000000         3.057221659997811E-068
   115.959375000000         3.199443700914978E-068
   116.173125000000         2.720281187429929E-068
   116.386875000000         1.408070803248576E-068
   116.600625000000        -8.752866931981078E-069
   116.814375000000        -4.127695997107548E-068
   117.028125000000        -8.137393383849999E-068
   117.241875000000        -1.242417051338905E-067
   117.455625000000        -1.620914652792992E-067
   117.669375000000        -1.843351555374040E-067
   117.883125000000        -1.784616335211649E-067
   118.096875000000        -1.317503454422779E-067
   118.310625000000        -3.386571108571730E-068
   118.524375000000         1.197897227831940E-067
   118.738125000000         3.243034964217202E-067
   118.951875000000         5.616535776125902E-067
   119.165625000000         7.981176788326300E-067
   119.379375000000         9.837167229500240E-067
   119.593125000000         1.054782118650644E-066
   119.806875000000         9.406059031130599E-067
   120.020625000000         5.747428033157087E-067
   120.234375000000        -8.915723791565378E-068
   120.448125000000        -1.058097442216048E-066
   120.661875000000        -2.279401789653864E-066
   120.875625000000        -3.622964842330921E-066
   121.089375000000        -4.870945903043987E-066
   121.303125000000        -5.720541675230894E-066
   121.516875000000        -5.805461604321829E-066
   121.730625000000        -4.740575612609508E-066
   121.944375000000        -2.191603971116535E-066
   122.158125000000         2.032477685129022E-066
   122.371875000000         7.872340732135556E-066
   122.585625000000         1.491128672701210E-065
   122.799375000000         2.229002930873482E-065
   123.013125000000         2.867082724421012E-065
   123.226875000000         3.228155228408219E-065
   123.440625000000         3.106857546616599E-065
   123.654375000000         2.297903557430364E-065
   123.868125000000         6.376660863764061E-066