  -1.60312500000000         0.000000000000000E+000
  -1.38937500000000         0.000000000000000E+000
  -1.17562500000000         0.000000000000000E+000
 -0.961875000000000         0.000000000000000E+000
 -0.748125000000000         0.000000000000000E+000
 -0.534375000000000         0.000000000000000E+000
 -0.320625000000000         0.000000000000000E+000
 -0.106875000000000         0.000000000000000E+000
  0.106875000000000         0.000000000000000E+000
  0.320625000000000         0.000000000000000E+000
  0.534375000000000         0.000000000000000E+000
  0.748125000000000         0.000000000000000E+000
  0.961875000000000         0.000000000000000E+000
   1.17562500000000         0.000000000000000E+000
   1.38937500000000         0.000000000000000E+000
   1.60312500000000         0.000000000000000E+000
   1.81687500000000         0.000000000000000E+000
   2.03062500000000         0.000000000000000E+000
   2.24437500000000         0.000000000000000E+000
   2.45812500000000         0.000000000000000E+000
   2.67187500000000         0.000000000000000E+000
   2.88562500000000         0.000000000000000E+000
   3.09937500000000         0.000000000000000E+000
   3.31312500000000         0.000000000000000E+000
   3.52687500000000         0.000000000000000E+000
   3.74062500000000         0.000000000000000E+000
   3.95437500000000         0.000000000000000E+000
   4.16812500000000         0.000000000000000E+000
   4.38187500000000         0.000000000000000E+000
   4.59562500000000         0.000000000000000E+000
   4.80937500000000         0.000000000000000E+000
   5.02312500000000         0.000000000000000E+000
   5.23687500000000         0.000000000000000E+000
   5.45062500000000         0.000000000000000E+000
   5.66437500000000         0.000000000000000E+000
   5.87812500000000         0.000000000000000E+000
   6.09187500000000         0.000000000000000E+000
   6.30562500000000         0.000000000000000E+000
   6.51937500000000         0.000000000000000E+000
   6.73312500000000         0.000000000000000E+000
   6.94687500000000         0.000000000000000E+000
   7.16062500000000         0.000000000000000E+000
   7.37437500000000         0.000000000000000E+000
   7.58812500000000         0.000000000000000E+000
   7.80187500000000         0.000000000000000E+000
   8.01562500000000         0.000000000000000E+000
   8.22937500000000         0.000000000000000E+000
   8.44312500000000         0.000000000000000E+000
   8.65687500000000         0.000000000000000E+000
   8.87062500000000         0.000000000000000E+000
   9.08437500000000         0.000000000000000E+000
   9.29812500000000         1.081668562783571E-198
   9.51187500000000         3.740475815703630E-189
   9.72562500000000        -2.111711780999457E-186
   9.93937500000000         4.630548879101025E-185
   10.1531250000000        -2.214926546547589E-182
   10.3668750000000        -1.509955440619248E-180
   10.5806250000000        -4.688543315606300E-179
   10.7943750000000        -9.363378132112562E-178
   11.0081250000000        -1.385144643243032E-176
   11.2218750000000        -1.663392924790094E-175
   11.4356250000000        -1.750957162617316E-174
   11.6493750000000        -1.717726797515190E-173
   11.8631250000000        -1.612885532129939E-172
   12.0768750000000        -1.428633572068224E-171
   12.2906250000000        -1.152327494787456E-170
   12.5043750000000        -8.180880295308628E-170
   12.7181250000000        -4.983566293164233E-169
   12.9318750000000        -2.568122207105639E-168
   13.1456250000000        -1.143951450217617E-167
   13.3593750000000        -5.147339877165221E-167
   13.5731250000000        -3.229102001404913E-166
   13.7868750000000        -2.751261292479628E-165
   14.0006250000000        -2.272570971975538E-164
   14.2143750000000        -1.529851758232330E-163
   14.4281250000000        -7.539515059937726E-163
   14.6418750000000        -1.786761915562853E-162
   14.8556250000000         1.261772686622279E-161
   15.0693750000000         2.183326041667253E-160
   15.2831250000000         1.949419089462820E-159
   15.4968750000000         1.339038711979750E-158
   15.7106250000000         7.715049202246665E-158
   15.9243750000000         3.834154381501854E-157
   16.1381250000000         1.645924955704961E-156
   16.3518750000000         5.939344505350475E-156
   16.5656250000000         1.629269040744840E-155
   16.7793750000000         1.829519734365334E-155
   16.9931250000000        -1.550874914175043E-154
   17.2068750000000        -1.545014890198651E-153
   17.4206250000000        -9.306639001403335E-153
   17.6343750000000        -4.553725500892519E-152
   17.8481250000000        -1.948999449469496E-151
   18.0618750000000        -7.511637112960384E-151
   18.2756250000000        -2.640424726504341E-150
   18.4893750000000        -8.501807783965085E-150
   18.7031250000000        -2.502597572030777E-149
   18.9168750000000        -6.673675717439066E-149
   19.1306250000000        -1.579102449726918E-148
   19.3443750000000        -3.162121529532510E-148
   19.5581250000000        -4.671516286138040E-148
   19.7718750000000        -1.804653429285993E-148
   19.9856250000000         1.866644314179763E-147
   20.1993750000000         8.179584801315221E-147
   20.4131250000000         1.875190159963715E-146
   20.6268750000000         7.631980433294655E-147
   20.8406250000000        -1.732882932669933E-145
   21.0543750000000        -1.116848068807192E-144
   21.2681250000000        -4.801837867321534E-144
   21.4818750000000        -1.704167598425015E-143
   21.6956250000000        -5.321513422771990E-143
   21.9093750000000        -1.503505994803086E-142
   22.1231250000000        -3.901075714921895E-142
   22.3368750000000        -9.388697361079443E-142
   22.5506250000000        -2.117395675768073E-141
   22.7643750000000        -4.548523831113066E-141
   22.9781250000000        -9.594603061372930E-141
   23.1918750000000        -2.088600887985680E-140
   23.4056250000000        -4.953255984313777E-140
   23.6193750000000        -1.302888406329222E-139
   23.8331250000000        -3.664673243731678E-139
   24.0468750000000        -1.041080178180011E-138
   24.2606250000000        -2.858596211185492E-138
   24.4743750000000        -7.390168988068582E-138
   24.6881250000000        -1.768972137853574E-137
   24.9018750000000        -3.857067757332086E-137
   25.1156250000000        -7.462125633103520E-137
   25.3293750000000        -1.207197463653250E-136
   25.5431250000000        -1.334878825776621E-136
   25.7568750000000         3.685802139350505E-137
   25.9706250000000         7.797520249254085E-136
   26.1843750000000         2.924564758700329E-135
   26.3981250000000         7.893908206326470E-135
   26.6118750000000         1.735366650573472E-134
   26.8256250000000         3.111233715110189E-134
   27.0393750000000         4.053589443430829E-134
   27.2531250000000         1.261768837208811E-134
   27.4668750000000        -1.416352877486489E-133
   27.6806250000000        -6.170750362050176E-133
   27.8943750000000        -1.764513311702213E-132
   28.1081250000000        -4.061987531649304E-132
   28.3218750000000        -7.788135601221293E-132
   28.5356250000000        -1.191539998651301E-131
   28.7493750000000        -1.134884371564755E-131
   28.9631250000000         8.729395798827569E-132
   29.1768750000000         8.241803927856402E-131
   29.3906250000000         2.753137040159095E-130
   29.6043750000000         6.910569414306966E-130
   29.8181250000000         1.447469116005511E-129
   30.0318750000000         2.566697350936732E-129
   30.2456250000000         3.677270029894424E-129
   30.4593750000000         3.377929221141886E-129
   30.6731250000000        -1.884267893945428E-129
   30.8868750000000        -1.939016216275452E-128
   31.1006250000000        -6.155399954077022E-128
   31.3143750000000        -1.451651181843236E-127
   31.5281250000000        -2.839529816161839E-127
   31.7418750000000        -4.662649303075681E-127
   31.9556250000000        -6.059420589726800E-127
   32.1693750000000        -4.546633119413072E-127
   32.3831250000000         5.231502768853688E-127
   32.5968750000000         3.270843745323635E-126
   32.8106250000000         9.123062829796601E-126
   33.0243750000000         1.936188013054081E-125
   33.2381250000000         3.383944980874420E-125
   33.4518750000000         4.797850327823850E-125
   33.6656250000000         4.756797573654669E-125
   33.8793750000000         1.688859448397886E-126
   34.0931250000000        -1.433165076357797E-124
   34.3068750000000        -4.606469856950988E-124
   34.5206250000000        -1.013873596129135E-123
   34.7343750000000        -1.774582084720737E-123
   34.9481250000000        -2.453424323237718E-123
   35.1618750000000        -2.224575587593463E-123
   35.3756250000000         6.144866790596487E-124
   35.5893750000000         8.851900682999666E-123
   35.8031250000000         2.594922274171914E-122
   36.0168750000000         5.407010410663270E-122
   36.2306250000000         8.911111612845364E-122
   36.4443750000000         1.111098016331439E-121
   36.6581250000000         6.937714567660401E-122
   36.8718750000000        -1.346380364351601E-121
   37.0856250000000        -6.551701318532481E-121
   37.2993750000000        -1.673252062498463E-120
   37.5131250000000        -3.280211903299577E-120
   37.7268750000000        -5.196970535561071E-120
   37.9406250000000        -6.243694180284539E-120
   38.1543750000000        -3.524816841815990E-120
   38.3681250000000         8.519879547527402E-120
   38.5818750000000         3.861740365968275E-119
   38.7956250000000         9.734878013621719E-119
   39.0093750000000         1.914823458618022E-118
   39.2231250000000         3.101139970452833E-118
   39.4368750000000         3.982097287370159E-118
   39.6506250000000         3.152337726561670E-118
   39.8643750000000        -2.153308790177415E-118
   40.0781250000000        -1.640800866983577E-117
   40.2918750000000        -4.538956283382744E-117
   40.5056250000000        -9.391340929932207E-117
   40.7193750000000        -1.600060253651650E-116
   40.9331250000000        -2.235195538478791E-116
   41.1468750000000        -2.279239374937097E-116
   41.3606250000000        -5.709506054989687E-117
   41.5743750000000         4.838398987272385E-116
   41.7881250000000         1.661330749591759E-115
   42.0018750000000         3.738069001586731E-115
   42.2156250000000         6.765473780389127E-115
   42.4293750000000         1.016735481574565E-114
   42.6431250000000         1.206076864824229E-114
   42.8568750000000         8.361125628259628E-115
   43.0706250000000        -8.044190965248790E-115
   43.2843750000000        -4.734115510317736E-114
   43.4981250000000        -1.207131571604155E-113
   43.7118750000000        -2.340950481470535E-113
   43.9256250000000        -3.752825747367977E-113
   44.1393750000000        -4.925206519248324E-113
   44.3531250000000        -4.655144638932965E-113
   44.5668750000000        -7.640012620733252E-114
   44.7806250000000         1.000019877484483E-112
   44.9943750000000         3.150404200856643E-112
   45.2081250000000         6.665742392975008E-112
   45.4218750000000         1.140498606204217E-111
   45.6356250000000         1.622383291550097E-111
   45.8493750000000         1.817812422431286E-111
   46.0631250000000         1.166421379255632E-111
   46.2768750000000        -1.206954005300168E-111
   46.4906250000000        -6.421211788267164E-111
   46.7043750000000        -1.551995553855767E-110
   46.9181250000000        -2.874351233243106E-110
   47.1318750000000        -4.424534660360943E-110
   47.3456250000000        -5.622182857308635E-110
   47.5593750000000        -5.270889532036025E-110
   47.7731250000000        -1.381549497522244E-110
   47.9868750000000         8.806798763734832E-110
   48.2006250000000         2.836099251354219E-109
   48.4143750000000         5.941033309446690E-109
   48.6281250000000         1.007699728778393E-108
   48.8418750000000         1.441959024364585E-108
   49.0556250000000         1.694122707411628E-108
   49.2693750000000         1.388074078830583E-108
   49.4831250000000        -6.066370475705131E-110
   49.6968750000000        -3.423075249313429E-108
   49.9106250000000        -9.517980162204441E-108
   50.1243750000000        -1.887597688655485E-107
   50.3381250000000        -3.111412380342978E-107
   50.5518750000000        -4.394293005176422E-107
   50.7656250000000        -5.179068310955281E-107
   50.9793750000000        -4.418191666795406E-107
   51.1931250000000        -4.300244905858323E-108
   51.4068750000000         9.133501913021025E-107
   51.6206250000000         2.703891273276965E-106
   51.8343750000000         5.567250077693612E-106
   52.0481250000000         9.531071435152064E-106
   52.2618750000000         1.410125795834466E-105
   52.4756250000000         1.777732105349549E-105
   52.6893750000000         1.740106782657975E-105
   52.9031250000000         7.452769661922664E-106
   53.1168750000000        -2.038584234154584E-105
   53.3306250000000        -7.675183775428589E-105
   53.5443750000000        -1.721086085975180E-104
   53.7581250000000        -3.106804695566975E-104
   53.9718750000000        -4.790278499089420E-104
   54.1856250000000        -6.279796944605942E-104
   54.3993750000000        -6.486427347462440E-104
   54.6131250000000        -3.476957168755994E-104
   54.8268750000000         5.649329351898985E-104
   55.0406250000000         2.451403580076128E-103
   55.2543750000000         5.646204358724580E-103
   55.4681250000000         1.023260210211537E-102
   55.6818750000000         1.564900377713294E-102
   55.8956250000000         2.011046155717091E-102
   56.1093750000000         1.991270112425248E-102
   56.3231250000000         8.840596565405118E-103
   56.5368750000000        -2.185942234769871E-102
   56.7506250000000        -8.218352307080748E-102
   56.9643750000000        -1.797094235257278E-101
   57.1781250000000        -3.124361635569358E-101
   57.3918750000000        -4.573768901816761E-101
   57.6056250000000        -5.554192428645158E-101
   57.8193750000000        -4.955429472572140E-101
   58.0331250000000        -1.056714932507768E-101
   58.2468750000000         8.369182388844745E-101
   58.4606250000000         2.556664903613415E-100
   58.6743750000000         5.169408943340527E-100
   58.8881250000000         8.490559886094158E-100
   59.1018750000000         1.175747175930867E-099
   59.3156250000000         1.329852007181163E-099
   59.5293750000000         1.024578064735147E-099
   59.7431250000000        -1.518400147020047E-100
   59.9568750000000        -2.687909586029786E-099
   60.1706250000000        -7.007082662716804E-099
   60.3843750000000        -1.319006394352470E-098
   60.5981250000000        -2.053360492406624E-098
   60.8118750000000        -2.696240576589955E-098
   61.0256250000000        -2.839748224211996E-098
   61.2393750000000        -1.832170182916867E-098
   61.4531250000000         1.203454634290034E-098
   61.6668750000000         7.226951323876464E-098
   61.8806250000000         1.693952819979339E-097
   62.0943750000000         3.017312233968453E-097
   62.3081250000000         4.498260527305190E-097
   62.5218750000000         5.651376759112290E-097
   62.7356250000000         5.589956544975267E-097
   62.9493750000000         2.970252314435926E-097
   63.1631250000000        -3.924995650149033E-097
   63.3768750000000        -1.684724059843591E-096
   63.5906250000000        -3.685470075892366E-096
   63.8043750000000        -6.308876197581641E-096
   64.0181250000000        -9.104321315461842E-096
   64.2318750000000        -1.105216720248984E-095
   64.4456250000000        -1.038229078163022E-095
   64.6593750000000        -4.517641886757117E-096
   64.8731250000000         9.698682431631120E-096
   65.0868750000000         3.528556097497451E-095
   65.3006250000000         7.369520203603971E-095
   65.5143750000000         1.225208081713223E-094
   65.7281250000000         1.723902113513735E-094
   65.9418750000000         2.034903684178089E-094
   66.1556250000000         1.827911010522521E-094
   66.3693750000000         6.386478329328345E-095
   66.5831250000000        -2.079022636963370E-094
   66.7968750000000        -6.812441529794013E-094
   67.0106250000000        -1.372717805281182E-093
   67.2243750000000        -2.226371779946460E-093
   67.4381250000000        -3.061525278716778E-093
   67.6518750000000        -3.517904078150960E-093
   67.8656250000000        -3.017922252226121E-093
   68.0793750000000        -7.790228410777130E-094
   68.2931250000000         4.078089801376078E-093
   68.5068750000000         1.227227988657504E-092
   68.7206250000000         2.390997942292493E-092
   68.9343750000000         3.782538644854794E-092
   69.1481250000000         5.077077604577766E-092
   69.3618750000000         5.663247486445166E-092
   69.5756250000000         4.601093736557746E-092
   69.7893750000000         6.690303885424592E-093
   70.0031250000000        -7.431758013856635E-092
   70.2168750000000        -2.064274723833728E-091
   70.4306250000000        -3.883109215542107E-091
   70.6443750000000        -5.979869695982052E-091
   70.8581250000000        -7.814111807256687E-091
   71.0718750000000        -8.425647286003374E-091
   71.2856250000000        -6.403060465178925E-091
   71.4993750000000         4.087198045302203E-094
   71.7131250000000         1.253733644097661E-090
   71.9268750000000         3.225824311421213E-090
   72.1406250000000         5.850895469101286E-090
   72.3543750000000         8.755763031636969E-090
   72.5681250000000         1.111499470487702E-089
   72.7818750000000         1.154251889356216E-089
   72.9956250000000         8.093471580397404E-090
   73.2093750000000        -1.524522705061662E-090
   73.4231250000000        -1.942027298063066E-089
   73.6368750000000        -4.657764214597240E-089
   73.8506250000000        -8.148421759414284E-089
   74.0643750000000        -1.184507944365470E-088
   74.2781250000000        -1.459614671920369E-088
   74.4918750000000        -1.456798940664693E-088
   74.7056250000000        -9.304339713271789E-089
   74.9193750000000         3.939037269184389E-089
   75.1331250000000         2.746656514470769E-088
   75.3468750000000         6.194372966170926E-088
   75.5606250000000         1.047494082795610E-087
   75.7743750000000         1.480805121645133E-087
   75.9881250000000         1.772660960675230E-087
   76.2018750000000         1.700572874536455E-087
   76.4156250000000         9.795673754393936E-088
   76.6293750000000        -6.917666973522091E-088
   76.8431250000000        -3.541274399572035E-087
   77.0568750000000        -7.584031210775323E-087
   77.2706250000000        -1.244129681693197E-086
   77.4843750000000        -1.714523782964728E-086
   77.6981250000000        -1.998414874537665E-086
   77.9118750000000        -1.847312786128378E-086
   78.1256250000000        -9.560741879330195E-087
   78.3393750000000         9.809129019112707E-087
   78.5531250000000         4.168548146561292E-086
   78.7668750000000         8.562871476500754E-086
   78.9806250000000         1.368798841647548E-085
   79.1943750000000         1.845099638416816E-085
   79.4081250000000         2.101400867786843E-085
   79.6218750000000         1.880927101046841E-085
   79.8356250000000         8.802765960092903E-086
   80.0493750000000        -1.188837077018638E-085
   80.2631250000000        -4.495346633522562E-085
   80.4768750000000        -8.943257846628375E-085
   80.6906250000000        -1.400000602549807E-084
   80.9043750000000        -1.853374540892553E-084
   81.1181250000000        -2.071782508984026E-084
   81.3318750000000        -1.808267549003997E-084
   81.5456250000000        -7.808147213775611E-085
   81.7593750000000         1.265768135960468E-084
   81.9731250000000         4.460625262476967E-084
   82.1868750000000         8.673782124418234E-084
   82.4006250000000         1.336574972711225E-083
   82.6143750000000         1.745359105913396E-083
   82.8281250000000         1.924644238271449E-083
   83.0418750000000         1.652010275624168E-083
   83.2556250000000         6.807433011124239E-084
   83.4693750000000        -1.202989644072361E-083
   83.6831250000000        -4.092171241356124E-083
   83.8968750000000        -7.844931493427407E-083
   84.1106250000000        -1.196042917117434E-082
   84.3243750000000        -1.547465097666099E-082
   84.5381250000000        -1.692105168875206E-082
   84.7518750000000        -1.441270943222742E-082
   84.9656250000000        -5.905651679479505E-083
   85.1793750000000         1.030961643416451E-082
   85.3931250000000         3.487640575474398E-082
   85.6068750000000         6.645026793040483E-082
   85.8206250000000         1.007273841044205E-081
   86.0343750000000         1.296715602780270E-081
   86.2481250000000         1.412977248154811E-081
   86.4618750000000         1.204481078226717E-081
   86.6756250000000         5.100150362559213E-082
   86.8893750000000        -8.016376086393405E-082
   87.1031250000000        -2.774231390364942E-081
   87.3168750000000        -5.293351438158366E-081
   87.5306250000000        -8.013846675111235E-081
   87.7443750000000        -1.030474573275882E-080
   87.9581250000000        -1.123863701171849E-080
   88.1718750000000        -9.657441326060152E-081
   88.3856250000000        -4.345639365001051E-081
   88.5993750000000         5.668130626958285E-081
   88.8131250000000         2.068267325751155E-080
   89.0268750000000         3.980695198300246E-080
   89.2406250000000         6.044066872215422E-080
   89.4543750000000         7.789503768816218E-080
   89.6681250000000         8.534723560219638E-080
   89.8818750000000         7.435181729484952E-080
   90.0956250000000         3.611934528326031E-080
   90.3093750000000        -3.630638622847267E-080
   90.5231250000000        -1.450048875879397E-079
   90.7368750000000        -2.835576909513289E-079
   90.9506250000000        -4.334728659020644E-079
   91.1643750000000        -5.616504827114390E-079
   91.3781250000000        -6.202134160959147E-079
   91.5918750000000        -5.502001568076328E-079
   91.8056250000000        -2.904902807561974E-079
   92.0193750000000         2.072368253712322E-079
   92.2331250000000         9.578370314660572E-079
   92.4468750000000         1.918374450406042E-078
   92.6606250000000         2.964376267840147E-078
   92.8743750000000         3.873297556596327E-078
   93.0881250000000         4.323869984379435E-078
   93.3018750000000         3.920975739867742E-078
   93.5156250000000         2.254689516322964E-078
   93.7293750000000        -1.001719811503368E-078
   93.9431250000000        -5.957392760485097E-078
   94.1568750000000        -1.234662796221143E-077
   94.3706250000000        -1.937614421415743E-077
   94.5843750000000        -2.561896099906627E-077
   94.7981250000000        -2.900935854640433E-077
   95.0118750000000        -2.699880813740193E-077
   95.2256250000000        -1.692592919876900E-077
   95.4393750000000         3.370772672746182E-078
   95.6531250000000         3.471406993408064E-077
   95.8668750000000         7.560667471424213E-077
   96.0806250000000         1.212744634795975E-076
   96.2943750000000         1.629895310240303E-076
   96.5081250000000         1.880017109204827E-076
   96.7218750000000         1.804391242061701E-076
   96.9356250000000         1.234979252767559E-076
   97.1493750000000         3.098945639515646E-078
   97.3631250000000        -1.870762828702045E-076
   97.5768750000000        -4.396472194403791E-076
   97.7906250000000        -7.276566635771449E-076
   98.0043750000000        -1.000232059839959E-075
   98.2181250000000        -1.181699110856763E-075
   98.4318750000000        -1.176266733396509E-075
   98.6456250000000        -8.802055261811594E-076
   98.8593750000000        -2.026740713637252E-076
   99.0731250000000         9.051124290897391E-076
   99.2868750000000         2.414848447439583E-075
   99.5006250000000         4.185461815602453E-075
   99.7143750000000         5.934988933968619E-075
   99.9281250000000         7.230811335547760E-075
   100.141875000000         7.510518869608790E-075
   100.355625000000         6.145005558224459E-075
   100.569375000000         2.551668761279465E-075
   100.783125000000        -3.641980570158161E-075
   100.996875000000        -1.239563915361920E-074
   101.210625000000        -2.304100048121041E-074
   101.424375000000        -3.409764480278419E-074
   101.638125000000        -4.317973084239381E-074
   101.851875000000        -4.706399943801129E-074
   102.065625000000        -4.198990287794219E-074
   102.279375000000        -2.424685799421916E-074
   102.493125000000         8.933223654692891E-075
   102.706875000000         5.822058459086122E-074
   102.920625000000         1.208950855500039E-073
   103.134375000000         1.896409449128041E-073
   103.348125000000         2.517535380926545E-073
   103.561875000000         2.891628501349451E-073
   103.775625000000         2.797083220578219E-073
   103.989375000000         2.000467892959436E-073
   104.203125000000         3.040628274978421E-074
   104.416875000000        -2.389103527847758E-073
   104.630625000000        -5.998218908174312E-073
   104.844375000000        -1.018688654269530E-072
   105.058125000000        -1.430206239030041E-072
   105.271875000000        -1.735288286269249E-072
   105.485625000000        -1.805592556244629E-072
   105.699375000000        -1.497255510122401E-072
   105.913125000000        -6.756694060546547E-073
   106.126875000000         7.484202249970015E-073
   106.340625000000         2.773691048347803E-072
   106.554375000000         5.259403742028577E-072
   106.768125000000         7.882300727067755E-072
   106.981875000000         1.011236697344919E-071
   107.195625000000         1.122333646300872E-071
   107.409375000000         1.035437736127883E-071
   107.623125000000         6.636383295431380E-072
   107.836875000000        -6.115030171975357E-073
   108.050625000000        -1.162288526850241E-071
   108.264375000000        -2.588921371569358E-071
   108.478125000000        -4.187837605917343E-071
   108.691875000000        -5.683967875562128E-071
   108.905625000000        -6.678714702933606E-071
   109.119375000000        -6.676066568920044E-071
   109.333125000000        -5.145266746582049E-071
   109.546875000000        -1.624922342604413E-071
   109.760625000000         4.133674896035995E-071
   109.974375000000         1.199661976832552E-070
   110.188125000000         2.127636668960977E-070
   110.401875000000         3.059882774789689E-070
   110.615625000000         3.785951209351875E-070
   110.829375000000         4.032546571053093E-070
   111.043125000000         3.493532425002613E-070
   111.256875000000         1.883075892208975E-070
   111.470625000000        -9.884075970416979E-071
   111.684375000000        -5.121323118661570E-070
   111.898125000000        -1.022971192056371E-069
   112.111875000000        -1.566002288496205E-069
   112.325625000000        -2.035261048660070E-069
   112.539375000000        -2.287638328483726E-069
   112.753125000000        -2.156546318576133E-069
   112.966875000000        -1.477770118005017E-069
   113.180625000000        -1.276834850558141E-070
   113.394375000000         1.928730243442798E-069
   113.608125000000         4.586103562569882E-069
   113.821875000000         7.553018374385432E-069
   114.035625000000         1.032571679085255E-068
   114.249375000000         1.219648960254267E-068
   114.463125000000         1.231157972988808E-068
   114.676875000000         9.789405175085698E-069
   114.890625000000         3.901539008713917E-069
   115.104375000000        -5.693952472885389E-069
   115.318125000000        -1.869370454271887E-068
   115.531875000000        -3.390981170401982E-068
   115.745625000000        -4.911167309308666E-068
   115.959375000000        -6.102089791723919E-068
   116.173125000000        -6.553061927091124E-068
   116.386875000000        -5.820407361779145E-068
   116.600625000000        -3.507154123913736E-068
   116.814375000000         6.310950220501803E-069
   117.028125000000         6.564998237387617E-068
   117.241875000000         1.387393143985258E-067
   117.455625000000         2.165845161142868E-067
   117.669375000000         2.851423398482691E-067
   117.883125000000         3.259957369949052E-067
   118.096875000000         3.182273285742196E-067
   118.310625000000         2.416175048688754E-067
   118.524375000000         8.107463099259282E-068
   118.738125000000        -1.680839071371396E-067
   118.951875000000        -4.947088679693671E-067
   119.165625000000        -8.672796679157264E-067
   119.379375000000        -1.231510296046304E-066
   119.593125000000        -1.511443714834243E-066
   119.806875000000        -1.615228948580528E-066
   120.020625000000        -1.446340307570805E-066
   120.234375000000        -9.202565763775795E-067
   120.448125000000         1.440106363368765E-068
   120.661875000000         1.352479659501675E-066
   120.875625000000         3.010100218266572E-066
   121.089375000000         4.808169137978991E-066
   121.303125000000         6.466752215954021E-066
   121.516875000000         7.615451757976666E-066
   121.730625000000         7.824040298421354E-066
   121.944375000000         6.655716987210884E-066
   122.158125000000         3.742450112738455E-066
   122.371875000000        -1.121922163124214E-066
   122.585625000000        -7.879563104106507E-066
   122.799375000000        -1.611080078103855E-065
   123.013125000000        -2.495813137339203E-065
   123.226875000000        -3.309282713925186E-065
   123.440625000000        -3.874639780781677E-065
   123.654375000000        -3.982813086560529E-065
   123.868125000000        -3.414559673890611E-065