  -1.60312500000000         0.000000000000000E+000
  -1.38937500000000         0.000000000000000E+000
  -1.17562500000000         0.000000000000000E+000
 -0.961875000000000         0.000000000000000E+000
 -0.748125000000000         0.000000000000000E+000
 -0.534375000000000         0.000000000000000E+000
 -0.320625000000000         0.000000000000000E+000
 -0.106875000000000         0.000000000000000E+000
  0.106875000000000         0.000000000000000E+000
  0.320625000000000         0.000000000000000E+000
  0.534375000000000         0.000000000000000E+000
  0.748125000000000         0.000000000000000E+000
  0.961875000000000         0.000000000000000E+000
   1.17562500000000         0.000000000000000E+000
   1.38937500000000         0.000000000000000E+000
   1.60312500000000         0.000000000000000E+000
   1.81687500000000         0.000000000000000E+000
   2.03062500000000         0.000000000000000E+000
   2.24437500000000         0.000000000000000E+000
   2.45812500000000         0.000000000000000E+000
   2.67187500000000         0.000000000000000E+000
   2.88562500000000         0.000000000000000E+000
   3.09937500000000         0.000000000000000E+000
   3.31312500000000         0.000000000000000E+000
   3.52687500000000         0.000000000000000E+000
   3.74062500000000         0.000000000000000E+000
   3.95437500000000         0.000000000000000E+000
   4.16812500000000         0.000000000000000E+000
   4.38187500000000         0.000000000000000E+000
   4.59562500000000         0.000000000000000E+000
   4.80937500000000         0.000000000000000E+000
   5.02312500000000         0.000000000000000E+000
   5.23687500000000         0.000000000000000E+000
   5.45062500000000         0.000000000000000E+000
   5.66437500000000         0.000000000000000E+000
   5.87812500000000         0.000000000000000E+000
   6.09187500000000         0.000000000000000E+000
   6.30562500000000         0.000000000000000E+000
   6.51937500000000         0.000000000000000E+000
   6.73312500000000         0.000000000000000E+000
   6.94687500000000         0.000000000000000E+000
   7.16062500000000         0.000000000000000E+000
   7.37437500000000         0.000000000000000E+000
   7.58812500000000         0.000000000000000E+000
   7.80187500000000         0.000000000000000E+000
   8.01562500000000         0.000000000000000E+000
   8.22937500000000         0.000000000000000E+000
   8.44312500000000         0.000000000000000E+000
   8.65687500000000         0.000000000000000E+000
   8.87062500000000         0.000000000000000E+000
   9.08437500000000         0.000000000000000E+000
   9.29812500000000         1.012087544124979E-197
   9.51187500000000         3.499860410330099E-188
   9.72562500000000        -1.982870393102878E-185
   9.93937500000000         4.728551420317046E-184
   10.1531250000000        -2.081507120240612E-181
   10.3668750000000        -1.371284273970714E-179
   10.5806250000000        -4.108530306211701E-178
   10.7943750000000        -7.911508420187653E-177
   11.0081250000000        -1.129316131631487E-175
   11.2218750000000        -1.313855250430574E-174
   11.4356250000000        -1.351297862220855E-173
   11.6493750000000        -1.308267716705127E-172
   11.8631250000000        -1.217582914765436E-171
   12.0768750000000        -1.064061609206713E-170
   12.2906250000000        -8.381216871079919E-170
   12.5043750000000        -5.738301985894275E-169
   12.7181250000000        -3.323693322938873E-168
   12.9318750000000        -1.604253430549823E-167
   13.1456250000000        -6.696464506358274E-167
   13.3593750000000        -3.076214065806379E-166
   13.5731250000000        -2.232138138390958E-165
   13.7868750000000        -2.048927559109803E-164
   14.0006250000000        -1.664061482898448E-163
   14.2143750000000        -1.052395873730998E-162
   14.4281250000000        -4.570680899794521E-162
   14.6418750000000        -5.093042230676402E-162
   14.8556250000000         1.398718846333492E-160
   15.0693750000000         1.784945680751471E-159
   15.2831250000000         1.441235476646345E-158
   15.4968750000000         9.263763849982598E-158
   15.7106250000000         5.039481383672535E-157
   15.9243750000000         2.361688784465202E-156
   16.1381250000000         9.451265765754919E-156
   16.3518750000000         3.072108089759491E-155
   16.5656250000000         6.615233105185946E-155
   16.7793750000000        -4.741542404643288E-155
   16.9931250000000        -1.574878739800656E-153
   17.2068750000000        -1.143028990376563E-152
   17.4206250000000        -6.119309359288641E-152
   17.6343750000000        -2.778068222669674E-151
   17.8481250000000        -1.119738814580045E-150
   18.0618750000000        -4.085068355937746E-150
   18.2756250000000        -1.359222769279492E-149
   18.4893750000000        -4.125112255245180E-149
   18.7031250000000        -1.133609750975382E-148
   18.9168750000000        -2.769153426014831E-148
   19.1306250000000        -5.761699233475337E-148
   19.3443750000000        -9.050175197454184E-148
   19.5581250000000        -5.072816677217446E-148
   19.7718750000000         3.189726446062858E-147
   19.9856250000000         1.596451595962943E-146
   20.1993750000000         4.310393304280756E-146
   20.4131250000000         5.581832939763186E-146
   20.6268750000000        -1.598643753984973E-145
   20.8406250000000        -1.532956898990162E-144
   21.0543750000000        -7.295672579748541E-144
   21.2681250000000        -2.718376413149676E-143
   21.4818750000000        -8.734103696257215E-143
   21.6956250000000        -2.511240694090747E-142
   21.9093750000000        -6.577457809075449E-142
   22.1231250000000        -1.585594308092511E-141
   22.3368750000000        -3.549022436850225E-141
   22.5506250000000        -7.478120858215300E-141
   22.7643750000000        -1.526927708653320E-140
   22.9781250000000        -3.194549933695091E-140
   23.1918750000000        -7.370508142079289E-140
   23.4056250000000        -1.943328223292045E-139
   23.6193750000000        -5.612815008500652E-139
   23.8331250000000        -1.648575656953402E-138
   24.0468750000000        -4.663591396210043E-138
   24.2606250000000        -1.234240657343188E-137
   24.4743750000000        -3.005827437986019E-137
   24.6881250000000        -6.631180646661617E-137
   24.9018750000000        -1.290655614378060E-136
   25.1156250000000        -2.082497953595210E-136
   25.3293750000000        -2.230811055461152E-136
   25.5431250000000         1.036131643780489E-136
   25.7568750000000         1.490266638860943E-135
   25.9706250000000         5.460788364946340E-135
   26.1843750000000         1.460763487505293E-134
   26.3981250000000         3.188914592144898E-134
   26.6118750000000         5.662321243558731E-134
   26.8256250000000         7.211288717018729E-134
   27.0393750000000         1.606074822823525E-134
   27.2531250000000        -2.772837289273716E-133
   27.4668750000000        -1.166018971617536E-132
   27.6806250000000        -3.282540078266616E-132
   27.8943750000000        -7.453724487789023E-132
   28.1081250000000        -1.404311031873346E-131
   28.3218750000000        -2.082143302229101E-131
   28.5356250000000        -1.779624543657890E-131
   28.7493750000000         2.309735674292243E-131
   28.9631250000000         1.647692118135700E-130
   29.1768750000000         5.247151716225607E-130
   29.3906250000000         1.280156545218098E-129
   29.6043750000000         2.609838658662951E-129
   29.8181250000000         4.467702156072162E-129
   30.0318750000000         6.004608814044526E-129
   30.2456250000000         4.386714497840296E-129
   30.4593750000000        -7.187564170378644E-129
   30.6731250000000        -4.204936790061378E-128
   30.8868750000000        -1.217484732110502E-127
   31.1006250000000        -2.727669642440676E-127
   31.3143750000000        -5.095592920698820E-127
   31.5281250000000        -7.890405996902148E-127
   31.7418750000000        -9.168021950829710E-127
   31.9556250000000        -3.901183070467320E-127
   32.1693750000000         1.805591963480630E-126
   32.3831250000000         7.343541031388852E-126
   32.5968750000000         1.836587153879375E-125
   32.8106250000000         3.639173392995915E-125
   33.0243750000000         5.941006537524988E-125
   33.2381250000000         7.605257488864148E-125
   33.4518750000000         5.624266225282567E-125
   33.6656250000000        -6.008385562538047E-125
   33.8793750000000        -3.691944254333220E-124
   34.0931250000000        -9.875809390969956E-124
   34.3068750000000        -1.981593124615932E-123
   34.5206250000000        -3.194796212778557E-123
   34.7343750000000        -3.922944031353396E-123
   34.9481250000000        -2.428796212080335E-123
   35.1618750000000         4.570070931558744E-123
   35.3756250000000         2.199425437045867E-122
   35.5893750000000         5.508096437985733E-122
   35.8031250000000         1.048939788596231E-121
   36.0168750000000         1.582253789407379E-121
   36.2306250000000         1.696437393920896E-121
   36.4443750000000         3.619191445296476E-122
   36.6581250000000        -4.266729058591860E-121
   36.8718750000000        -1.482241078812292E-120
   37.0856250000000        -3.388234667789703E-120
   37.2993750000000        -6.137678133569038E-120
   37.5131250000000        -8.898203417786412E-120
   37.7268750000000        -9.036380275888395E-120
   37.9406250000000        -7.575251718165681E-121
   38.1543750000000         2.619731313409542E-119
   38.3681250000000         8.650160045040417E-119
   38.5818750000000         1.951126602481255E-118
   38.7956250000000         3.544206869007346E-118
   39.0093750000000         5.263612146252079E-118
   39.2231250000000         5.836425391383579E-118
   39.4368750000000         2.406450088544601E-118
   39.6506250000000        -1.017028223646026E-117
   39.8643750000000        -3.947319394355463E-117
   40.0781250000000        -9.390411487196216E-117
   40.2918750000000        -1.772683217501821E-116
   40.5056250000000        -2.767559726638027E-116
   40.7193750000000        -3.416544700575353E-116
   40.9331250000000        -2.526241590204917E-116
   41.1468750000000         2.114135518080422E-116
   41.3606250000000         1.386985296789037E-115
   41.5743750000000         3.674394439137376E-115
   41.7881250000000         7.343063814565745E-115
   42.0018750000000         1.208840520994861E-114
   42.2156250000000         1.623818921159429E-114
   42.4293750000000         1.559227661630296E-114
   42.6431250000000         2.123876202379088E-115
   42.8568750000000        -3.674041907940979E-114
   43.0706250000000        -1.167596192224235E-113
   43.2843750000000        -2.509312732962064E-113
   43.4981250000000        -4.355903833797059E-113
   43.7118750000000        -6.252928071385446E-113
   43.9256250000000        -6.957600732333318E-113
   44.1393750000000        -4.012043916839538E-113
   44.3531250000000         6.538938703415988E-113
   44.5668750000000         2.986942037831164E-112
   44.7806250000000         7.084824078583484E-112
   44.9943750000000         1.303573099390456E-111
   45.2081250000000         1.985632226568248E-111
   45.4218750000000         2.448747814664183E-111
   45.6356250000000         2.060114738279721E-111
   45.8493750000000        -2.315380750639159E-112
   46.0631250000000        -5.863348878626416E-111
   46.2768750000000        -1.634367226341617E-110
   46.4906250000000        -3.244470465323408E-110
   46.7043750000000        -5.268973979392855E-110
   46.9181250000000        -7.103944658149503E-110
   47.1318750000000        -7.400695595584637E-110
   47.3456250000000        -3.805369405095524E-110
   47.5593750000000         7.092324495365557E-110
   47.7731250000000         2.929916120768737E-109
   47.9868750000000         6.603041316664780E-109
   48.2006250000000         1.169328032058188E-108
   48.4143750000000         1.735873425806111E-108
   48.6281250000000         2.134034390181954E-108
   48.8418750000000         1.929210480799958E-108
   49.0556250000000         4.302157933244274E-109
   49.2693750000000        -3.293828692328350E-108
   49.4831250000000        -1.026161255761442E-107
   49.6968750000000        -2.119954809320549E-107
   49.9106250000000        -3.582880196893263E-107
   50.1243750000000        -5.173140129984320E-107
   50.3381250000000        -6.277757570015612E-107
   50.5518750000000        -5.725803831934756E-107
   50.7656250000000        -1.617123005762154E-107
   50.9793750000000         8.736436635328212E-107
   51.1931250000000         2.857974746955669E-106
   51.4068750000000         6.090354051740805E-106
   51.6206250000000         1.066324671527546E-105
   51.8343750000000         1.612841461259963E-105
   52.0481250000000         2.095997235777184E-105
   52.2618750000000         2.180200680660334E-105
   52.4756250000000         1.259390519480782E-105
   52.6893750000000        -1.611440322442863E-105
   52.9031250000000        -7.696908837470204E-105
   53.1168750000000        -1.835091525934244E-104
   53.3306250000000        -3.438919740754883E-104
   53.5443750000000        -5.483351215337018E-104
   53.7581250000000        -7.482436944586208E-104
   53.9718750000000        -8.269364725799192E-104
   54.1856250000000        -5.667649969092271E-104
   54.3993750000000         3.734266082715680E-104
   54.6131250000000         2.442451921512234E-103
   54.8268750000000         6.096763536410560E-103
   55.0406250000000         1.155442378416236E-102
   55.2543750000000         1.833844899851323E-102
   55.4681250000000         2.457521409754095E-102
   55.6818750000000         2.610456765700942E-102
   55.8956250000000         1.564006654217633E-102
   56.1093750000000        -1.749045655778742E-102
   56.3231250000000        -8.610818258932233E-102
   56.5368750000000        -2.011434563636959E-101
   56.7506250000000        -3.632925737940472E-101
   56.9643750000000        -5.492304713981898E-101
   57.1781250000000        -6.926571546248092E-101
   57.3918750000000        -6.635133868932292E-101
   57.6056250000000        -2.538419598467921E-101
   57.8193750000000         8.140880006168686E-101
   58.0331250000000         2.833832036870269E-100
   58.2468750000000         5.985721012348457E-100
   58.4606250000000         1.010547585061238E-099
   58.6743750000000         1.434125200648339E-099
   58.8881250000000         1.673384453390148E-099
   59.1018750000000         1.383375194062023E-099
   59.3156250000000         5.854135564835370E-101
   59.5293750000000        -2.914905729412241E-099
   59.7431250000000        -8.092514896900289E-099
   59.9568750000000        -1.563679103365205E-098
   60.1706250000000        -2.477652430377034E-098
   60.3843750000000        -3.307593212484157E-098
   60.5981250000000        -3.563556242993303E-098
   60.8118750000000        -2.451696006675292E-098
   61.0256250000000         1.108934391498298E-098
   61.2393750000000         8.318696404245601E-098
   61.4531250000000         2.008481065733943E-097
   61.6668750000000         3.627539228615937E-097
   61.8806250000000         5.460252000312188E-097
   62.0943750000000         6.922058306018702E-097
   62.3081250000000         6.934767830465396E-097
   62.5218750000000         3.854623812174157E-097
   62.7356250000000        -4.429315874274972E-097
   62.9493750000000        -2.008253657521594E-096
   63.1631250000000        -4.443440344429247E-096
   63.3768750000000        -7.647549080868412E-096
   63.5906250000000        -1.107288147865230E-095
   63.8043750000000        -1.347360854884971E-095
   64.0181250000000        -1.268260308043873E-095
   64.2318750000000        -5.542855511636128E-096
   64.4456250000000         1.181070506353905E-095
   64.6593750000000         4.306320272474722E-095
   64.8731250000000         8.995503651163402E-095
   65.0868750000000         1.494543533676023E-094
   65.3006250000000         2.099341010049377E-094
   65.5143750000000         2.469136756994607E-094
   65.7281250000000         2.197006230612516E-094
   65.9418750000000         7.129499861299873E-095
   66.1556250000000        -2.649723540801973E-094
   66.3693750000000        -8.477885138399770E-094
   66.5831250000000        -1.695061048636004E-093
   66.7968750000000        -2.733868909568104E-093
   67.0106250000000        -3.736060000857911E-093
   67.2243750000000        -4.251345610045289E-093
   67.4381250000000        -3.562956132834879E-093
   67.6518750000000        -7.072548560229566E-094
   67.8656250000000         5.385447379296301E-093
   68.0793750000000         1.556331904080577E-092
   68.2931250000000         2.988334895876187E-092
   68.5068750000000         4.678743546415240E-092
   68.7206250000000         6.210332043151912E-092
   68.9343750000000         6.809931840471955E-092
   69.1481250000000         5.302713396702055E-092
   69.3618750000000         1.819170769110515E-093
   69.5756250000000        -1.012019777761206E-091
   69.7893750000000        -2.667103822720934E-091
   70.0031250000000        -4.912581232155414E-091
   70.2168750000000        -7.448578276130577E-091
   70.4306250000000        -9.569756149210979E-091
   70.6443750000000        -1.004905536367740E-090
   70.8581250000000        -7.113443923102809E-091
   71.0718750000000         1.391474531320963E-091
   71.2856250000000         1.753331443545748E-090
   71.4993750000000         4.241660522044174E-090
   71.7131250000000         7.485356313447105E-090
   71.9268750000000         1.096695402408321E-089
   72.1406250000000         1.359511528754321E-089
   72.3543750000000         1.358493208121172E-089
   72.5681250000000         8.489750241502249E-090
   72.7818750000000        -4.489523914623787E-090
   72.9956250000000        -2.778226381089438E-089
   73.2093750000000        -6.221066517585714E-089
   73.4231250000000        -1.052349514376540E-088
   73.6368750000000        -1.488690875363039E-088
   73.8506250000000        -1.777421447272792E-088
   74.0643750000000        -1.681439543829353E-088
   74.2781250000000        -8.926584917720376E-089
   74.4918750000000         9.190045152169567E-089
   74.7056250000000         4.006047829461541E-088
   74.9193750000000         8.385416013772312E-088
   75.1331250000000         1.362864515630797E-087
   75.3468750000000         1.863069006427828E-087
   75.5606250000000         2.142140688809765E-087
   75.7743750000000         1.912231604519099E-087
   75.9881250000000         8.185832635987717E-088
   76.2018750000000        -1.493091671914788E-087
   76.4156250000000        -5.253158612034332E-087
   76.6293750000000        -1.038505493455377E-086
   76.8431250000000        -1.627700543709372E-086
   77.0568750000000        -2.154995887825869E-086
   77.2706250000000        -2.389814036063392E-086
   77.4843750000000        -2.011534279927537E-086
   77.6981250000000        -6.447566353748057E-087
   77.9118750000000         2.058577345637143E-086
   78.1256250000000         6.280497257360363E-086
   78.3393750000000         1.184335855404821E-085
   78.5531250000000         1.798246829647832E-085
   78.7668750000000         2.313400730529440E-085
   78.9806250000000         2.482030324417670E-085
   79.1943750000000         1.974585317867886E-085
   79.4081250000000         4.235548399803238E-086
   79.6218750000000        -2.486467277313677E-085
   79.8356250000000        -6.876344465727739E-085
   80.0493750000000        -1.248378346903650E-084
   80.2631250000000        -1.845431764445051E-084
   80.4768750000000        -2.316356505127640E-084
   80.6906250000000        -2.415103779194882E-084
   80.9043750000000        -1.826991550327887E-084
   81.1181250000000        -2.165917768437815E-085
   81.3318750000000         2.682228829288487E-084
   81.5456250000000         6.931364879496884E-084
   81.7593750000000         1.221794840553731E-083
   81.9731250000000         1.767545160865214E-083
   82.1868750000000         2.174589914635389E-083
   82.4006250000000         2.215555210692350E-083
   82.6143750000000         1.609325567807494E-083
   82.8281250000000         6.819613846668395E-085
   83.0418750000000        -2.619157192476333E-083
   83.2556250000000        -6.468720931610162E-083
   83.4693750000000        -1.115685048532350E-082
   83.6831250000000        -1.587642761791638E-082
   83.8968750000000        -1.923711860029447E-082
   84.1106250000000        -1.927046201020311E-082
   84.3243750000000        -1.361114552651408E-082
   84.5381250000000         7.757161221167652E-085
   84.7518750000000         2.339229745468554E-082
   84.9656250000000         5.620590374061656E-082
   85.1793750000000         9.551590317067251E-082
   85.3931250000000         1.343487922265622E-081
   85.6068750000000         1.610791579550597E-081
   85.8206250000000         1.596423968895311E-081
   86.0343750000000         1.111803041500621E-081
   86.2481250000000        -2.397478068619504E-083
   86.4618750000000        -1.926866575366146E-081
   86.6756250000000        -4.571061302723177E-081
   86.8893750000000        -7.701711982846530E-081
   87.1031250000000        -1.075530585786086E-080
   87.3168750000000        -1.281540803962147E-080
   87.5306250000000        -1.263951815408960E-080
   87.7443750000000        -8.795794666004708E-081
   87.9581250000000         5.763065234690853E-083
   88.1718750000000         1.473718278071358E-080
   88.3856250000000         3.496388819995637E-080
   88.5993750000000         5.873220529206077E-080
   88.8131250000000         8.175474329791132E-080
   89.0268750000000         9.718587635580486E-080
   89.2406250000000         9.587813991696020E-080
   89.4543750000000         6.743759309831917E-080
   89.6681250000000         2.290574518374790E-081
   89.8818750000000        -1.051716814877019E-079
   90.0956250000000        -2.525590507844780E-079
   90.3093750000000        -4.251086124831991E-079
   90.5231250000000        -5.919533885410542E-079
   90.7368750000000        -7.044471107655117E-079
   90.9506250000000        -6.982679764928324E-079
   91.1643750000000        -5.010547538872810E-079
   91.3781250000000        -4.690251754640890E-080
   91.5918750000000         7.019973412964137E-079
   91.8056250000000         1.728036586670235E-078
   92.0193750000000         2.929059143177057E-078
   92.2331250000000         4.094100679932418E-078
   92.4468750000000         4.893383941728264E-078
   92.6606250000000         4.893767566427103E-078
   92.8743750000000         3.610759111993295E-078
   93.0881250000000         6.051232532287691E-079
   93.3018750000000        -4.374893962110113E-078
   93.5156250000000        -1.121608824649599E-077
   93.7293750000000        -1.925323879749309E-077
   93.9431250000000        -2.711563090058158E-077
   94.1568750000000        -3.266668677638991E-077
   94.3706250000000        -3.310656470380661E-077
   94.5843750000000        -2.530575609066201E-077
   94.7981250000000        -6.417261896126953E-078
   95.0118750000000         2.522942946574006E-077
   95.2256250000000         6.901973019398321E-077
   95.4393750000000         1.208909305921238E-076
   95.6531250000000         1.723796870577893E-076
   95.8668750000000         2.102411763823182E-076
   96.0806250000000         2.170597711297791E-076
   96.2943750000000         1.732566503385974E-076
   96.5081250000000         6.077544225978838E-077
   96.7218750000000        -1.315364875399067E-076
   96.9356250000000        -4.012466603376526E-076
   97.1493750000000        -7.252935000107940E-076
   97.3631250000000        -1.054123842770214E-075
   97.5768750000000        -1.309112990634930E-075
   97.7906250000000        -1.385712217662294E-075
   98.0043750000000        -1.164700846785092E-075
   98.2181250000000        -5.332364726703852E-076
   98.4318750000000         5.840657354563869E-076
   98.6456250000000         2.186097606909462E-075
   98.8593750000000         4.153377993721501E-075
   99.0731250000000         6.211875811691031E-075
   99.2868750000000         7.914309155325048E-075
   99.5006250000000         8.652833470760291E-075
   99.7143750000000         7.717010911613184E-075
   99.9281250000000         4.407643138250130E-075
   100.141875000000        -1.790496620720011E-075
   100.355625000000        -1.098623611737901E-074
   100.569375000000        -2.263562864935779E-074
   100.783125000000        -3.531664579684221E-074
   100.996875000000        -4.658893159226695E-074
   101.210625000000        -5.301678843197829E-074
   101.424375000000        -5.043719352426759E-074
   101.638125000000        -3.454138930248913E-074
   101.851875000000        -1.802644340715277E-075
   102.065625000000         4.927957121855479E-074
   102.279375000000         1.167372230151108E-073
   102.493125000000         1.937196813021950E-073
   102.706875000000         2.674486081590290E-073
   102.920625000000         3.189794709908438E-073
   103.134375000000         3.242566400061177E-073
   103.348125000000         2.569138224954065E-073
   103.561875000000         9.311482819269248E-074
   103.775625000000        -1.815782487973540E-073
   103.989375000000        -5.637928179804541E-073
   104.203125000000        -1.023486775433903E-072
   104.416875000000        -1.496434960561981E-072
   104.630625000000        -1.880515102901464E-072
   104.844375000000        -2.038706075597707E-072
   105.058125000000        -1.811750857833973E-072
   105.271875000000        -1.042818005222946E-072
   105.485625000000         3.850002744591607E-073
   105.699375000000         2.500024718497350E-072
   105.913125000000         5.187330641200862E-072
   106.126875000000         8.137484620101189E-072
   106.340625000000         1.081241782060806E-071
   106.554375000000         1.244571264658047E-071
   106.768125000000         1.209601352922472E-071
   106.981875000000         8.770103395981694E-072
   107.195625000000         1.624932763639642E-072
   107.409375000000        -9.755544241814063E-072
   107.623125000000        -2.503270432751883E-071
   107.836875000000        -4.278377579064646E-071
   108.050625000000        -6.024670141454536E-071
   108.264375000000        -7.323941271122002E-071
   108.478125000000        -7.636678465467324E-071
   108.691875000000        -6.362201250507280E-071
   108.905625000000        -2.945371403260941E-071
   109.119375000000         2.970149265376129E-071
   109.333125000000         1.135312392609052E-070
   109.546875000000         2.158577108188737E-070
   109.760625000000         3.229584050773051E-070
   109.974375000000         4.127557350199601E-070
   110.188125000000         4.555246786674554E-070
   110.401875000000         4.167523794178896E-070
   110.615625000000         2.626098985350329E-070
   110.829375000000        -3.187739635845517E-071
   111.043125000000        -4.724633250922856E-070
   111.256875000000        -1.034396588632756E-069
   111.470625000000        -1.652371588443896E-069
   111.684375000000        -2.214683870381717E-069
   111.898125000000        -2.565095125550115E-069
   112.111875000000        -2.515897589676398E-069
   112.325625000000        -1.874827651622919E-069
   112.539375000000        -4.865971888323510E-070
   112.753125000000         1.713189094400481E-069
   112.966875000000         4.637933250124583E-069
   113.180625000000         7.994456297938136E-069
   113.394375000000         1.124684174649333E-068
   113.608125000000         1.361747001142090E-068
   113.821875000000         1.414313641492344E-068
   114.035625000000         1.180024058126012E-068
   114.249375000000         5.704066428705943E-069
   114.463125000000        -4.627199740093894E-069
   114.676875000000        -1.897209433992843E-068
   114.890625000000        -3.611905107641574E-068
   115.104375000000        -5.366332535960120E-068
   115.318125000000        -6.797178172656009E-068
   115.531875000000        -7.440115077684052E-068
   115.745625000000        -6.783848795127034E-068
   115.959375000000        -4.359285543261293E-068
   116.173125000000         1.396632240359676E-069
   116.386875000000         6.715584170696012E-068
   116.600625000000         1.492889056956513E-067
   116.814375000000         2.379156927571128E-067
   117.028125000000         3.173033215434660E-067
   117.241875000000         3.665734693304490E-067
   117.455625000000         3.618026870743314E-067
   117.669375000000         2.796740262260879E-067
   117.883125000000         1.025799821634898E-067
   118.096875000000        -1.752668445792613E-067
   118.310625000000        -5.415502193303923E-067
   118.524375000000        -9.606053257108478E-067
   118.738125000000        -1.370702633397759E-066
   118.951875000000        -1.685437350997353E-066
   119.165625000000        -1.800605221600162E-066
   119.379375000000        -1.607400655645012E-066
   119.593125000000        -1.011859403189503E-066
   119.806875000000         4.076949679151326E-068
   120.020625000000         1.539475097451509E-066
   120.234375000000         3.382945779210253E-066
   120.448125000000         5.362388864170025E-066
   120.661875000000         7.157644781378393E-066
   120.875625000000         8.352255183673278E-066
   121.089375000000         8.471781491998483E-066
   121.303125000000         7.047124500750332E-066
   121.516875000000         3.700941389520038E-066
   121.730625000000        -1.749235747932323E-066
   121.944375000000        -9.182444356960949E-066
   122.158125000000        -1.807619306500331E-065
   122.371875000000        -2.743840132903336E-065
   122.585625000000        -3.579098759243841E-065
   122.799375000000        -4.122644096365086E-065
   123.013125000000        -4.155559966655719E-065
   123.226875000000        -3.455851276254068E-065
   123.440625000000        -1.834039407783262E-065
   123.654375000000         8.218915174548165E-066
   123.868125000000         4.495099478287103E-065