  -1.60312500000000         0.000000000000000E+000
  -1.38937500000000         0.000000000000000E+000
  -1.17562500000000         0.000000000000000E+000
 -0.961875000000000         0.000000000000000E+000
 -0.748125000000000         0.000000000000000E+000
 -0.534375000000000         0.000000000000000E+000
 -0.320625000000000         0.000000000000000E+000
 -0.106875000000000         0.000000000000000E+000
  0.106875000000000         0.000000000000000E+000
  0.320625000000000         0.000000000000000E+000
  0.534375000000000         0.000000000000000E+000
  0.748125000000000         0.000000000000000E+000
  0.961875000000000         0.000000000000000E+000
   1.17562500000000         0.000000000000000E+000
   1.38937500000000         0.000000000000000E+000
   1.60312500000000         0.000000000000000E+000
   1.81687500000000         0.000000000000000E+000
   2.03062500000000         0.000000000000000E+000
   2.24437500000000         0.000000000000000E+000
   2.45812500000000         0.000000000000000E+000
   2.67187500000000         0.000000000000000E+000
   2.88562500000000         0.000000000000000E+000
   3.09937500000000         0.000000000000000E+000
   3.31312500000000         0.000000000000000E+000
   3.52687500000000         0.000000000000000E+000
   3.74062500000000         0.000000000000000E+000
   3.95437500000000         0.000000000000000E+000
   4.16812500000000         0.000000000000000E+000
   4.38187500000000         0.000000000000000E+000
   4.59562500000000         0.000000000000000E+000
   4.80937500000000         0.000000000000000E+000
   5.02312500000000         0.000000000000000E+000
   5.23687500000000         0.000000000000000E+000
   5.45062500000000         0.000000000000000E+000
   5.66437500000000         0.000000000000000E+000
   5.87812500000000         0.000000000000000E+000
   6.09187500000000         0.000000000000000E+000
   6.30562500000000         0.000000000000000E+000
   6.51937500000000         0.000000000000000E+000
   6.73312500000000         0.000000000000000E+000
   6.94687500000000         0.000000000000000E+000
   7.16062500000000         0.000000000000000E+000
   7.37437500000000         0.000000000000000E+000
   7.58812500000000         0.000000000000000E+000
   7.80187500000000         0.000000000000000E+000
   8.01562500000000         0.000000000000000E+000
   8.22937500000000         0.000000000000000E+000
   8.44312500000000         0.000000000000000E+000
   8.65687500000000         0.000000000000000E+000
   8.87062500000000         0.000000000000000E+000
   9.08437500000000         0.000000000000000E+000
   9.29812500000000        -2.780948260919639E-198
   9.51187500000000         3.569979546727908E-192
   9.72562500000000         9.083405492066576E-189
   9.93937500000000        -6.149006585830180E-186
   10.1531250000000        -1.228511413580897E-184
   10.3668750000000        -2.111609845808990E-182
   10.5806250000000        -1.481945877658104E-180
   10.7943750000000        -5.305879395075102E-179
   11.0081250000000        -1.256674382577523E-177
   11.2218750000000        -2.225884514007845E-176
   11.4356250000000        -3.156131019211825E-175
   11.6493750000000        -3.734115409650503E-174
   11.8631250000000        -3.781497716944660E-173
   12.0768750000000        -3.321905984094831E-172
   12.2906250000000        -2.533987677663225E-171
   12.5043750000000        -1.649490171502558E-170
   12.7181250000000        -8.623096487795191E-170
   12.9318750000000        -2.822647519505205E-169
   13.1456250000000         6.643923057846010E-169
   13.3593750000000         2.197586118339885E-167
   13.5731250000000         2.409618077123704E-166
   13.7868750000000         1.936241636957724E-165
   14.0006250000000         1.259422088526143E-164
   14.2143750000000         6.603578515141344E-164
   14.4281250000000         2.479798887527485E-163
   14.6418750000000         2.072664895636144E-163
   14.8556250000000        -7.225885367519371E-162
   15.0693750000000        -8.860012618768902E-161
   15.2831250000000        -7.206702886867666E-160
   15.4968750000000        -4.820591471120745E-159
   15.7106250000000        -2.820980103414495E-158
   15.9243750000000        -1.482034791212588E-157
   16.1381250000000        -7.074281166481471E-157
   16.3518750000000        -3.082078829120788E-156
   16.5656250000000        -1.224080525146394E-155
   16.7793750000000        -4.396630016626500E-155
   16.9931250000000        -1.400621434156179E-154
   17.2068750000000        -3.776830264104363E-154
   17.4206250000000        -7.459690334385819E-154
   17.6343750000000        -2.658779198196567E-154
   17.8481250000000         7.014212730518552E-153
   18.0618750000000         4.646116188731790E-152
   18.2756250000000         2.054291650671435E-151
   18.4893750000000         7.296462591362632E-151
   18.7031250000000         2.135743250867899E-150
   18.9168750000000         4.848192946326244E-150
   19.1306250000000         5.880903658586235E-150
   19.3443750000000        -1.682620935796354E-149
   19.5581250000000        -1.618712958530044E-148
   19.7718750000000        -7.810351108777842E-148
   19.9856250000000        -2.936043319627555E-147
   20.1993750000000        -9.332851186236825E-147
   20.4131250000000        -2.542118216252339E-146
   20.6268750000000        -5.735722853556855E-146
   20.8406250000000        -9.199332027883297E-146
   21.0543750000000        -7.761470800944502E-147
   21.2681250000000         7.328193359814184E-145
   21.4818750000000         3.987501754480509E-144
   21.6956250000000         1.526143963056995E-143
   21.9093750000000         4.892300228174106E-143
   22.1231250000000         1.379805568325135E-142
   22.3368750000000         3.472763016662557E-142
   22.5506250000000         7.754824150435113E-142
   22.7643750000000         1.488981973661098E-141
   22.9781250000000         2.224576167494824E-141
   23.1918750000000         1.479584559531493E-141
   23.4056250000000        -5.737050649949975E-141
   23.6193750000000        -3.249506851054286E-140
   23.8331250000000        -1.072110777802487E-139
   24.0468750000000        -2.797892382469103E-139
   24.2606250000000        -6.094548769188451E-139
   24.4743750000000        -1.084270989478815E-138
   24.6881250000000        -1.358331644661982E-138
   24.9018750000000        -1.026914942075179E-139
   25.1156250000000         6.268287882420821E-138
   25.3293750000000         2.540746584702218E-137
   25.5431250000000         6.978132685786075E-137
   25.7568750000000         1.502191528888419E-136
   25.9706250000000         2.452389411803719E-136
   26.1843750000000         2.072408105582855E-136
   26.3981250000000        -4.690559560904024E-136
   26.6118750000000        -3.130509605504290E-135
   26.8256250000000        -1.081177417319342E-134
   27.0393750000000        -2.936193228336598E-134
   27.2531250000000        -6.806204148416629E-134
   27.4668750000000        -1.370938206672696E-133
   27.6806250000000        -2.352570513905455E-133
   27.8943750000000        -3.142302399261259E-133
   28.1081250000000        -1.955246652961086E-133
   28.3218750000000         5.925643949563696E-133
   28.5356250000000         3.083183273522985E-132
   28.7493750000000         9.208701498287188E-132
   28.9631250000000         2.198493611468065E-131
   29.1768750000000         4.488430412977426E-131
   29.3906250000000         7.890994461858323E-131
   29.6043750000000         1.145766295936807E-130
   29.8181250000000         1.144846135025777E-130
   30.0318750000000        -1.837513402903295E-131
   30.2456250000000        -4.878998994039625E-130
   30.4593750000000        -1.654961023246068E-129
   30.6731250000000        -4.041917503244074E-129
   30.8868750000000        -8.171487875436041E-129
   31.1006250000000        -1.400101984325723E-128
   31.3143750000000        -1.956022109659118E-128
   31.5281250000000        -1.829592654931239E-128
   31.7418750000000         5.196381182399637E-129
   31.9556250000000         8.042341975533919E-128
   32.1693750000000         2.540117420721215E-127
   32.3831250000000         5.818809118778447E-127
   32.5968750000000         1.092755140324932E-126
   32.8106250000000         1.692854724582179E-126
   33.0243750000000         1.971747540591357E-126
   33.2381250000000         8.782717835823552E-127
   33.4518750000000        -3.701839986576341E-126
   33.6656250000000        -1.525777049102362E-125
   33.8793750000000        -3.827117629146554E-125
   34.0931250000000        -7.591217101488132E-125
   34.3068750000000        -1.237142100846048E-124
   34.5206250000000        -1.563902926920725E-124
   34.7343750000000        -1.053917249563094E-124
   34.9481250000000         1.713788709148922E-124
   35.1618750000000         9.153866285553406E-124
   35.3756250000000         2.453557104883508E-123
   35.5893750000000         5.070296702522769E-123
   35.8031250000000         8.638248133046364E-123
   36.0168750000000         1.183409235545442E-122
   36.2306250000000         1.078138135914082E-122
   36.4443750000000        -2.846163537929351E-123
   36.6581250000000        -4.367385996502258E-122
   36.8718750000000        -1.326843329745106E-121
   37.0856250000000        -2.917860672622833E-121
   37.2993750000000        -5.265340394412241E-121
   37.5131250000000        -7.881289967893963E-121
   37.7268750000000        -9.057535284506674E-121
   37.9406250000000        -4.872597696249638E-121
   38.1543750000000         1.192394458570827E-120
   38.3681250000000         5.250096002396133E-120
   38.5818750000000         1.305761551478180E-119
   38.7956250000000         2.565332797079523E-119
   39.0093750000000         4.232253792113599E-119
   39.2231250000000         5.789317223028169E-119
   39.4368750000000         5.840655295637536E-119
   39.6506250000000         1.535610673424024E-119
   39.8643750000000        -1.200078008819825E-118
   40.0781250000000        -4.182764443585488E-118
   40.2918750000000        -9.611293119833026E-118
   40.5056250000000        -1.803828122309091E-117
   40.7193750000000        -2.889059793548930E-117
   40.9331250000000        -3.883863752604893E-117
   41.1468750000000        -3.912613278241224E-117
   41.3606250000000        -1.181700404576383E-117
   41.5743750000000         7.438431734357870E-117
   41.7881250000000         2.664879997635899E-116
   42.0018750000000         6.224388952239562E-116
   42.2156250000000         1.188841360765830E-115
   42.4293750000000         1.943897967175194E-115
   42.6431250000000         2.681508273570538E-115
   42.8568750000000         2.812182598287075E-115
   43.0706250000000         1.076453386031744E-115
   43.2843750000000        -4.768603792547601E-115
   43.4981250000000        -1.808406877002912E-114
   43.7118750000000        -4.283836602038016E-114
   43.9256250000000        -8.160137456768091E-114
   44.1393750000000        -1.307784138708603E-113
   44.3531250000000        -1.716629977469126E-113
   44.5668750000000        -1.566249343539080E-113
   44.7806250000000         7.531635459091304E-115
   44.9943750000000         4.708367718225261E-113
   45.2081250000000         1.426889393552993E-112
   45.4218750000000         3.040301416686063E-112
   45.6356250000000         5.264069207990160E-112
   45.8493750000000         7.491776880312125E-112
   46.0631250000000         8.021326710843536E-112
   46.2768750000000         3.413521476996042E-112
   46.4906250000000        -1.194225903668789E-111
   46.7043750000000        -4.535778582739462E-111
   46.9181250000000        -1.032606124940332E-110
   47.1318750000000        -1.848175585443422E-110
   47.3456250000000        -2.701066894858525E-110
   47.5593750000000        -3.024683829540498E-110
   47.7731250000000        -1.683843142265486E-110
   47.9868750000000         3.143829793318527E-110
   48.2006250000000         1.378056506519523E-109
   48.4143750000000         3.219006928729017E-109
   48.6281250000000         5.797679939165287E-109
   48.8418750000000         8.483399480641007E-109
   49.0556250000000         9.548472646344457E-109
   49.2693750000000         5.629645129860355E-109
   49.4831250000000        -8.516583350253886E-109
   49.6968750000000        -3.933380526468996E-108
   49.9106250000000        -9.189280643529001E-108
   50.1243750000000        -1.642708725732752E-107
   50.3381250000000        -2.380452866951032E-107
   50.5518750000000        -2.654267271463876E-107
   50.7656250000000        -1.566122781349479E-107
   50.9793750000000         2.238548247228843E-107
   51.1931250000000         1.035858071370128E-106
   51.4068750000000         2.394747232608189E-106
   51.6206250000000         4.229525261829287E-106
   51.8343750000000         6.053878871620940E-106
   52.0481250000000         6.671374843820866E-106
   52.2618750000000         3.909051314056563E-106
   52.4756250000000        -5.409883520299340E-106
   52.6893750000000        -2.489591886746466E-105
   52.9031250000000        -5.693787293706839E-105
   53.1168750000000        -9.946910017596223E-105
   53.3306250000000        -1.409551847337625E-104
   53.5443750000000        -1.542230592976032E-104
   53.7581250000000        -9.131429648287737E-105
   53.9718750000000         1.160935648293409E-104
   54.1856250000000         5.433458819288707E-104
   54.3993750000000         1.237029859573217E-103
   54.6131250000000         2.147846027472078E-103
   54.8268750000000         3.029927788542991E-103
   55.0406250000000         3.321252125210678E-103
   55.2543750000000         2.050172939116271E-103
   55.4681250000000        -2.143032191865085E-103
   55.6818750000000        -1.073129576376646E-102
   55.8956250000000        -2.460047741631475E-102
   56.1093750000000        -4.277253656617603E-102
   56.3231250000000        -6.053427736275601E-102
   56.5368750000000        -6.726586090260830E-102
   56.7506250000000        -4.480395306778159E-102
   56.9643750000000         3.207155915385858E-102
   57.1781250000000         1.906221632432101E-101
   57.3918750000000         4.476934271934600E-101
   57.6056250000000         7.873557980772204E-101
   57.8193750000000         1.128522269793347E-100
   58.0331250000000         1.287671081586387E-100
   58.2468750000000         9.506619358128967E-101
   58.4606250000000        -3.202719018029869E-101
   58.6743750000000        -3.005468145959064E-100
   58.8881250000000        -7.426168775329647E-100
   59.1018750000000        -1.338320374509247E-099
   59.3156250000000        -1.963351364533254E-099
   59.5293750000000        -2.328251906957267E-099
   59.7431250000000        -1.930464128381749E-099
   59.9568750000000        -5.861273562255895E-101
   60.1706250000000         4.092343158606533E-099
   60.3843750000000         1.112461500788189E-098
   60.5981250000000         2.089904415814411E-098
   60.8118750000000         3.174462663342134E-098
   61.0256250000000         3.951897946599324E-098
   61.2393750000000         3.681119264269926E-098
   61.4531250000000         1.283531174119761E-098
   61.6668750000000        -4.516083126457640E-098
   61.8806250000000        -1.479611549857033E-097
   62.0943750000000        -2.970029873641340E-097
   62.3081250000000        -4.732623818514412E-097
   62.5218750000000        -6.235496693741330E-097
   62.7356250000000        -6.478119921828934E-097
   62.9493750000000        -3.944404409196546E-097
   63.1631250000000         3.256288030292759E-097
   63.3768750000000         1.692368469070576E-096
   63.5906250000000         3.784356242830479E-096
   63.8043750000000         6.434103653469484E-096
   64.0181250000000         9.041043898217899E-096
   64.2318750000000         1.038155667610990E-095
   64.4456250000000         8.497469657108633E-096
   64.6593750000000         7.936566816264987E-097
   64.8731250000000        -1.548264552192524E-095
   65.0868750000000        -4.219879588967077E-095
   65.3006250000000        -7.860782117752146E-095
   65.5143750000000        -1.189835981802363E-094
   65.7281250000000        -1.499921842897763E-094
   65.9418750000000        -1.486541238698491E-094
   66.1556250000000        -8.234996969458328E-095
   66.3693750000000         8.710520320813318E-095
   66.5831250000000         3.930043891504168E-094
   66.7968750000000         8.449852931856266E-094
   67.0106250000000         1.401596807922991E-093
   67.2243750000000         1.937033061556717E-093
   67.4381250000000         2.209973904153716E-093
   67.6518750000000         1.849201649328000E-093
   67.8656250000000         3.778519797439989E-094
   68.0793750000000        -2.696638402272013E-093
   68.2931250000000        -7.700507734906892E-093
   68.5068750000000        -1.450492630639682E-092
   68.7206250000000        -2.214423838557066E-092
   68.9343750000000        -2.840398285995581E-092
   69.1481250000000        -2.951116527118501E-092
   69.3618750000000        -2.014130295489532E-092
   69.5756250000000         5.969124771163612E-093
   69.7893750000000         5.448539900562844E-092
   70.0031250000000         1.277559196871144E-091
   70.2168750000000         2.208717561460232E-091
   70.4306250000000         3.168876932425566E-091
   70.6443750000000         3.822441646465127E-091
   70.8581250000000         3.642779205577569E-091
   71.0718750000000         1.936044723489260E-091
   71.2856250000000        -2.051912752511300E-091
   71.4993750000000        -8.911566378463205E-091
   71.7131250000000        -1.870773922547167E-090
   71.9268750000000        -3.049070484348923E-090
   72.1406250000000        -4.174689053132578E-090
   72.3543750000000        -4.793476071463388E-090
   72.5681250000000        -4.234581850119012E-090
   72.7818750000000        -1.661968952231347E-090
   72.9956250000000         3.771008255511641E-090
   73.2093750000000         1.263080565274269E-089
   73.4231250000000         2.476348312434484E-089
   73.6368750000000         3.873315400065433E-089
   73.8506250000000         5.123296855166045E-089
   74.0643750000000         5.665031095867549E-089
   74.2781250000000         4.706540290905551E-089
   74.4918750000000         1.304411508320432E-089
   74.7056250000000        -5.438947539066816E-089
   74.9193750000000        -1.603020588191490E-088
   75.1331250000000        -3.008820330132048E-088
   75.3468750000000        -4.573955040672488E-088
   75.5606250000000        -5.902331531300876E-088
   75.7743750000000        -6.351253904880975E-088
   75.9881250000000        -5.045484718890390E-088
   76.2018750000000        -9.803358395439711E-089
   76.4156250000000         6.749084621068002E-088
   76.6293750000000         1.856766508577817E-087
   76.8431250000000         3.389458796920897E-087
   77.0568750000000         5.052988534625418E-087
   77.2706250000000         6.408529571325169E-087
   77.4843750000000         6.768048606252704E-087
   77.6981250000000         5.221173541837635E-087
   77.9118750000000         7.552818271741651E-088
   78.1256250000000        -7.497577560996293E-087
   78.3393750000000        -1.986838408289567E-086
   78.5531250000000        -3.562753989944317E-086
   78.7668750000000        -5.239703194529287E-086
   78.9806250000000        -6.563722682746459E-086
   79.1943750000000        -6.842890077479788E-086
   79.4081250000000        -5.184410534545473E-086
   79.6218750000000        -6.233854351394306E-087
   79.8356250000000         7.628343575394599E-086
   80.0493750000000         1.980157345474282E-085
   80.2631250000000         3.507844301537546E-085
   80.4768750000000         5.106201474460380E-085
   80.6906250000000         6.334347537641149E-085
   80.9043750000000         6.537391377132895E-085
   81.1181250000000         4.890452624037497E-085
   81.3318750000000         5.275156186684945E-086
   81.5456250000000        -7.222831629928194E-085
   81.7593750000000        -1.848980259998560E-084
   81.9731250000000        -3.242691576630808E-084
   82.1868750000000        -4.676364646328378E-084
   82.4006250000000        -5.746870074499224E-084
   82.6143750000000        -5.870736659682651E-084
   82.8281250000000        -4.331509105032892E-084
   83.0418750000000        -4.009157630879310E-085
   83.2556250000000         6.450787718706377E-084
   83.4693750000000         1.625621220459054E-083
   83.6831250000000         2.819223290757144E-083
   83.8968750000000         4.022743294550163E-083
   84.1106250000000         4.888554686644434E-083
   84.3243750000000         4.927580870881626E-083
   84.5381250000000         3.556466814789008E-083
   84.7518750000000         2.050515185143930E-084
   84.9656250000000        -5.506702130810397E-083
   85.1793750000000        -1.352766443524477E-082
   85.3931250000000        -2.309841985566672E-082
   85.6068750000000        -3.249569297167192E-082
   85.8206250000000        -3.888817362226494E-082
   86.0343750000000        -3.842061233569462E-082
   86.2481250000000        -2.665333358779781E-082
   86.4618750000000         5.362897676771344E-084
   86.6756250000000         4.554958031851845E-082
   86.8893750000000         1.072396756263168E-081
   87.1031250000000         1.789187372367135E-081
   87.3168750000000         2.466721142986465E-081
   87.5306250000000         2.886699552547140E-081
   87.7443750000000         2.763226244414295E-081
   87.9581250000000         1.781345872932711E-081
   88.1718750000000        -3.312522379437619E-082
   88.3856250000000        -3.698877791682643E-081
   88.5993750000000        -8.167817643217718E-081
   88.8131250000000        -1.317352862997934E-080
   89.0268750000000        -1.764163738625767E-080
   89.2406250000000        -1.997272425552862E-080
   89.4543750000000        -1.816818185534710E-080
   89.6681250000000        -1.014972395374684E-080
   89.8818750000000         5.697809318800472E-081
   90.0956250000000         2.977659938316668E-080
   90.3093750000000         6.040509489587063E-080
   90.5231250000000         9.300109720237456E-080
   90.7368750000000         1.195867099518917E-079
   90.9506250000000         1.289570807404606E-079
   91.1643750000000         1.078760480628675E-079
   91.3781250000000         4.359159254811021E-080
   91.5918750000000        -7.223376022465417E-080
   91.8056250000000        -2.384293491813840E-079
   92.0193750000000        -4.387994513619914E-079
   92.2331250000000        -6.374987903365445E-079
   92.4468750000000        -7.771689738956529E-079
   92.6606250000000        -7.820619003336227E-079
   92.8743750000000        -5.683177166921811E-079
   93.0881250000000        -6.285409089337710E-080
   93.3018750000000         7.692338606624496E-079
   93.5156250000000         1.891339502901732E-078
   93.7293750000000         3.161903052196726E-078
   93.9431250000000         4.310264319876453E-078
   94.1568750000000         4.934302837139025E-078
   94.3706250000000         4.533806727376498E-078
   94.5843750000000         2.591925796366176E-078
   94.7981250000000        -1.288931829788641E-078
   95.0118750000000        -7.201776685730438E-078
   95.2256250000000        -1.472211973717844E-077
   95.4393750000000        -2.271013321634619E-077
   95.6531250000000        -2.919208940545538E-077
   95.8668750000000        -3.140197507997590E-077
   96.0806250000000        -2.606862317278420E-077
   96.2943750000000        -1.001743533078387E-077
   96.5081250000000         1.888900902919489E-077
   96.7218750000000         6.052511228262244E-077
   96.9356250000000         1.111544319531830E-076
   97.1493750000000         1.622534516788252E-076
   97.3631250000000         1.999288847820630E-076
   97.5768750000000         2.054414449156380E-076
   97.7906250000000         1.573567560810655E-076
   98.0043750000000         3.571810422203335E-077
   98.2181250000000        -1.716683547058547E-076
   98.4318750000000        -4.612509352911868E-076
   98.6456250000000        -8.051589462213363E-076
   98.8593750000000        -1.143950188794859E-075
   99.0731250000000        -1.383366901733779E-075
   99.2868750000000        -1.398317046893620E-075
   99.5006250000000        -1.047304013398720E-075
   99.7143750000000        -1.997097846106596E-076
   99.9281250000000         1.223568327936310E-075
   100.141875000000         3.198756336732623E-075
   100.355625000000         5.544007198740446E-075
   100.569375000000         7.872223761768938E-075
   100.783125000000         9.568581213561359E-075
   100.996875000000         9.812833710129781E-075
   101.210625000000         7.666821938495932E-075
   101.424375000000         2.243037098150185E-075
   101.638125000000        -7.040999069852162E-075
   101.851875000000        -2.013637196218701E-074
   102.065625000000        -3.600402879302765E-074
   102.279375000000        -5.229393642662230E-074
   102.493125000000        -6.516333273592558E-074
   102.706875000000        -6.935899319457432E-074
   102.920625000000        -5.869519466132354E-074
   103.134375000000        -2.703764680535763E-074
   103.348125000000         3.015662875865111E-074
   103.561875000000         1.138000430652694E-073
   103.775625000000         2.188456332397590E-073
   103.989375000000         3.320680016416871E-073
   104.203125000000         4.305539625553007E-073
   104.416875000000         4.816729632669857E-073
   104.630625000000         4.453789650232390E-073
   104.844375000000         2.796192055684862E-073
   105.058125000000        -5.067968236365064E-074
   105.271875000000        -5.611675068253917E-073
   105.485625000000        -1.233182147970469E-072
   105.699375000000        -1.998588639134404E-072
   105.913125000000        -2.727810941987550E-072
   106.126875000000        -3.225719426289606E-072
   106.340625000000        -3.240799913574843E-072
   106.554375000000        -2.492931847881032E-072
   106.768125000000        -7.236830068672724E-073
   106.981875000000         2.230118477932148E-072
   107.195625000000         6.343867663209982E-072
   107.409375000000         1.130497581216360E-071
   107.623125000000         1.642435355915134E-071
   107.836875000000         2.058704114124141E-071
   108.050625000000         2.227552321663868E-071
   108.264375000000         1.970079710350054E-071
   108.478125000000         1.107035432095467E-071
   108.691875000000        -4.993839522443774E-072
   108.905625000000        -2.890234072068657E-071
   109.119375000000        -5.946519438496895E-071
   109.333125000000        -9.328297688201864E-071
   109.546875000000        -1.243176132771701E-070
   109.760625000000        -1.438419440055675E-070
   109.974375000000        -1.409872365220425E-070
   110.188125000000        -1.040877051749272E-070
   110.401875000000        -2.294345491123404E-071
   110.615625000000         1.080247852845757E-070
   110.829375000000         2.859774968514800E-070
   111.043125000000         4.957462651341074E-070
   111.256875000000         7.066545657707264E-070
   111.470625000000         8.711943664024240E-070
   111.684375000000         9.268552037581210E-070
   111.898125000000         8.023655645539200E-070
   112.111875000000         4.292595877887322E-070
   112.325625000000        -2.410573549772356E-070
   112.539375000000        -1.215737757199753E-069
   112.753125000000        -2.436958629507631E-069
   112.966875000000        -3.760743269167964E-069
   113.180625000000        -4.944166487982951E-069
   113.394375000000        -5.648195595698956E-069
   113.608125000000        -5.463628874875422E-069
   113.821875000000        -3.966223103160199E-069
   114.035625000000        -8.036590222580222E-070
   114.249375000000         4.188794215567262E-069
   114.463125000000         1.085506892784623E-068
   114.676875000000         1.858825941686993E-068
   114.890625000000         2.623422006845259E-068
   115.104375000000         3.206713014118024E-068
   115.318125000000         3.387864893340303E-068
   115.531875000000         2.921803021060613E-068
   115.745625000000         1.580598775529591E-068
   115.959375000000        -7.881648481120071E-069
   116.173125000000        -4.190345959453573E-068
   116.386875000000        -8.410685100884296E-068
   116.600625000000        -1.294916210609620E-067
   116.814375000000        -1.698738407170034E-067
   117.028125000000        -1.940695793282223E-067
   117.241875000000        -1.888129390428051E-067
   117.455625000000        -1.405694746281018E-067
   117.669375000000        -3.829279120904276E-068
   117.883125000000         1.230054037312891E-067
   118.096875000000         3.382360758723921E-067
   118.310625000000         5.883978204104606E-067
   118.524375000000         8.378227076197369E-067
   118.738125000000         1.033599660419641E-066
   118.951875000000         1.108337268797450E-066
   119.165625000000         9.872822113156348E-067
   119.379375000000         6.003846545450621E-067
   119.593125000000        -1.008440230104422E-067
   119.806875000000        -1.122898983239615E-066
   120.020625000000        -2.408802669073015E-066
   120.234375000000        -3.819509346273116E-066
   120.448125000000        -5.123379068393477E-066
   120.661875000000        -5.999689824830113E-066
   120.875625000000        -6.062091493310230E-066
   121.089375000000        -4.906612474619821E-066
   121.303125000000        -2.186001640416001E-066
   121.516875000000         2.292318275137743E-066
   121.730625000000         8.453468147848639E-066
   121.944375000000         1.584339952687376E-065
   122.158125000000         2.354139111871835E-065
   122.371875000000         3.012586910382006E-065
   122.585625000000         3.372558731368249E-065
   122.799375000000         3.218605968935210E-065
   123.013125000000         2.337198356806405E-065
   123.226875000000         5.608767770656988E-066
   123.440625000000        -2.176027300532997E-065
   123.654375000000        -5.775886456702204E-065
   123.868125000000        -9.920164822820146E-065