  -1.60312500000000         0.000000000000000E+000
  -1.38937500000000         8.538994338508304E-013
  -1.17562500000000         5.978963423655859E-012
 -0.961875000000000         2.864083099156375E-011
 -0.748125000000000         1.106595273037558E-010
 -0.534375000000000         3.590421161833657E-010
 -0.320625000000000         9.967763054980046E-010
 -0.106875000000000         2.400743285670780E-009
  0.106875000000000         5.089004184654344E-009
  0.320625000000000         9.648921341498042E-009
  0.534375000000000         1.661488542172947E-008
  0.748125000000000         2.638165940473829E-008
  0.961875000000000         3.922432864168580E-008
   1.17562500000000         5.524416435219059E-008
   1.38937500000000         7.436554729759079E-008
   1.60312500000000         9.648201809813363E-008
   1.81687500000000         1.213811205764369E-007
   2.03062500000000         1.487169460887008E-007
   2.24437500000000         1.788162172860653E-007
   2.45812500000000         2.095185627704365E-007
   2.67187500000000         2.411647652148186E-007
   2.88562500000000         2.710382672085620E-007
   3.09937500000000         2.985102128140690E-007
   3.31312500000000         3.233855584980383E-007
   3.52687500000000         3.443624497638603E-007
   3.74062500000000         3.603690386539379E-007
   3.95437500000000         3.707564131016081E-007
   4.16812500000000         3.751291644198012E-007
   4.38187500000000         3.740878455334943E-007
   4.59562500000000         3.679829669085233E-007
   4.80937500000000         3.574338167942813E-007
   5.02312500000000         3.441019905116780E-007
   5.23687500000000         3.296126612991970E-007
   5.45062500000000         3.159367496315199E-007
   5.66437500000000         3.050996460883511E-007
   5.87812500000000         2.989692038290572E-007
   6.09187500000000         2.991019446684709E-007
   6.30562500000000         3.069732111978091E-007
   6.51937500000000         3.241224990023591E-007
   6.73312500000000         3.492511417570313E-007
   6.94687500000000         3.834555653479114E-007
   7.16062500000000         4.232593193908927E-007
   7.37437500000000         4.675894028196252E-007
   7.58812500000000         5.144799968205135E-007
   7.80187500000000         5.614880518926185E-007
   8.01562500000000         6.060633780440869E-007
   8.22937500000000         6.457588090750119E-007
   8.44312500000000         6.783442334469564E-007
   8.65687500000000         7.020777446183680E-007
   8.87062500000000         7.156295118962455E-007
   9.08437500000000         7.181799044654436E-007
   9.29812500000000         7.097525366874305E-007
   9.51187500000000         6.911264192103181E-007
   9.72562500000000         6.633977259513491E-007
   9.93937500000000         6.275595694786648E-007
   10.1531250000000         5.849511558692943E-007
   10.3668750000000         5.372119790645469E-007
   10.5806250000000         4.859366749844039E-007
   10.7943750000000         4.326176006601425E-007
   11.0081250000000         3.785785911158501E-007
   11.2218750000000         3.223142207887896E-007
   11.4356250000000         2.703891939769437E-007
   11.6493750000000         2.172373968795487E-007
   11.8631250000000         1.731079733930303E-007
   12.0768750000000         1.275740998027937E-007
   12.2906250000000         9.408246215458656E-008
   12.5043750000000         6.138947404871778E-008
   12.7181250000000         4.245934560000278E-008
   12.9318750000000         2.808220212506620E-008
   13.1456250000000         2.657617199634729E-008
   13.3593750000000         3.067750338005061E-008
   13.5731250000000         4.168494240591964E-008
   13.7868750000000         5.856836175447154E-008
   14.0006250000000         7.971152322027409E-008
   14.2143750000000         1.030351881557333E-007
   14.4281250000000         1.261546043484946E-007
   14.6418750000000         1.466329259111240E-007
   14.8556250000000         1.620349508555165E-007
   15.0693750000000         1.709939426558066E-007
   15.2831250000000         1.724362217686556E-007
   15.4968750000000         1.650217706597591E-007
   15.7106250000000         1.502629612245800E-007
   15.9243750000000         1.307431503275437E-007
   16.1381250000000         1.082929597482320E-007
   16.3518750000000         8.549247060728298E-008
   16.5656250000000         6.506153994098321E-008
   16.7793750000000         4.943738439346092E-008
   16.9931250000000         4.048258203427036E-008
   17.2068750000000         4.012995294265517E-008
   17.4206250000000         5.188259350840747E-008
   17.6343750000000         7.205953929830939E-008
   17.8481250000000         8.936498239569294E-008
   18.0618750000000         1.165813437448095E-007
   18.2756250000000         1.349126065343176E-007
   18.4893750000000         1.585332359615936E-007
   18.7031250000000         1.734890639770174E-007
   18.9168750000000         1.878829189304436E-007
   19.1306250000000         1.984764403956169E-007
   19.3443750000000         2.074179385679085E-007
   19.5581250000000         2.161037551412177E-007
   19.7718750000000         2.261203605651376E-007
   19.9856250000000         2.388744147111297E-007
   20.1993750000000         2.556182878896414E-007
   20.4131250000000         2.768701658558142E-007
   20.6268750000000         3.025169872185138E-007
   20.8406250000000         3.311791933420904E-007
   21.0543750000000         3.607112791332738E-007
   21.2681250000000         3.890262088437368E-007
   21.4818750000000         4.140918969646648E-007
   21.6956250000000         4.327109967231608E-007
   21.9093750000000         4.434428261901817E-007
   22.1231250000000         4.453996483702758E-007
   22.3368750000000         4.387359166893402E-007
   22.5506250000000         4.245738548502684E-007
   22.7643750000000         4.049335588054058E-007
   22.9781250000000         3.827120781371031E-007
   23.1918750000000         3.608176537209650E-007
   23.4056250000000         3.417713438665915E-007
   23.6193750000000         3.275844761676170E-007
   23.8331250000000         3.194185628163775E-007
   24.0468750000000         3.175718894487930E-007
   24.2606250000000         3.215659634026823E-007
   24.4743750000000         3.303694537625850E-007
   24.6881250000000         3.423083406282119E-007
   24.9018750000000         3.551830045868891E-007
   25.1156250000000         3.668242118372103E-007
   25.3293750000000         3.753172584869374E-007
   25.5431250000000         3.806464903378363E-007
   25.7568750000000         3.800499997824075E-007
   25.9706250000000         3.728340699407764E-007
   26.1843750000000         3.562634170224363E-007
   26.3981250000000         3.420223090061441E-007
   26.6118750000000         3.173309968364223E-007
   26.8256250000000         2.979043230447503E-007
   27.0393750000000         2.706085958863268E-007
   27.2531250000000         2.486534334954479E-007
   27.4668750000000         2.250392861409958E-007
   27.6806250000000         2.008705088425605E-007
   27.8943750000000         1.769337293014608E-007
   28.1081250000000         1.541065800382171E-007
   28.3218750000000         1.315791320786033E-007
   28.5356250000000         1.107355677420648E-007
   28.7493750000000         9.243828251702750E-008
   28.9631250000000         7.780036144842248E-008
   29.1768750000000         6.766599934681755E-008
   29.3906250000000         6.292151314148000E-008
   29.6043750000000         6.400451606561127E-008
   29.8181250000000         7.057507373075055E-008
   30.0318750000000         8.189716554555203E-008
   30.2456250000000         9.821481523836381E-008
   30.4593750000000         1.156463535431028E-007
   30.6731250000000         1.332997144971042E-007
   30.8868750000000         1.492125588179218E-007
   31.1006250000000         1.614541250058655E-007
   31.3143750000000         1.685773078380710E-007
   31.5281250000000         1.696843553740470E-007
   31.7418750000000         1.647077781489147E-007
   31.9556250000000         1.543399663768436E-007
   32.1693750000000         1.400459577598319E-007
   32.3831250000000         1.238725764047534E-007
   32.5968750000000         1.080953821566572E-007
   32.8106250000000         9.526038469023265E-008
   33.0243750000000         8.753230542546211E-008
   33.2381250000000         8.627060588059335E-008
   33.4518750000000         9.211228309472950E-008
   33.6656250000000         1.047452617980602E-007
   33.8793750000000         1.229243821007654E-007
   34.0931250000000         1.447005221257860E-007
   34.3068750000000         1.675840406779598E-007
   34.5206250000000         1.890281827946508E-007
   34.7343750000000         2.062078146252241E-007
   34.9481250000000         2.176505218198684E-007
   35.1618750000000         2.216202761726117E-007
   35.3756250000000         2.175942208321097E-007
   35.5893750000000         2.060277722934777E-007
   35.8031250000000         1.881022412782806E-007
   36.0168750000000         1.655792245743252E-007
   36.2306250000000         1.404634171332333E-007
   36.4443750000000         1.145417897222578E-007
   36.6581250000000         8.937469946089968E-008
   36.8718750000000         6.221552087007931E-008
   37.0856250000000         4.505386582865043E-008
   37.2993750000000         2.666532404644078E-008
   37.5131250000000         1.414742742798366E-008
   37.7268750000000        -5.101747381739716E-009
   37.9406250000000        -1.413408954371238E-008
   38.1543750000000        -2.527169869633328E-008
   38.3681250000000        -3.527074608120841E-008
   38.5818750000000        -4.302068458286015E-008
   38.7956250000000        -4.674099978053701E-008
   39.0093750000000        -4.420361774607791E-008
   39.2231250000000        -3.269596685696825E-008
   39.4368750000000        -9.556479264758190E-009
   39.6506250000000         3.006982232742760E-008
   39.8643750000000         7.776277114839532E-008
   40.0781250000000         1.366677309309146E-007
   40.2918750000000         2.041784170510890E-007
   40.5056250000000         2.757686239244703E-007
   40.7193750000000         3.470918618842498E-007
   40.9331250000000         4.104066567465525E-007
   41.1468750000000         4.706961425677760E-007
   41.3606250000000         5.128106142698366E-007
   41.5743750000000         5.396773360854826E-007
   41.7881250000000         5.505118308109681E-007
   42.0018750000000         5.451971332186916E-007
   42.2156250000000         5.251615562003971E-007
   42.4293750000000         4.930739757202672E-007
   42.6431250000000         4.520863659053127E-007
   42.8568750000000         4.039015732115755E-007
   43.0706250000000         3.625587841829035E-007
   43.2843750000000         3.196803132371689E-007
   43.4981250000000         2.867657762235961E-007
   43.7118750000000         2.585168963660289E-007
   43.9256250000000         2.345469074152258E-007
   44.1393750000000         2.135142451435328E-007
   44.3531250000000         1.931322718609669E-007
   44.5668750000000         1.709458974542922E-007
   44.7806250000000         1.446780772876307E-007
   44.9943750000000         1.127143882165097E-007
   45.2081250000000         7.428838610499783E-008
   45.4218750000000         2.978586956572524E-008
   45.6356250000000        -1.944398594964016E-008
   45.8493750000000        -7.126352859327595E-008
   46.0631250000000        -1.229665403915014E-007
   46.2768750000000        -1.718486887035725E-007
   46.4906250000000        -2.154003779995900E-007
   46.7043750000000        -2.516899817399120E-007
   46.9181250000000        -2.796483508927608E-007
   47.1318750000000        -2.988532904374419E-007
   47.3456250000000        -3.110846657359079E-007
   47.5593750000000        -3.192134712743459E-007
   47.7731250000000        -3.211878172300211E-007
   47.9868750000000        -3.227641588333330E-007
   48.2006250000000        -3.178656794741598E-007
   48.4143750000000        -3.167574478075282E-007
   48.6281250000000        -3.116511951464616E-007
   48.8418750000000        -3.054723830278674E-007
   49.0556250000000        -2.947129710563124E-007
   49.2693750000000        -2.823409444199624E-007
   49.4831250000000        -2.660636082686425E-007
   49.6968750000000        -2.447173545752998E-007
   49.9106250000000        -2.177210625601604E-007
   50.1243750000000        -1.850998027166793E-007
   50.3381250000000        -1.473352969459533E-007
   50.5518750000000        -1.052043258744749E-007
   50.7656250000000        -5.641236901592786E-008
   50.9793750000000        -1.250234819199893E-008
   51.1931250000000         3.511086874276661E-008
   51.4068750000000         7.332975633575658E-008
   51.6206250000000         1.129302476368665E-007
   51.8343750000000         1.398219315752267E-007
   52.0481250000000         1.674325906529539E-007
   52.2618750000000         1.817481185499569E-007
   52.4756250000000         1.950371181524152E-007
   52.6893750000000         2.023443693279339E-007
   52.9031250000000         2.048026593884297E-007
   53.1168750000000         2.059016822933607E-007
   53.3306250000000         2.049750460423734E-007
   53.5443750000000         2.027690565749769E-007
   53.7581250000000         1.995033281532809E-007
   53.9718750000000         1.952990781956878E-007
   54.1856250000000         1.901961256603935E-007
   54.3993750000000         1.843596220613478E-007
   54.6131250000000         1.780958299778125E-007
   54.8268750000000         1.719199196877495E-007
   55.0406250000000         1.665275877774937E-007
   55.2543750000000         1.627469572797156E-007
   55.4681250000000         1.613930664373095E-007
   55.6818750000000         1.631495339915864E-007
   55.8956250000000         1.683664706073840E-007
   56.1093750000000         1.769787771686898E-007
   56.3231250000000         1.885964321075866E-007
   56.5368750000000         2.015393466756365E-007
   56.7506250000000         2.132668516188726E-007
   56.9643750000000         2.240396026661059E-007
   57.1781250000000         2.311535911269836E-007
   57.3918750000000         2.322488880087248E-007
   57.6056250000000         2.252566728656307E-007
   57.8193750000000         2.086965793378268E-007
   58.0331250000000         1.817117470331304E-007
   58.2468750000000         1.440122943165303E-007
   58.4606250000000         9.622032320661028E-008
   58.6743750000000         3.949110337179210E-008
   58.8881250000000        -2.710067090273867E-008
   59.1018750000000        -9.547334905311386E-008
   59.3156250000000        -1.713733176656954E-007
   59.5293750000000        -2.426384603633131E-007
   59.7431250000000        -3.123751158757816E-007
   59.9568750000000        -3.767470494340567E-007
   60.1706250000000        -4.334189545639799E-007
   60.3843750000000        -4.820599066296368E-007
   60.5981250000000        -5.216934298891311E-007
   60.8118750000000        -5.521346665670947E-007
   61.0256250000000        -5.700294563083004E-007
   61.2393750000000        -5.863917070725003E-007
   61.4531250000000        -5.866797760857673E-007
   61.6668750000000        -5.825084664936093E-007
   61.8806250000000        -5.729142482690170E-007
   62.0943750000000        -5.565765934910988E-007
   62.3081250000000        -5.335754854413660E-007
   62.5218750000000        -5.035061901048160E-007
   62.7356250000000        -4.673704601654521E-007
   62.9493750000000        -4.225524910053171E-007
   63.1631250000000        -3.791185637808329E-007
   63.3768750000000        -3.303087505320919E-007
   63.5906250000000        -2.850293467686460E-007
   63.8043750000000        -2.416838391243561E-007
   64.0181250000000        -1.979016505908231E-007
   64.2318750000000        -1.647692186750771E-007
   64.4456250000000        -1.393315977781127E-007
   64.6593750000000        -1.213784431556415E-007
   64.8731250000000        -1.113748098460859E-007
   65.0868750000000        -1.087595099246964E-007
   65.3006250000000        -1.121194617671777E-007
   65.5143750000000        -1.196526979275434E-007
   65.7281250000000        -1.277481431652675E-007
   65.9418750000000        -1.367230244822739E-007
   66.1556250000000        -1.414551209836692E-007
   66.3693750000000        -1.418563848127195E-007
   66.5831250000000        -1.368011430622164E-007
   66.7968750000000        -1.263148044291936E-007
   67.0106250000000        -1.110014667797008E-007
   67.2243750000000        -9.217243889536438E-008
   67.4381250000000        -7.133322819941758E-008
   67.6518750000000        -4.600544535031870E-008
   67.8656250000000        -2.990988965195319E-008
   68.0793750000000        -8.614519725076917E-009
   68.2931250000000         1.843999976335091E-009
   68.5068750000000         1.325156153359996E-008
   68.7206250000000         1.769490892115170E-008
   68.9343750000000         2.366710124357992E-008
   69.1481250000000         3.062370371666305E-008
   69.3618750000000         3.988894397340989E-008
   69.5756250000000         5.228267487480928E-008
   69.7893750000000         6.787513072671069E-008
   70.0031250000000         8.593716603025149E-008
   70.2168750000000         1.047401097199471E-007
   70.4306250000000         1.219060517889249E-007
   70.6443750000000         1.350948957361595E-007
   70.8581250000000         1.403036584921671E-007
   71.0718750000000         1.344512105332652E-007
   71.2856250000000         1.144696766002221E-007
   71.4993750000000         7.774335656267586E-008
   71.7131250000000         3.394724971144138E-008
   71.9268750000000        -2.692858290310193E-008
   72.1406250000000        -9.329449392545149E-008
   72.3543750000000        -1.707607604806068E-007
   72.5681250000000        -2.471014300402479E-007
   72.7818750000000        -3.223523238676640E-007
   72.9956250000000        -3.962048319684004E-007
   73.2093750000000        -4.620020693536599E-007
   73.4231250000000        -5.177695572869580E-007
   73.6368750000000        -5.646474355319140E-007
   73.8506250000000        -6.027003859583828E-007
   74.0643750000000        -6.329288510887024E-007
   74.2781250000000        -6.569293471786919E-007
   74.4918750000000        -6.763727401301909E-007
   74.7056250000000        -6.927899516446637E-007
   74.9193750000000        -7.069553762343157E-007
   75.1331250000000        -7.201975457509144E-007
   75.3468750000000        -7.374799581159319E-007
   75.5606250000000        -7.446599881264333E-007
   75.7743750000000        -7.537613418786722E-007
   75.9881250000000        -7.522132804333445E-007
   76.2018750000000        -7.421282210824623E-007
   76.4156250000000        -7.200963030987040E-007
   76.6293750000000        -6.889724329439410E-007
   76.8431250000000        -6.476749522748927E-007
   77.0568750000000        -5.970147586203952E-007
   77.2706250000000        -5.385999380592337E-007
   77.4843750000000        -4.746376053246471E-007
   77.6981250000000        -4.029944997667692E-007
   77.9118750000000        -3.384825523484944E-007
   78.1256250000000        -2.712747884839588E-007
   78.3393750000000        -2.191798510533262E-007
   78.5531250000000        -1.685493956497830E-007
   78.7668750000000        -1.371438214902011E-007
   78.9806250000000        -1.099971546052264E-007
   79.1943750000000        -1.012428506008582E-007
   79.4081250000000        -1.012354893103773E-007
   79.6218750000000        -1.110486541887857E-007
   79.8356250000000        -1.271489273217180E-007
   80.0493750000000        -1.493531623656463E-007
   80.2631250000000        -1.767778576375418E-007
   80.4768750000000        -2.079319802895633E-007
   80.6906250000000        -2.421201648635635E-007
   80.9043750000000        -2.786827443143962E-007
   81.1181250000000        -3.210489877336455E-007
   81.3318750000000        -3.594638059277368E-007
   81.5456250000000        -4.016430801938007E-007
   81.7593750000000        -4.400978821290426E-007
   81.9731250000000        -4.781490946359100E-007
   82.1868750000000        -5.181229610560464E-007
   82.4006250000000        -5.480955203792190E-007
   82.6143750000000        -5.756429251256346E-007
   82.8281250000000        -5.939189828280945E-007
   83.0418750000000        -6.032575625155841E-007
   83.2556250000000        -6.020466238037218E-007
   83.4693750000000        -5.897645632013359E-007
   83.6831250000000        -5.653633667412312E-007
   83.8968750000000        -5.283504594521609E-007
   84.1106250000000        -4.767559170220714E-007
   84.3243750000000        -4.212660104875532E-007
   84.5381250000000        -3.544666595204006E-007
   84.7518750000000        -2.910261693172086E-007
   84.9656250000000        -2.296479448830958E-007
   85.1793750000000        -1.763013439248555E-007
   85.3931250000000        -1.346441471022790E-007
   85.6068750000000        -1.113199461288238E-007
   85.8206250000000        -1.011283170335202E-007
   86.0343750000000        -1.131112610628842E-007
   86.2481250000000        -1.398014131573818E-007
   86.4618750000000        -1.812875237984213E-007
   86.6756250000000        -2.350665712159310E-007
   86.8893750000000        -2.972945202581095E-007
   87.1031250000000        -3.698463213381756E-007
   87.3168750000000        -4.328833213121679E-007
   87.5306250000000        -4.980032662576736E-007
   87.7443750000000        -5.460533652845446E-007
   87.9581250000000        -5.900091856464906E-007
   88.1718750000000        -6.170310414878332E-007
   88.3856250000000        -6.346759862083250E-007
   88.5993750000000        -6.459106697147749E-007
   88.8131250000000        -6.536241049077571E-007
   89.0268750000000        -6.614057756569229E-007
   89.2406250000000        -6.727994917678082E-007
   89.4543750000000        -6.907647432099146E-007
   89.6681250000000        -7.166028138012094E-007
   89.8818750000000        -7.501736976003740E-007
   90.0956250000000        -7.899290240594330E-007
   90.3093750000000        -8.334470383690020E-007
   90.5231250000000        -8.766200796346735E-007
   90.7368750000000        -9.149452847479387E-007
   90.9506250000000        -9.438623369582240E-007
   91.1643750000000        -9.595878179841964E-007
   91.3781250000000        -9.595786181362506E-007
   91.5918750000000        -9.431721395537192E-007
   91.8056250000000        -9.114838876729387E-007
   92.0193750000000        -8.675789512195990E-007
   92.2331250000000        -8.158631755248603E-007
   92.4468750000000        -7.616866304826650E-007
   92.6606250000000        -7.105927851295330E-007
   92.8743750000000        -6.675213790634920E-007
   93.0881250000000        -6.361078124444423E-007
   93.3018750000000        -6.182617311893753E-007
   93.5156250000000        -6.133817621547112E-007
   93.7293750000000        -6.206832076989435E-007
   93.9431250000000        -6.349908844031634E-007
   94.1568750000000        -6.532898804296581E-007
   94.3706250000000        -6.697686687748006E-007
   94.5843750000000        -6.798979572360347E-007
   94.7981250000000        -6.804448880667692E-007
   95.0118750000000        -6.693130713836092E-007
   95.2256250000000        -6.467928804348034E-007
   95.4393750000000        -6.151940535468419E-007
   95.6531250000000        -5.783017559164554E-007
   95.8668750000000        -5.387131506526907E-007
   96.0806250000000        -5.114392216228870E-007
   96.2943750000000        -4.932995648918950E-007
   96.5081250000000        -4.886866100009711E-007
   96.7218750000000        -4.991807871485101E-007
   96.9356250000000        -5.242256156314255E-007
   97.1493750000000        -5.614928313881281E-007
   97.3631250000000        -6.062883041134730E-007
   97.5768750000000        -6.542153449381924E-007
   97.7906250000000        -6.968219869348521E-007
   98.0043750000000        -7.279034663800381E-007
   98.2181250000000        -7.424360537353252E-007
   98.4318750000000        -7.379147315288926E-007
   98.6456250000000        -7.141503016248614E-007
   98.8593750000000        -6.730442150690462E-007
   99.0731250000000        -6.188708444095645E-007
   99.2868750000000        -5.574574100260019E-007
   99.5006250000000        -4.912815271266734E-007
   99.7143750000000        -4.400356033469171E-007
   99.9281250000000        -3.960825386931294E-007
   100.141875000000        -3.792429527434709E-007
   100.355625000000        -3.817853462157252E-007
   100.569375000000        -4.083684658615398E-007
   100.783125000000        -4.558261724536631E-007
   100.996875000000        -5.180752455075035E-007
   101.210625000000        -5.897507064830743E-007
   101.424375000000        -6.642887605554075E-007
   101.638125000000        -7.354384708421487E-007
   101.851875000000        -7.979817958876772E-007
   102.065625000000        -8.515606947964956E-007
   102.279375000000        -8.872533702322990E-007
   102.493125000000        -9.133760562101863E-007
   102.706875000000        -9.226040188196550E-007
   102.920625000000        -9.256047215995622E-007
   103.134375000000        -9.263924979893311E-007
   103.348125000000        -9.286801698379743E-007
   103.561875000000        -9.344467012343419E-007
   103.775625000000        -9.471755376987158E-007
   103.989375000000        -9.671241340165780E-007
   104.203125000000        -9.928218862546834E-007
   104.416875000000        -1.020928631263266E-006
   104.630625000000        -1.047499136853628E-006
   104.844375000000        -1.068263922889684E-006
   105.058125000000        -1.079347115282938E-006
   105.271875000000        -1.077902961259687E-006
   105.485625000000        -1.064522023643341E-006
   105.699375000000        -1.039787144908301E-006
   105.913125000000        -1.007089933090375E-006
   106.126875000000        -9.715384397480744E-007
   106.340625000000        -9.387350969218840E-007
   106.554375000000        -9.141868808726915E-007
   106.768125000000        -9.027792333047260E-007
   106.981875000000        -9.070455928852344E-007
   107.195625000000        -9.278155945610665E-007
   107.409375000000        -9.633835456840946E-007
   107.623125000000        -1.009626388826465E-006
   107.836875000000        -1.060890063368246E-006
   108.050625000000        -1.110570654441214E-006
   108.264375000000        -1.152125658030021E-006
   108.478125000000        -1.178759061893800E-006
   108.691875000000        -1.184976107757860E-006
   108.905625000000        -1.173920345532180E-006
   109.119375000000        -1.143952999816437E-006
   109.333125000000        -1.099454174913876E-006
   109.546875000000        -1.046100383445332E-006
   109.760625000000        -9.901429186176794E-007
   109.974375000000        -9.391369623007457E-007
   110.188125000000        -8.988359400150569E-007
   110.401875000000        -8.728404234869128E-007
   110.615625000000        -8.627216969870807E-007
   110.829375000000        -8.676648002421677E-007
   111.043125000000        -8.843216747717539E-007
   111.256875000000        -9.025842604919542E-007
   111.470625000000        -9.301901100326714E-007
   111.684375000000        -9.507335423222700E-007
   111.898125000000        -9.556062378926729E-007
   112.111875000000        -9.560039024622246E-007
   112.325625000000        -9.404015659884115E-007
   112.539375000000        -9.120827868280580E-007
   112.753125000000        -8.766493793441202E-007
   112.966875000000        -8.379737059533378E-007
   113.180625000000        -8.026804036106871E-007
   113.394375000000        -7.767021732788502E-007
   113.608125000000        -7.647252663897010E-007
   113.821875000000        -7.698025996066576E-007
   114.035625000000        -7.928188692974826E-007
   114.249375000000        -8.315372947823437E-007
   114.463125000000        -8.817038739239766E-007
   114.676875000000        -9.376333462404955E-007
   114.890625000000        -9.930099238729263E-007
   115.104375000000        -1.041847552171041E-006
   115.318125000000        -1.079341653475915E-006
   115.531875000000        -1.102664880537728E-006
   115.745625000000        -1.111261906423859E-006
   115.959375000000        -1.106974959485351E-006
   116.173125000000        -1.093633881765242E-006
   116.386875000000        -1.076470422353247E-006
   116.600625000000        -1.061233295570947E-006
   116.814375000000        -1.053245370463282E-006
   117.028125000000        -1.056525687036133E-006
   117.241875000000        -1.072385337179210E-006
   117.455625000000        -1.101400485257828E-006
   117.669375000000        -1.141611385623253E-006
   117.883125000000        -1.188581642546120E-006
   118.096875000000        -1.235857873473623E-006
   118.310625000000        -1.277657948274573E-006
   118.524375000000        -1.308232723452022E-006
   118.738125000000        -1.323347327101982E-006
   118.951875000000        -1.320704350189592E-006
   119.165625000000        -1.300796463753637E-006
   119.379375000000        -1.264123265514113E-006
   119.593125000000        -1.215660347237628E-006
   119.806875000000        -1.160913437642649E-006
   120.020625000000        -1.106536108844650E-006
   120.234375000000        -1.058820529520585E-006
   120.448125000000        -1.022861425228393E-006
   120.661875000000        -1.001732931504809E-006
   120.875625000000        -9.964650991217060E-007
   121.089375000000        -1.007040210929157E-006
   121.303125000000        -1.034788387642308E-006
   121.516875000000        -1.075674145227262E-006
   121.730625000000        -1.125608904142067E-006
   121.944375000000        -1.178831471967463E-006
   122.158125000000        -1.231244316175504E-006
   122.371875000000        -1.279397291771733E-006
   122.585625000000        -1.320949403007937E-006
   122.799375000000        -1.354705508638260E-006
   123.013125000000        -1.380705912656097E-006
   123.226875000000        -1.399464595214426E-006
   123.440625000000        -1.412751690074225E-006
   123.654375000000        -1.422629941964169E-006
   123.868125000000        -1.431080575836932E-006