  -1.60312500000000         0.000000000000000E+000
  -1.38937500000000         0.000000000000000E+000
  -1.17562500000000         0.000000000000000E+000
 -0.961875000000000         0.000000000000000E+000
 -0.748125000000000         0.000000000000000E+000
 -0.534375000000000         0.000000000000000E+000
 -0.320625000000000         0.000000000000000E+000
 -0.106875000000000         0.000000000000000E+000
  0.106875000000000         0.000000000000000E+000
  0.320625000000000         0.000000000000000E+000
  0.534375000000000         0.000000000000000E+000
  0.748125000000000         0.000000000000000E+000
  0.961875000000000         0.000000000000000E+000
   1.17562500000000         0.000000000000000E+000
   1.38937500000000         0.000000000000000E+000
   1.60312500000000         0.000000000000000E+000
   1.81687500000000         0.000000000000000E+000
   2.03062500000000         0.000000000000000E+000
   2.24437500000000         0.000000000000000E+000
   2.45812500000000         0.000000000000000E+000
   2.67187500000000         0.000000000000000E+000
   2.88562500000000         0.000000000000000E+000
   3.09937500000000         0.000000000000000E+000
   3.31312500000000         0.000000000000000E+000
   3.52687500000000         0.000000000000000E+000
   3.74062500000000         0.000000000000000E+000
   3.95437500000000         0.000000000000000E+000
   4.16812500000000         0.000000000000000E+000
   4.38187500000000         0.000000000000000E+000
   4.59562500000000         0.000000000000000E+000
   4.80937500000000         0.000000000000000E+000
   5.02312500000000         0.000000000000000E+000
   5.23687500000000         0.000000000000000E+000
   5.45062500000000         0.000000000000000E+000
   5.66437500000000         0.000000000000000E+000
   5.87812500000000         0.000000000000000E+000
   6.09187500000000         0.000000000000000E+000
   6.30562500000000         0.000000000000000E+000
   6.51937500000000         0.000000000000000E+000
   6.73312500000000         0.000000000000000E+000
   6.94687500000000         0.000000000000000E+000
   7.16062500000000         0.000000000000000E+000
   7.37437500000000         0.000000000000000E+000
   7.58812500000000         0.000000000000000E+000
   7.80187500000000         0.000000000000000E+000
   8.01562500000000         0.000000000000000E+000
   8.22937500000000         0.000000000000000E+000
   8.44312500000000         0.000000000000000E+000
   8.65687500000000         0.000000000000000E+000
   8.87062500000000         0.000000000000000E+000
   9.08437500000000         0.000000000000000E+000
   9.29812500000000        -1.602316835868849E-186
   9.51187500000000         5.542893860990953E-181
   9.72562500000000        -2.769011641803260E-178
   9.93937500000000        -1.609580019576117E-176
   10.1531250000000        -3.769697807542899E-174
   10.3668750000000        -2.807256962747274E-172
   10.5806250000000        -2.312730394615881E-170
   10.7943750000000        -8.856426318207092E-169
   11.0081250000000        -1.995225399904361E-167
   11.2218750000000        -3.168277453110325E-166
   11.4356250000000        -3.940059967786341E-165
   11.6493750000000        -3.717325924825780E-164
   11.8631250000000        -1.318181437119554E-163
   12.0768750000000         4.625010524365817E-162
   12.2906250000000         1.411384891470444E-160
   12.5043750000000         2.476178870532211E-159
   12.7181250000000         2.176678778975717E-158
   12.9318750000000        -1.644472388871852E-157
   13.1456250000000        -8.267590734297361E-156
   13.3593750000000        -1.294592447050480E-154
   13.5731250000000        -1.129369249696602E-153
   13.7868750000000        -3.775943811291412E-153
   14.0006250000000         5.079210284861445E-152
   14.2143750000000         1.089931370919838E-150
   14.4281250000000         1.226359324471954E-149
   14.6418750000000         1.037469710189966E-148
   14.8556250000000         7.250490405709062E-148
   15.0693750000000         4.367247474117325E-147
   15.2831250000000         2.321675284435012E-146
   15.4968750000000         1.105103821136537E-145
   15.7106250000000         4.749212641667288E-145
   15.9243750000000         1.848211561490819E-144
   16.1381250000000         6.490374436129746E-144
   16.3518750000000         2.027128997853544E-143
   16.5656250000000         5.409969952415682E-143
   16.7793750000000         1.084175928330029E-142
   16.9931250000000         5.603261327463017E-143
   17.2068750000000        -9.352739591347556E-142
   17.4206250000000        -6.787598007497395E-141
   17.6343750000000        -3.335852126935864E-140
   17.8481250000000        -1.387771358063639E-139
   18.0618750000000        -5.210866001696253E-139
   18.2756250000000        -1.815671390499848E-138
   18.4893750000000        -5.956693379221599E-138
   18.7031250000000        -1.855517679304590E-137
   18.9168750000000        -5.516177766260782E-137
   19.1306250000000        -1.569939933563183E-136
   19.3443750000000        -4.285324312424973E-136
   19.5581250000000        -1.122801086488851E-135
   19.7718750000000        -2.823932824822801E-135
   19.9856250000000        -6.812697952427743E-135
   20.1993750000000        -1.574001477075043E-134
   20.4131250000000        -3.473250051852033E-134
   20.6268750000000        -7.288216691190386E-134
   20.8406250000000        -1.444083970865584E-133
   21.0543750000000        -2.669346065838033E-133
   21.2681250000000        -4.499712208259835E-133
   21.4818750000000        -6.575730225818228E-133
   21.6956250000000        -7.118286129173480E-133
   21.9093750000000        -7.403123299880089E-134
   22.1231250000000         2.605918971441511E-132
   22.3368750000000         1.034520494797454E-131
   22.5506250000000         2.933846720950460E-131
   22.7643750000000         7.144894433857605E-131
   22.9781250000000         1.580741308959613E-130
   23.1918750000000         3.258657007127742E-130
   23.4056250000000         6.350093274634309E-130
   23.6193750000000         1.181381587302052E-129
   23.8331250000000         2.115053629583470E-129
   24.0468750000000         3.668350822313378E-129
   24.2606250000000         6.192039007577313E-129
   24.4743750000000         1.017300262112567E-128
   24.6881250000000         1.612570558213903E-128
   24.9018750000000         2.404878936355804E-128
   25.1156250000000         3.173690597318668E-128
   25.3293750000000         3.062003242625415E-128
   25.5431250000000        -2.751280696574858E-129
   25.7568750000000        -1.208969022199051E-127
   25.9706250000000        -4.224626634819512E-127
   26.1843750000000        -1.057571846970021E-126
   26.3981250000000        -2.184234219061326E-126
   26.6118750000000        -3.811971332959970E-126
   26.8256250000000        -5.480067896047551E-126
   27.0393750000000        -5.891376071619568E-126
   27.2531250000000        -3.232376827135555E-126
   27.4668750000000         1.584399051870584E-126
   27.6806250000000        -6.367381122629365E-126
   27.8943750000000        -8.453552503092312E-125
   28.1081250000000        -3.901241113194227E-124
   28.3218750000000        -1.268590454405902E-123
   28.5356250000000        -3.332980409378357E-123
   28.7493750000000        -7.374456948773787E-123
   28.9631250000000        -1.368932589856215E-122
   29.1768750000000        -1.997320654095580E-122
   29.3906250000000        -1.639620431332795E-122
   29.6043750000000         2.372985698356672E-122
   29.8181250000000         1.579370540389579E-121
   30.0318750000000         4.880576538148710E-121
   30.2456250000000         1.154270743531576E-120
   30.4593750000000         2.263903897917157E-120
   30.6731250000000         3.667157978338811E-120
   30.8868750000000         4.446539582520804E-120
   31.1006250000000         1.982963555122051E-120
   31.3143750000000        -9.392585132303599E-120
   31.5281250000000        -3.965556238407365E-119
   31.7418750000000        -1.026044914060931E-118
   31.9556250000000        -2.099268562744685E-118
   32.1693750000000        -3.531968931519587E-118
   32.3831250000000        -4.645951484796288E-118
   32.5968750000000        -3.483167354029654E-118
   32.8106250000000         4.131326243633723E-118
   33.0243750000000         2.538192651527974E-117
   33.2381250000000         6.997941539005509E-117
   33.4518750000000         1.460589307548044E-116
   33.6656250000000         2.485993262848298E-116
   33.8793750000000         3.355138286794730E-116
   34.0931250000000         2.881462184741335E-116
   34.3068750000000        -1.391200107797797E-116
   34.5206250000000        -1.355497455661583E-115
   34.7343750000000        -3.894447315020298E-115
   34.9481250000000        -8.180026905014183E-115
   35.1618750000000        -1.392015386966578E-114
   35.3756250000000        -1.892856276923061E-114
   35.5893750000000        -1.729479635452568E-114
   35.8031250000000         2.765654912694497E-115
   36.0168750000000         6.014124419403353E-114
   36.2306250000000         1.783444230131125E-113
   36.4443750000000         3.744642309057512E-113
   36.6581250000000         6.328911544935159E-113
   36.8718750000000         8.575842372871005E-113
   37.0856250000000         8.029467638108491E-113
   37.2993750000000         8.009914810772976E-116
   37.5131250000000        -2.265019360822656E-112
   37.7268750000000        -6.832621832947562E-112
   37.9406250000000        -1.422000394681149E-111
   38.1543750000000        -2.366660550600953E-111
   38.3681250000000        -3.151692446501453E-111
   38.5818750000000        -2.907129428372740E-111
   38.7956250000000        -6.441083922606694E-113
   39.0093750000000         7.636018535819142E-111
   39.2231250000000         2.260827891795988E-110
   39.4368750000000         4.588996126686121E-110
   39.6506250000000         7.413412268103319E-110
   39.8643750000000         9.495600061309106E-110
   40.0781250000000         8.140383643143786E-110
   40.2918750000000        -1.181711132453002E-110
   40.5056250000000        -2.448650790026346E-109
   40.7193750000000        -6.731396711707916E-109
   40.9331250000000        -1.300381675316592E-108
   41.1468750000000        -1.995617033774300E-108
   41.3606250000000        -2.377138770417495E-108
   41.5743750000000        -1.695021505502639E-108
   41.7881250000000         1.207151171376512E-108
   42.0018750000000         7.703624845236223E-108
   42.2156250000000         1.875835530327907E-107
   42.4293750000000         3.363094119442129E-107
   42.6431250000000         4.781265925703116E-107
   42.8568750000000         5.046617409960423E-107
   43.0706250000000         2.239324968646165E-107
   43.2843750000000        -6.328405901647726E-107
   43.4981250000000        -2.341588392142425E-106
   43.7118750000000        -5.007241215462730E-106
   43.9256250000000        -8.237645927577236E-106
   44.1393750000000        -1.067194391800504E-105
   44.3531250000000        -9.466726677108099E-106
   44.5668750000000        -2.154889528339309E-108
   44.7806250000000         2.352550569163062E-105
   44.9943750000000         6.624329426543727E-105
   45.2081250000000         1.278924527417434E-104
   45.4218750000000         1.953582876115227E-104
   45.6356250000000         2.325685896962119E-104
   45.8493750000000         1.708031420819739E-104
   46.0631250000000        -9.385924988267542E-105
   46.2768750000000        -6.842801678354817E-104
   46.4906250000000        -1.691059471210949E-103
   46.7043750000000        -3.069691886327035E-103
   46.9181250000000        -4.478305047635229E-103
   47.1318750000000        -5.073993717376458E-103
   47.3456250000000        -3.335462877079462E-103
   47.5593750000000         2.944645297821054E-103
   47.7731250000000         1.626338268901640E-102
   47.9868750000000         3.830001404665776E-102
   48.2006250000000         6.780247478888185E-102
   48.4143750000000         9.737306471237651E-102
   48.6281250000000         1.095744755460406E-101
   48.8418750000000         7.371799445439368E-102
   49.0556250000000        -5.393202487052155E-102
   49.2693750000000        -3.222282794438170E-101
   49.4831250000000        -7.640269999257807E-101
   49.6968750000000        -1.356883748314950E-100
   49.9106250000000        -1.964345164817323E-100
   50.1243750000000        -2.265808679183037E-100
   50.3381250000000        -1.699112504470122E-100
   50.5518750000000         5.370073614960656E-101
   50.7656250000000         5.347832693082559E-100
   50.9793750000000         1.338442313772234E-099
   51.1931250000000         2.438063125620362E-099
   51.4068750000000         3.616651276006315E-099
   51.6206250000000         4.348657234259912E-099
   51.8343750000000         3.700591793556257E-099
   52.0481250000000         3.243087708665235E-100
   52.2618750000000        -7.344035119467697E-099
   52.4756250000000        -2.053950081741021E-098
   52.6893750000000        -3.915170952758074E-098
   52.9031250000000        -6.020150142008182E-098
   53.1168750000000        -7.599078593173399E-098
   53.3306250000000        -7.247289497235794E-098
   53.5443750000000        -2.890061236719165E-098
   53.7581250000000         7.963110141378527E-098
   53.9718750000000         2.747393128376228E-097
   54.1856250000000         5.605481884883085E-097
   54.3993750000000         9.020846004337252E-097
   54.6131250000000         1.198482587745280E-096
   54.8268750000000         1.258086753451098E-096
   55.0406250000000         7.893202731656136E-097
   55.2543750000000        -5.713291601706700E-097
   55.4681250000000        -3.167414156718132E-096
   55.6818750000000        -7.141240394435924E-096
   55.8956250000000        -1.215221130145789E-095
   56.1093750000000        -1.701856273769640E-095
   56.3231250000000        -1.936616776590641E-095
   56.5368750000000        -1.545171374190665E-095
   56.7506250000000        -4.210858015440651E-097
   56.9643750000000         3.066499947609133E-095
   57.1781250000000         8.071178023873979E-095
   57.3918750000000         1.472086988427703E-094
   57.6056250000000         2.178066134603599E-094
   57.8193750000000         2.657574963653127E-094
   58.0331250000000         2.470809405369461E-094
   58.2468750000000         1.024134492082633E-094
   58.4606250000000        -2.326301469515676E-094
   58.6743750000000        -8.046906963618824E-094
   58.8881250000000        -1.605159399188544E-093
   59.1018750000000        -2.519663891336062E-093
   59.3156250000000        -3.273503984953810E-093
   59.5293750000000        -3.392305953351593E-093
   59.7431250000000        -2.209091359276248E-093
   59.9568750000000         1.041027949060254E-093
   60.1706250000000         6.995225538160029E-093
   60.3843750000000         1.577719824340123E-092
   60.5981250000000         2.646145292561950E-092
   60.8118750000000         3.646946359036017E-092
   61.0256250000000         4.108328564184227E-092
   61.2393750000000         3.338460550291209E-092
   61.4531250000000         5.034804063532688E-093
   61.6668750000000        -5.165305615246664E-092
   61.8806250000000        -1.400158524903356E-091
   62.0943750000000        -2.537380687804900E-091
   62.3081250000000        -3.706352510491062E-091
   62.5218750000000        -4.471970236197087E-091
   62.7356250000000        -4.167484362432169E-091
   62.9493750000000        -1.951763764738398E-091
   63.1631250000000         3.013608330380318E-091
   63.3768750000000         1.123193410558057E-090
   63.5906250000000         2.237856605864526E-090
   63.8043750000000         3.470120957343891E-090
   64.0181250000000         4.445531846220732E-090
   64.2318750000000         4.562537774994673E-090
   64.4456250000000         3.028706442965411E-090
   64.6593750000000        -9.979755615969381E-091
   64.8731250000000        -8.127461335262445E-090
   65.0868750000000        -1.830464236548401E-089
   65.3006250000000        -3.026292147311817E-089
   65.5143750000000        -4.097783374465869E-089
   65.7281250000000        -4.532953926438591E-089
   65.9418750000000        -3.627818899971218E-089
   66.1556250000000        -5.914740270734468E-090
   66.3693750000000         5.228072996374435E-089
   66.5831250000000         1.398225840242554E-088
   66.7968750000000         2.484820018104341E-088
   67.0106250000000         3.552814913972750E-088
   67.2243750000000         4.188750972098048E-088
   67.4381250000000         3.798019783086214E-088
   67.6518750000000         1.676854127738961E-088
   67.8656250000000        -2.816345568654347E-088
   68.0793750000000        -9.973045537918796E-088
   68.2931250000000        -1.934174884405795E-087
   68.5068750000000        -2.929012025973318E-087
   68.7206250000000        -3.664635863786903E-087
   68.9343750000000        -3.661447021317601E-087
   69.1481250000000        -2.321336046598263E-087
   69.3618750000000         9.502123187578623E-088
   69.5756250000000         6.525879576268590E-087
   69.7893750000000         1.424472684879196E-086
   70.0031250000000         2.304512057801370E-086
   70.2168750000000         3.063043258460323E-086
   70.4306250000000         3.331267856675268E-086
   70.6443750000000         2.622898696941655E-086
   70.8581250000000         4.144854004175532E-087
   71.0718750000000        -3.698368567994993E-086
   71.2856250000000        -9.765133948076413E-086
   71.4993750000000        -1.718611933739982E-085
   71.7131250000000        -2.441786840984554E-085
   71.9268750000000        -2.878058334045877E-085
   72.1406250000000        -2.651244801897329E-085
   72.3543750000000        -1.324018674276772E-085
   72.5681250000000         1.498024525862521E-085
   72.7818750000000         5.997870561329713E-085
   72.9956250000000         1.192320852136313E-084
   73.2093750000000         1.834182547813705E-084
   73.4231250000000         2.344375588630802E-084
   73.6368750000000         2.449192651301689E-084
   73.8506250000000         1.804825644152104E-084
   74.0643750000000         6.033235142098060E-086
   74.2781250000000        -3.030304515109732E-084
   74.4918750000000        -7.448229199083245E-084
   74.7056250000000        -1.271981171207069E-083
   74.9193750000000        -1.773760851046580E-083
   75.1331250000000        -2.065889969665130E-083
   75.3468750000000        -1.897111377302614E-083
   75.5606250000000        -9.823041984276532E-084
   75.7743750000000         9.294956037985969E-084
   75.9881250000000         3.949223607254017E-083
   76.2018750000000         7.911207366394124E-083
   76.4156250000000         1.222789910970924E-082
   76.6293750000000         1.577616491984685E-082
   76.8431250000000         1.687345855974286E-082
   77.0568750000000         1.341432333007803E-082
   77.2706250000000         3.235897449824511E-083
   77.4843750000000        -1.524346726886543E-082
   77.6981250000000        -4.212351680584204E-082
   77.9118750000000        -7.495959627539102E-082
   78.1256250000000        -1.077570864042941E-081
   78.3393750000000        -1.303722093050224E-081
   78.5531250000000        -1.287793648058377E-081
   78.7668750000000        -8.670863288045970E-082
   78.9806250000000         1.092450971384172E-082
   79.1943750000000         1.726393689030560E-081
   79.4081250000000         3.933884440432178E-081
   79.6218750000000         6.469685474083985E-081
   79.8356250000000         8.797352298821226E-081
   80.0493750000000         1.008357127037866E-080
   80.2631250000000         9.249231101351189E-081
   80.4768750000000         5.126769162617816E-081
   80.6906250000000        -3.253795924907633E-081
   80.9043750000000        -1.625128743124027E-080
   81.1181250000000        -3.311157841706351E-080
   81.3318750000000        -5.146772837045229E-080
   81.5456250000000        -6.698867583236644E-080
   81.7593750000000        -7.337233051869818E-080
   81.9731250000000        -6.290204848412929E-080
   82.1868750000000        -2.775973193632282E-080
   82.4006250000000         3.780845286805129E-080
   82.6143750000000         1.345622951960400E-079
   82.8281250000000         2.549343959129092E-079
   83.0418750000000         3.799894944456449E-079
   83.2556250000000         4.777128848896153E-079
   83.4693750000000         5.039177617857164E-079
   83.6831250000000         4.071031799441620E-079
   83.8968750000000         1.382874057769157E-079
   84.1106250000000        -3.339342901974627E-079
   84.3243750000000        -1.004161753156626E-078
   84.5381250000000        -1.809622966792748E-078
   84.7518750000000        -2.613130857770742E-078
   84.9656250000000        -3.196299142095605E-078
   85.1793750000000        -3.270856602781094E-078
   85.3931250000000        -2.515490740645634E-078
   85.6068750000000        -6.429798972157171E-079
   85.8206250000000         2.503116142224657E-078
   86.0343750000000         6.831337423967279E-078
   86.2481250000000         1.188457073438877E-077
   86.4618750000000         1.675275698550753E-077
   86.6756250000000         2.005639403555934E-077
   86.8893750000000         2.004472173973586E-077
   87.1031250000000         1.484626086809403E-077
   87.3168750000000         2.889724594288279E-078
   87.5306250000000        -1.652181948918654E-077
   87.7443750000000        -4.255029159248415E-077
   87.9581250000000        -7.220092114151770E-077
   88.1718750000000        -9.992212025283212E-077
   88.3856250000000        -1.176490026585723E-076
   88.5993750000000        -1.155148882602356E-076
   88.8131250000000        -8.339996763668933E-077
   89.0268750000000        -1.335827845830637E-077
   89.2406250000000         9.724093801091627E-077
   89.4543750000000         2.422896321123688E-076
   89.6681250000000         4.039608424315212E-076
   89.8818750000000         5.511533141683297E-076
   90.0956250000000         6.404736741380035E-076
   90.3093750000000         6.207804276914741E-076
   90.5231250000000         4.419185029265910E-076
   90.7368750000000         6.752103000680002E-077
   90.9506250000000        -5.093341729958913E-076
   91.1643750000000        -1.250135296522028E-075
   91.3781250000000        -2.058434054093348E-075
   91.5918750000000        -2.775594644267544E-075
   91.8056250000000        -3.189737781507921E-075
   92.0193750000000        -3.061825893393115E-075
   92.2331250000000        -2.170364270309980E-075
   92.4468750000000        -3.721973914832685E-076
   92.6606250000000         2.328312415977324E-075
   92.8743750000000         5.715027251349155E-075
   93.0881250000000         9.318711810466533E-075
   93.3018750000000         1.241885760088888E-074
   93.5156250000000         1.410681752131225E-074
   93.7293750000000         1.342074642176385E-074
   93.9431250000000         9.549053034601203E-075
   94.1568750000000         2.080095721099281E-075
   94.3706250000000        -8.745506685404327E-075
   94.5843750000000        -2.184258001358440E-074
   94.7981250000000        -3.522210140736350E-074
   95.0118750000000        -4.613281944233876E-074
   95.2256250000000        -5.144563330506221E-074
   95.4393750000000        -4.827336330781144E-074
   95.6531250000000        -3.474972968257411E-074
   95.8668750000000        -1.081394267893582E-074
   96.0806250000000         2.121980202123724E-074
   96.2943750000000         5.656031177730638E-074
   96.5081250000000         8.852658283210103E-074
   96.7218750000000         1.099313482782879E-073
   96.9356250000000         1.151630125669973E-073
   97.1493750000000         1.025901834309140E-073
   97.3631250000000         7.661267604916441E-074
   97.5768750000000         4.844424727361751E-074
   97.7906250000000         3.464622083595975E-074
   98.0043750000000         5.265520533990886E-074
   98.2181250000000         1.131540567353798E-073
   98.4318750000000         2.101461927511011E-073
   98.6456250000000         3.109180394022479E-073
   98.8593750000000         3.494706262214187E-073
   99.0731250000000         2.280649047087573E-073
   99.2868750000000        -1.682787167472278E-073
   99.5006250000000        -9.407352375211519E-073
   99.7143750000000        -2.128656221681489E-072
   99.9281250000000        -3.649384192420886E-072
   100.141875000000        -5.237634741433798E-072
   100.355625000000        -6.403690866839291E-072
   100.569375000000        -6.435817768372696E-072
   100.783125000000        -4.474477594204539E-072
   100.996875000000         3.188940868536281E-073
   101.210625000000         8.490268698609042E-072
   101.424375000000         1.993581872166212E-071
   101.638125000000         3.351197357679532E-071
   101.851875000000         4.670676696298074E-071
   102.065625000000         5.550469086435879E-071
   102.279375000000         5.459988499063884E-071
   102.493125000000         3.810429020904222E-071
   102.706875000000         8.432655638880787E-073
   102.920625000000        -5.977960116694365E-071
   103.134375000000        -1.415351029172081E-070
   103.348125000000        -2.351365441731413E-070
   103.561875000000        -3.226419624201848E-070
   103.775625000000        -3.772832344423182E-070
   103.989375000000        -3.655702614706213E-070
   104.203125000000        -2.523754242439300E-070
   104.416875000000        -9.293253163778390E-072
   104.630625000000         3.741411528049787E-070
   104.844375000000         8.777755034237787E-070
   105.058125000000         1.439246660494148E-069
   105.271875000000         1.947089550890365E-069
   105.485625000000         2.242867590670353E-069
   105.699375000000         2.136581417208312E-069
   105.913125000000         1.438407960332159E-069
   106.126875000000         7.195138229959122E-072
   106.340625000000        -2.187963728510183E-069
   106.554375000000        -5.002023549949346E-069
   106.768125000000        -8.058777413780018E-069
   106.981875000000        -1.072560563469549E-068
   107.195625000000        -1.213996400776331E-068
   107.409375000000        -1.130732525326660E-068
   107.623125000000        -7.282159131199087E-069
   107.836875000000         5.716221311666776E-070
   108.050625000000         1.226617209473183E-068
   108.264375000000         2.687290785646283E-068
   108.478125000000         4.228147539105807E-068
   108.691875000000         5.513228764507455E-068
   108.905625000000         6.102532683383325E-068
   109.119375000000         5.508944649689573E-068
   109.333125000000         3.294784651710755E-068
   109.546875000000        -7.965755223125321E-069
   109.760625000000        -6.689497262959168E-068
   109.974375000000        -1.383309756609998E-067
   110.188125000000        -2.110575850567081E-067
   110.401875000000        -2.681354173127548E-067
   110.615625000000        -2.882803387759625E-067
   110.829375000000        -2.489656880884564E-067
   111.043125000000        -1.313105640221324E-067
   111.256875000000         7.359308076863430E-068
   111.470625000000         3.577800121927179E-067
   111.684375000000         6.903537883583528E-067
   111.898125000000         1.014149267383199E-066
   112.111875000000         1.247212182242823E-066
   112.325625000000         1.290999915526159E-066
   112.539375000000         1.046458856495454E-066
   112.753125000000         4.377526573762118E-067
   112.966875000000        -5.585540997263717E-067
   113.180625000000        -1.883402992169854E-066
   113.394375000000        -3.371120221311803E-066
   113.608125000000        -4.739888879124912E-066
   113.821875000000        -5.605889135601698E-066
   114.035625000000        -5.528637946894316E-066
   114.249375000000        -4.090980688246780E-066
   114.463125000000        -1.010395952167096E-066
   114.676875000000         3.730826696078697E-066
   114.890625000000         9.759244204690423E-066
   115.104375000000         1.621994944813825E-065
   115.318125000000         2.176055619178748E-065
   115.531875000000         2.462737258743928E-065
   115.745625000000         2.290201463192443E-065
   115.959375000000         1.488591053194931E-065
   116.173125000000        -3.918780946914248E-067
   116.386875000000        -2.260875215042824E-065
   116.600625000000        -4.963330246026135E-065
   116.814375000000        -7.720659075767028E-065
   117.028125000000        -9.898517239663970E-065
   117.241875000000        -1.070997536344158E-064
   117.455625000000        -9.333051901625511E-065
   117.669375000000        -5.089968243354759E-065
   117.883125000000         2.326380235946055E-065
   118.096875000000         1.261089648666676E-064
   118.310625000000         2.463982275666786E-064
   118.524375000000         3.636367767393093E-064
   118.738125000000         4.486936480196504E-064
   118.951875000000         4.667278425685813E-064
   119.165625000000         3.827679231147915E-064
   119.379375000000         1.698305368756760E-064
   119.593125000000        -1.811772889878859E-064
   119.806875000000        -6.512748541470637E-064
   120.020625000000        -1.185174976171701E-063
   120.234375000000        -1.687766831408495E-063
   120.448125000000        -2.028210902454956E-063
   120.661875000000        -2.054066914733828E-063
   120.875625000000        -1.616639629600923E-063
   121.089375000000        -6.066849551749884E-064
   121.303125000000         1.003112096198368E-063
   121.516875000000         3.115571196109355E-063
   121.730625000000         5.475960533465544E-063
   121.944375000000         7.660048632238383E-063
   122.158125000000         9.095107642527951E-063
   122.371875000000         9.123404496370512E-063
   122.585625000000         7.112294356529472E-063
   122.799375000000         2.606392122368702E-063
   123.013125000000        -4.493985358190775E-063
   123.226875000000        -1.375644345785511E-062
   123.440625000000        -2.408206011166663E-062
   123.654375000000        -3.366027529512743E-062
   123.868125000000        -4.006080833589832E-062