  -1.60312500000000         0.000000000000000E+000
  -1.38937500000000         0.000000000000000E+000
  -1.17562500000000         0.000000000000000E+000
 -0.961875000000000         0.000000000000000E+000
 -0.748125000000000         0.000000000000000E+000
 -0.534375000000000         0.000000000000000E+000
 -0.320625000000000         0.000000000000000E+000
 -0.106875000000000         0.000000000000000E+000
  0.106875000000000         0.000000000000000E+000
  0.320625000000000         0.000000000000000E+000
  0.534375000000000         0.000000000000000E+000
  0.748125000000000         0.000000000000000E+000
  0.961875000000000         0.000000000000000E+000
   1.17562500000000         0.000000000000000E+000
   1.38937500000000         0.000000000000000E+000
   1.60312500000000         0.000000000000000E+000
   1.81687500000000         0.000000000000000E+000
   2.03062500000000         0.000000000000000E+000
   2.24437500000000         0.000000000000000E+000
   2.45812500000000         0.000000000000000E+000
   2.67187500000000         0.000000000000000E+000
   2.88562500000000         0.000000000000000E+000
   3.09937500000000         0.000000000000000E+000
   3.31312500000000         0.000000000000000E+000
   3.52687500000000         0.000000000000000E+000
   3.74062500000000         0.000000000000000E+000
   3.95437500000000         0.000000000000000E+000
   4.16812500000000         0.000000000000000E+000
   4.38187500000000         0.000000000000000E+000
   4.59562500000000         0.000000000000000E+000
   4.80937500000000         0.000000000000000E+000
   5.02312500000000         0.000000000000000E+000
   5.23687500000000         0.000000000000000E+000
   5.45062500000000         0.000000000000000E+000
   5.66437500000000         0.000000000000000E+000
   5.87812500000000         0.000000000000000E+000
   6.09187500000000         0.000000000000000E+000
   6.30562500000000         0.000000000000000E+000
   6.51937500000000         0.000000000000000E+000
   6.73312500000000         0.000000000000000E+000
   6.94687500000000         0.000000000000000E+000
   7.16062500000000         0.000000000000000E+000
   7.37437500000000         0.000000000000000E+000
   7.58812500000000         0.000000000000000E+000
   7.80187500000000         0.000000000000000E+000
   8.01562500000000         0.000000000000000E+000
   8.22937500000000         0.000000000000000E+000
   8.44312500000000         0.000000000000000E+000
   8.65687500000000         0.000000000000000E+000
   8.87062500000000         0.000000000000000E+000
   9.08437500000000         0.000000000000000E+000
   9.29812500000000        -1.712476118334832E-187
   9.51187500000000         5.923933564411716E-182
   9.72562500000000        -2.947533290798890E-179
   9.93937500000000        -1.779307790751733E-177
   10.1531250000000        -4.063859996178212E-175
   10.3668750000000        -3.081183124216048E-173
   10.5806250000000        -2.532544999277244E-171
   10.7943750000000        -9.965733188436125E-170
   11.0081250000000        -2.326707534307985E-168
   11.2218750000000        -3.832006996057235E-167
   11.4356250000000        -4.932749442978540E-166
   11.6493750000000        -4.887260935512569E-165
   11.8631250000000        -2.294821712688537E-164
   12.0768750000000         4.572617185554960E-163
   12.2906250000000         1.603573574593746E-161
   12.5043750000000         2.957615285616579E-160
   12.7181250000000         2.886728590380084E-159
   12.9318750000000        -1.236224462065757E-158
   13.1456250000000        -9.135363030047553E-157
   13.3593750000000        -1.563309184058477E-155
   13.5731250000000        -1.501703871797612E-154
   13.7868750000000        -6.744257205728554E-154
   14.0006250000000         4.350426276541037E-153
   14.2143750000000         1.262652475355445E-151
   14.4281250000000         1.553423190832002E-150
   14.6418750000000         1.395205224651667E-149
   14.8556250000000         1.025296259851875E-148
   15.0693750000000         6.467688159924923E-148
   15.2831250000000         3.594808850028701E-147
   15.4968750000000         1.788689639866535E-146
   15.7106250000000         8.045490359488121E-146
   15.9243750000000         3.287397243370315E-145
   16.1381250000000         1.219926102832729E-144
   16.3518750000000         4.080078987150070E-144
   16.5656250000000         1.202847849025030E-143
   16.7793750000000         2.939751411092175E-143
   16.9931250000000         4.697312988867504E-143
   17.2068750000000        -4.699578895012576E-143
   17.4206250000000        -8.723777303839373E-142
   17.6343750000000        -5.162994228097923E-141
   17.8481250000000        -2.355999257806577E-140
   18.0618750000000        -9.408292936049962E-140
   18.2756250000000        -3.438239396132995E-139
   18.4893750000000        -1.174495424377279E-138
   18.7031250000000        -3.794201549038368E-138
   18.9168750000000        -1.167270105648636E-137
   19.1306250000000        -3.434684908413409E-137
   19.3443750000000        -9.692498571313249E-137
   19.5581250000000        -2.627237554206703E-136
   19.7718750000000        -6.845309421921031E-136
   19.9856250000000        -1.714445856510755E-135
   20.1993750000000        -4.124767028800423E-135
   20.4131250000000        -9.519017100341235E-135
   20.6268750000000        -2.102033468196782E-134
   20.8406250000000        -4.424326370930347E-134
   21.0543750000000        -8.820554722657337E-134
   21.2681250000000        -1.648248575309943E-133
   21.4818750000000        -2.831936485452036E-133
   21.6956250000000        -4.295484483391774E-133
   21.9093750000000        -5.135372193714658E-133
   22.1231250000000        -2.429417173254012E-133
   22.3368750000000         1.141209651562189E-132
   22.5506250000000         5.382402113392773E-132
   22.7643750000000         1.615405672259389E-131
   22.9781250000000         4.068433538828507E-131
   23.1918750000000         9.240540489146867E-131
   23.4056250000000         1.950989235278006E-130
   23.6193750000000         3.892257025433616E-130
   23.8331250000000         7.415322163480017E-130
   24.0468750000000         1.359633567144477E-129
   24.2606250000000         2.413462730214045E-129
   24.4743750000000         4.162476554281675E-129
   24.6881250000000         6.973150993505590E-129
   24.9018750000000         1.126680014082697E-128
   25.1156250000000         1.722889632994155E-128
   25.3293750000000         2.389329412138179E-128
   25.5431250000000         2.687176696249127E-128
   25.7568750000000         1.365686741329252E-128
   25.9706250000000        -4.441468617109341E-128
   26.1843750000000        -2.025933744756479E-127
   26.3981250000000        -5.490613977827480E-127
   26.6118750000000        -1.189905866155025E-126
   26.8256250000000        -2.182992558755203E-126
   27.0393750000000        -3.398315632799621E-126
   27.2531250000000        -4.373416723854069E-126
   27.4668750000000        -4.549544348585513E-126
   27.6806250000000        -5.060725557397831E-126
   27.8943750000000        -1.477597365255875E-125
   28.1081250000000        -6.550522228750193E-125
   28.3218750000000        -2.427803414993959E-124
   28.5356250000000        -7.345732275663389E-124
   28.7493750000000        -1.878930595218851E-123
   28.9631250000000        -4.130122387027877E-123
   29.1768750000000        -7.727805541501361E-123
   29.3906250000000        -1.161478632655294E-122
   29.6043750000000        -1.083100219742118E-122
   29.8181250000000         8.584648918111149E-123
   30.0318750000000         7.762533331998915E-122
   30.2456250000000         2.531491807863905E-121
   30.4593750000000         6.184665955912238E-121
   30.6731250000000         1.252348833616080E-120
   30.8868750000000         2.119500260432950E-120
   31.1006250000000         2.806653408268530E-120
   31.3143750000000         2.014750102207253E-120
   31.5281250000000        -3.227270663605565E-120
   31.7418750000000        -1.843131391242963E-119
   31.9556250000000        -5.183310169578966E-119
   32.1693750000000        -1.120169524157391E-118
   32.3831250000000        -1.994184768651150E-118
   32.5968750000000        -2.862984344550671E-118
   32.8106250000000        -2.793712363224237E-118
   33.0243750000000         3.605165253846390E-119
   33.2381250000000         1.055225994151730E-117
   33.4518750000000         3.364135818574915E-117
   33.6656250000000         7.582045940686009E-117
   33.8793750000000         1.382475528436699E-116
   34.0931250000000         2.049012203832116E-116
   34.3068750000000         2.208283963305457E-116
   34.5206250000000         6.109115460462502E-117
   34.7343750000000        -4.999966927620012E-116
   34.9481250000000        -1.790456125028186E-115
   35.1618750000000        -4.152412945322107E-115
   35.3756250000000        -7.663119536104158E-115
   35.5893750000000        -1.153449104245561E-114
   35.8031250000000        -1.308729303405132E-114
   36.0168750000000        -6.364118192019764E-115
   36.2306250000000         1.912403749074397E-114
   36.4443750000000         7.820546237832252E-114
   36.6581250000000         1.858665691928691E-113
   36.8718750000000         3.451611266894226E-113
   37.0856250000000         5.226303774317661E-113
   37.2993750000000         6.085309187785906E-113
   37.5131250000000         3.665425805552094E-113
   37.7268750000000        -6.057678220289823E-113
   37.9406250000000        -2.855767202240730E-112
   38.1543750000000        -6.904898587510976E-112
   38.3681250000000        -1.280263835316417E-111
   38.5818750000000        -1.927800423193596E-111
   38.7956250000000        -2.245383789293218E-111
   39.0093750000000        -1.436168216719833E-111
   39.2231250000000         1.796191073652799E-111
   39.4368750000000         9.116940493405553E-111
   39.6506250000000         2.194451446533677E-110
   39.8643750000000         4.001602139239630E-110
   40.0781250000000         5.886447897653033E-110
   40.2918750000000         6.630156022233110E-110
   40.5056250000000         3.886865113111538E-110
   40.7193750000000        -5.924310654366954E-110
   40.9331250000000        -2.701632004495088E-109
   41.1468750000000        -6.224230624835980E-109
   41.3606250000000        -1.089761339056596E-108
   41.5743750000000        -1.524973468545560E-108
   41.7881250000000        -1.577114610505290E-108
   42.0018750000000        -6.247754237298042E-109
   42.2156250000000         2.203348704642768E-108
   42.4293750000000         7.802454767834495E-108
   42.6431250000000         1.650673956608348E-107
   42.8568750000000         2.701028988107389E-107
   43.0706250000000         3.479714079820968E-107
   43.2843750000000         3.042693555106426E-107
   43.4981250000000        -1.362274197343916E-108
   43.7118750000000        -7.990289062862400E-107
   43.9256250000000        -2.214576219698636E-106
   44.1393750000000        -4.235538634445242E-106
   44.3531250000000        -6.387859054297958E-106
   44.5668750000000        -7.401918506097301E-106
   44.7806250000000        -4.889933123487689E-106
   44.9943750000000         4.704107371923940E-106
   45.2081250000000         2.545236533331637E-105
   45.4218750000000         5.999978820857168E-105
   45.6356250000000         1.057344732208358E-104
   45.8493750000000         1.488448270546294E-104
   46.0631250000000         1.570682055334294E-104
   46.2768750000000         7.390455526480136E-105
   46.4906250000000        -1.799598686582860E-104
   46.7043750000000        -6.887651699951584E-104
   46.9181250000000        -1.495457342312375E-103
   47.1318750000000        -2.516359272822999E-103
   47.3456250000000        -3.415119946355476E-103
   47.5593750000000        -3.456888575138719E-103
   47.7731250000000        -1.404030584045465E-103
   47.9868750000000         4.427432442079711E-103
   48.2006250000000         1.576713593637800E-102
   48.4143750000000         3.342027172057498E-102
   48.6281250000000         5.553779008569331E-102
   48.8418750000000         7.512717281698973E-102
   49.0556250000000         7.724179831626605E-102
   49.2693750000000         3.703966579267114E-102
   49.4831250000000        -7.905386718995459E-102
   49.6968750000000        -3.057262034081827E-101
   49.9106250000000        -6.606825434991943E-101
   50.1243750000000        -1.112780235576733E-100
   50.3381250000000        -1.536531187079664E-100
   50.5518750000000        -1.660731174235017E-100
   50.7656250000000        -1.031788893401926E-100
   50.9793750000000         9.702209485153479E-101
   51.1931250000000         5.006361136866186E-100
   51.4068750000000         1.147733715360470E-099
   51.6206250000000         1.999026062395172E-099
   51.8343750000000         2.859289552243026E-099
   52.0481250000000         3.289450800065711E-099
   52.2618750000000         2.539217546558960E-099
   52.4756250000000        -4.408353566948654E-100
   52.6893750000000        -6.820333462315773E-099
   52.9031250000000        -1.743870788234721E-098
   53.1168750000000        -3.199425859307250E-098
   53.3306250000000        -4.786131448969733E-098
   53.5443750000000        -5.869560808661167E-098
   53.7581250000000        -5.327378706975699E-098
   53.9718750000000        -1.540044904663776E-098
   54.1856250000000         7.387090265757113E-098
   54.3993750000000         2.301897819736134E-097
   54.6131250000000         4.546879002102446E-097
   54.8268750000000         7.172337485506076E-097
   55.0406250000000         9.360503745202685E-097
   55.2543750000000         9.593481747216032E-097
   55.4681250000000         5.597699827291127E-097
   55.6818750000000        -5.419674724254771E-097
   55.8956250000000        -2.603955122424128E-096
   56.1093750000000        -5.721581597858742E-096
   56.3231250000000        -9.610199670431294E-096
   56.5368750000000        -1.333136075657882E-095
   56.7506250000000        -1.502776620778511E-095
   56.9643750000000        -1.179544793381787E-095
   57.1781250000000         1.079453982047016E-097
   57.3918750000000         2.446694660004109E-095
   57.6056250000000         6.347795810243814E-095
   57.8193750000000         1.151588723400569E-094
   58.0331250000000         1.699684802839858E-094
   58.2468750000000         2.073206931880050E-094
   58.4606250000000         1.934037836166894E-094
   58.6743750000000         8.254011848756443E-095
   58.8881250000000        -1.750126104743874E-094
   59.1018750000000        -6.158530996492046E-094
   59.3156250000000        -1.234997916427685E-093
   59.5293750000000        -1.947406353584074E-093
   59.7431250000000        -2.546055691371175E-093
   59.9568750000000        -2.670892468338009E-093
   60.1706250000000        -1.812017876891342E-093
   60.3843750000000         6.217849147630177E-094
   60.5981250000000         5.136040758452108E-093
   60.8118750000000         1.186178246109743E-092
   61.0256250000000         2.015023253528906E-092
   61.2393750000000         2.810898840138469E-092
   61.4531250000000         3.221506279879848E-092
   61.6668750000000         2.723273710679366E-092
   61.8806250000000         6.748122495594176E-093
   62.0943750000000        -3.533432784022531E-092
   62.3081250000000        -1.020642263970134E-091
   62.5218750000000        -1.894700507522429E-091
   62.7356250000000        -2.818042217750932E-091
   62.9493750000000        -3.472036861342286E-091
   63.1631250000000        -3.358552223389305E-091
   63.3768750000000        -1.836059875545985E-091
   63.5906250000000         1.756062329505650E-091
   63.8043750000000         7.856463350184646E-091
   64.0181250000000         1.631631728399433E-090
   64.2318750000000         2.594369169166829E-090
   64.4456250000000         3.405683394961313E-090
   64.6593750000000         3.622717757907569E-090
   64.8731250000000         2.647436689555722E-090
   65.0868750000000        -1.774943934615544E-091
   65.3006250000000        -5.368152778712163E-090
   65.5143750000000        -1.298200849261206E-089
   65.7281250000000        -2.220610898295370E-089
   65.9418750000000        -3.092793494117919E-089
   66.1556250000000        -3.543730425695817E-089
   66.3693750000000        -3.048193910851774E-089
   66.5831250000000        -9.950897426050272E-090
   66.7968750000000         3.154915518503217E-089
   67.0106250000000         9.607637852160611E-089
   67.2243750000000         1.788143639289878E-088
   67.4381250000000         2.641729763750195E-088
   67.6518750000000         3.226856912969635E-088
   67.8656250000000         3.105073765221803E-088
   68.0793750000000         1.738207590706799E-088
   68.2931250000000        -1.394811058866965E-088
   68.5068750000000        -6.592342069334640E-088
   68.7206250000000        -1.363930325151587E-087
   68.9343750000000        -2.146905433497131E-087
   69.1481250000000        -2.786315373880639E-087
   69.3618750000000        -2.932854222293582E-087
   69.5756250000000        -2.133846901012630E-087
   69.7893750000000         8.601166066571617E-089
   70.0031250000000         4.071364104405570E-087
   70.2168750000000         9.807938848660253E-087
   70.4306250000000         1.664185885296141E-086
   70.6443750000000         2.300537435713951E-086
   70.8581250000000         2.625157861119216E-086
   71.0718750000000         2.274192847584377E-086
   71.2856250000000         8.352810161792453E-087
   71.4993750000000        -2.045134178706027E-086
   71.7131250000000        -6.491560369192876E-086
   71.9268750000000        -1.217714490000665E-085
   72.1406250000000        -1.808658762654595E-085
   72.3543750000000        -2.233515046670702E-085
   72.5681250000000        -2.214918171282475E-085
   72.7818750000000        -1.413794383838804E-085
   72.9956250000000         5.015209431239927E-086
   73.2093750000000         3.736096451820574E-085
   73.4231250000000         8.201930460145642E-085
   73.6368750000000         1.332505651657349E-084
   73.8506250000000         1.787153856983973E-084
   74.0643750000000         1.986492617760846E-084
   74.2781250000000         1.669076842766611E-084
   74.4918750000000         5.491835520622367E-085
   74.7056250000000        -1.606275820317340E-084
   74.9193750000000        -4.861412606600927E-084
   75.1331250000000        -8.965039421236567E-084
   75.3468750000000        -1.320049711080835E-083
   75.5606250000000        -1.627787250737006E-083
   75.7743750000000        -1.633431169287987E-083
   75.9881250000000        -1.112018053606739E-083
   76.2018750000000         1.555655067019057E-084
   76.4156250000000         2.307932511335452E-083
   76.6293750000000         5.300866854494258E-083
   76.8431250000000         8.790295363875408E-083
   77.0568750000000         1.202730205335002E-082
   77.2706250000000         1.380679439920210E-082
   77.4843750000000         1.252348537479210E-082
   77.6981250000000         6.392388951807743E-083
   77.9118750000000        -6.120868758749042E-083
   78.1256250000000        -2.564871422014039E-082
   78.3393750000000        -5.109878269907358E-082
   78.5531250000000        -7.879560718217180E-082
   78.7668750000000        -1.018258869348948E-081
   78.9806250000000        -1.099253150983271E-081
   79.1943750000000        -9.030692557114618E-082
   79.4081250000000        -2.981270306251318E-082
   79.6218750000000         8.137545039887831E-082
   79.8356250000000         2.445419165968027E-081
   80.0493750000000         4.463317872426265E-081
   80.2631250000000         6.529511125904892E-081
   80.4768750000000         8.065946154116580E-081
   80.6906250000000         8.266120168896854E-081
   80.9043750000000         6.181514385208548E-081
   81.1181250000000         9.058580976710841E-082
   81.3318750000000        -8.133555315244663E-081
   81.5456250000000        -2.079358351442092E-080
   81.7593750000000        -3.579466606819094E-080
   81.9731250000000        -5.035899032411814E-080
   82.1868750000000        -6.004846810655396E-080
   82.4006250000000        -5.897451105697548E-080
   82.6143750000000        -4.055238735762572E-080
   82.8281250000000         1.075071504643213E-081
   83.0418750000000         6.893256228671367E-080
   83.2556250000000         1.605995040781696E-079
   83.4693750000000         2.655112794415956E-079
   83.6831250000000         3.628766425889764E-079
   83.8968750000000         4.211652614379168E-079
   84.1106250000000         4.002555006654708E-079
   84.3243750000000         2.572464860320024E-079
   84.5381250000000        -4.347675591258694E-080
   84.7518750000000        -5.161585709128099E-079
   84.9656250000000        -1.137041402148526E-078
   85.1793750000000        -1.828218672382223E-078
   85.3931250000000        -2.446634544710955E-078
   85.6068750000000        -2.784196094132387E-078
   85.8206250000000        -2.585394032947056E-078
   86.0343750000000        -1.587774308060294E-078
   86.2481250000000         4.124883763640087E-079
   86.4618750000000         3.473102776427925E-078
   86.6756250000000         7.407080791804448E-078
   86.8893750000000         1.169288754028912E-077
   87.1031250000000         1.542186130650093E-077
   87.3168750000000         1.731739475279304E-077
   87.5306250000000         1.586046461090079E-077
   87.7443750000000         9.547132739047238E-078
   87.9581250000000        -2.716903121899210E-078
   88.1718750000000        -2.111255317092035E-077
   88.3856250000000        -4.436546693207669E-077
   88.5993750000000        -6.928485777402428E-077
   88.8131250000000        -9.054388299800815E-077
   89.0268750000000        -1.008849205494108E-076
   89.2406250000000        -9.191996130972563E-077
   89.4543750000000        -5.563263162779952E-077
   89.6681250000000         1.343538783907871E-077
   89.8818750000000         1.155132133256878E-076
   90.0956250000000         2.428683477009271E-076
   90.3093750000000         3.776648798339525E-076
   90.5231250000000         4.912408280437583E-076
   90.7368750000000         5.456871781260144E-076
   90.9506250000000         4.984683984690554E-076
   91.1643750000000         3.104250989143277E-076
   91.3781250000000        -4.317825043269042E-077
   91.5918750000000        -5.598150675700107E-076
   91.8056250000000        -1.197359970574763E-075
   92.0193750000000        -1.865495838329812E-075
   92.2331250000000        -2.424686162075581E-075
   92.4468750000000        -2.696422439679735E-075
   92.6606250000000        -2.487362646436932E-075
   92.8743750000000        -1.627730719491414E-075
   93.0881250000000        -2.099985725986287E-077
   93.3018750000000         2.302202873578747E-075
   93.5156250000000         5.137134402263993E-075
   93.7293750000000         8.079142798680250E-075
   93.9431250000000         1.053404011557927E-074
   94.1568750000000         1.177690538884475E-074
   94.3706250000000         1.106453959203465E-074
   94.5843750000000         7.795437826080232E-075
   94.7981250000000         1.696649999216429E-075
   95.0118750000000        -6.998157166595496E-075
   95.2256250000000        -1.742685430397398E-074
   95.4393750000000        -2.808432206697486E-074
   95.6531250000000        -3.695741513032231E-074
   95.8668750000000        -4.182703261395866E-074
   96.0806250000000        -4.071490639675022E-074
   96.2943750000000        -3.240215673453087E-074
   96.5081250000000        -1.689599487315045E-074
   96.7218750000000         4.314196514272388E-075
   96.9356250000000         2.837115632961225E-074
   97.1493750000000         5.164352915188905E-074
   97.3631250000000         7.079583475882242E-074
   97.5768750000000         8.416129343894476E-074
   97.7906250000000         9.304158721815585E-074
   98.0043750000000         1.023719271407018E-073
   98.2181250000000         1.200927920249984E-073
   98.4318750000000         1.546455061888659E-073
   98.6456250000000         2.103342460002550E-073
   98.8593750000000         2.809132846387842E-073
   99.0731250000000         3.426373945069468E-073
   99.2868750000000         3.490270433453357E-073
   99.5006250000000         2.305011769829023E-073
   99.7143750000000        -9.754003521937924E-074
   99.9281250000000        -7.150681044765710E-073
   100.141875000000        -1.664868253032291E-072
   100.355625000000        -2.909034927416477E-072
   100.569375000000        -4.281257412804760E-072
   100.783125000000        -5.447295229680202E-072
   100.996875000000        -5.891423217028329E-072
   101.210625000000        -4.949943944332007E-072
   101.424375000000        -1.911905851290527E-072
   101.638125000000         3.800326950607116E-072
   101.851875000000         1.237370484579568E-071
   102.065625000000         2.329755440109259E-071
   102.279375000000         3.506498094559546E-071
   102.493125000000         4.497273967006138E-071
   102.706875000000         4.913525969329331E-071
   102.920625000000         4.283643882571674E-071
   103.134375000000         2.132092982672305E-071
   103.348125000000        -1.893585245605809E-071
   103.561875000000        -7.854843034821977E-071
   103.775625000000        -1.533529357628998E-070
   103.989375000000        -2.327454031385952E-070
   104.203125000000        -2.987883482993379E-070
   104.416875000000        -3.267541881972866E-070
   104.630625000000        -2.877610689231334E-070
   104.844375000000        -1.539624762886850E-070
   105.058125000000         9.366926748004354E-071
   105.271875000000         4.555839500717635E-070
   105.485625000000         9.033856195760651E-070
   105.699375000000         1.371439232293097E-069
   105.913125000000         1.753516222017735E-069
   106.126875000000         1.908015053176562E-069
   106.340625000000         1.674945410090363E-069
   106.554375000000         9.065155197050011E-070
   106.768125000000        -4.893575832935745E-070
   106.981875000000        -2.496938521599395E-069
   107.195625000000        -4.940696277137177E-069
   107.409375000000        -7.446625316909750E-069
   107.623125000000        -9.433376460499520E-069
   107.836875000000        -1.015056510237798E-068
   108.050625000000        -8.778525844485080E-069
   108.264375000000        -4.595536674701151E-069
   108.478125000000         2.795338034877644E-069
   108.691875000000         1.320643395936433E-068
   108.905625000000         2.562077900679759E-068
   109.119375000000         3.803054540651926E-068
   109.333125000000         4.743953109739085E-068
   109.546875000000         5.010949210443520E-068
   109.760625000000         4.210875181517607E-068
   109.974375000000         2.017522859161913E-068
   110.188125000000        -1.716567383508589E-068
   110.401875000000        -6.837942596332220E-068
   110.615625000000        -1.278463598953039E-067
   110.829375000000        -1.852645290164387E-067
   111.043125000000        -2.259065534607578E-067
   111.256875000000        -2.320751094834755E-067
   111.470625000000        -1.859721101732309E-067
   111.684375000000        -7.395281023933531E-068
   111.898125000000         1.082159538430429E-067
   112.111875000000         3.498989587718240E-067
   112.325625000000         6.211703767208840E-067
   112.539375000000         8.709862829806936E-067
   112.753125000000         1.029611388525728E-066
   112.966875000000         1.016700734374554E-066
   113.180625000000         7.557165701781455E-067
   113.394375000000         1.941394017372936E-067
   113.608125000000        -6.727246958718805E-067
   113.821875000000        -1.778429721195787E-066
   114.035625000000        -2.968432303137549E-066
   114.249375000000        -3.996529044768254E-066
   114.463125000000        -4.541738673212486E-066
   114.676875000000        -4.250992637456933E-066
   114.890625000000        -2.809241309937235E-066
   115.104375000000        -3.271498829117133E-068
   115.318125000000         4.026451551975891E-066
   115.531875000000         8.984161440255749E-066
   115.745625000000         1.406386469932525E-065
   115.959375000000         1.810244920121425E-065
   116.173125000000         1.965149891794618E-065
   116.386875000000         1.719330656049902E-065
   116.600625000000         9.472436973981575E-066
   116.814375000000        -4.083576613684868E-066
   117.028125000000        -2.291407130080174E-065
   117.241875000000        -4.493939777037081E-065
   117.455625000000        -6.636038315991123E-065
   117.669375000000        -8.177498593985889E-065
   117.883125000000        -8.472857062277697E-065
   118.096875000000        -6.876435612548452E-065
   118.310625000000        -2.895264993417066E-065
   118.524375000000         3.624484115103179E-065
   118.738125000000         1.230626552971456E-064
   118.951875000000         2.208983271037628E-064
   119.165625000000         3.116881870611733E-064
   119.379375000000         3.707471474726544E-064
   119.593125000000         3.695344633406620E-064
   119.806875000000         2.805661405431143E-064
   120.020625000000         8.429556492779607E-065
   120.234375000000        -2.227500907573372E-064
   120.448125000000        -6.198952110639936E-064
   120.661875000000        -1.056188652776045E-063
   120.875625000000        -1.448495414701821E-063
   121.089375000000        -1.686113229699747E-063
   121.303125000000        -1.643745079002872E-063
   121.516875000000        -1.203560802137484E-063
   121.730625000000        -2.853408485391665E-064
   121.944375000000         1.118570131045441E-063
   122.158125000000         2.909277457911092E-063
   122.371875000000         4.856380942755866E-063
   122.585625000000         6.591571257659551E-063
   122.799375000000         7.630255875091795E-063
   123.013125000000         7.428519348013310E-063
   123.226875000000         5.478004768298406E-063
   123.440625000000         1.434014699305773E-063
   123.654375000000        -4.737197397295341E-063
   123.868125000000        -1.261613821036122E-062