  -1.60312500000000         0.000000000000000E+000
  -1.38937500000000         0.000000000000000E+000
  -1.17562500000000         0.000000000000000E+000
 -0.961875000000000         0.000000000000000E+000
 -0.748125000000000         0.000000000000000E+000
 -0.534375000000000         0.000000000000000E+000
 -0.320625000000000         0.000000000000000E+000
 -0.106875000000000         0.000000000000000E+000
  0.106875000000000         0.000000000000000E+000
  0.320625000000000         0.000000000000000E+000
  0.534375000000000         0.000000000000000E+000
  0.748125000000000         0.000000000000000E+000
  0.961875000000000         0.000000000000000E+000
   1.17562500000000         0.000000000000000E+000
   1.38937500000000         0.000000000000000E+000
   1.60312500000000         0.000000000000000E+000
   1.81687500000000         0.000000000000000E+000
   2.03062500000000         0.000000000000000E+000
   2.24437500000000         0.000000000000000E+000
   2.45812500000000         0.000000000000000E+000
   2.67187500000000         0.000000000000000E+000
   2.88562500000000         0.000000000000000E+000
   3.09937500000000         0.000000000000000E+000
   3.31312500000000         0.000000000000000E+000
   3.52687500000000         0.000000000000000E+000
   3.74062500000000         0.000000000000000E+000
   3.95437500000000         0.000000000000000E+000
   4.16812500000000         0.000000000000000E+000
   4.38187500000000         0.000000000000000E+000
   4.59562500000000         0.000000000000000E+000
   4.80937500000000         0.000000000000000E+000
   5.02312500000000         0.000000000000000E+000
   5.23687500000000         0.000000000000000E+000
   5.45062500000000         0.000000000000000E+000
   5.66437500000000         0.000000000000000E+000
   5.87812500000000         0.000000000000000E+000
   6.09187500000000         0.000000000000000E+000
   6.30562500000000         0.000000000000000E+000
   6.51937500000000         0.000000000000000E+000
   6.73312500000000         0.000000000000000E+000
   6.94687500000000         0.000000000000000E+000
   7.16062500000000         0.000000000000000E+000
   7.37437500000000         0.000000000000000E+000
   7.58812500000000         0.000000000000000E+000
   7.80187500000000         0.000000000000000E+000
   8.01562500000000         0.000000000000000E+000
   8.22937500000000         0.000000000000000E+000
   8.44312500000000         0.000000000000000E+000
   8.65687500000000         0.000000000000000E+000
   8.87062500000000         0.000000000000000E+000
   9.08437500000000         0.000000000000000E+000
   9.29812500000000         0.000000000000000E+000
   9.51187500000000        -7.320835405881406E-188
   9.72562500000000         2.532481598786007E-182
   9.93937500000000        -1.260070489137359E-179
   10.1531250000000        -7.606287557303783E-178
   10.3668750000000        -1.737426155415101E-175
   10.5806250000000        -1.317281848477933E-173
   10.7943750000000        -1.082836729806564E-171
   11.0081250000000        -4.261668219904921E-170
   11.2218750000000        -9.957503076464695E-169
   11.4356250000000        -1.642444659034373E-167
   11.6493750000000        -2.118707889949790E-166
   11.8631250000000        -2.105728496521967E-165
   12.0768750000000        -1.002223361073847E-164
   12.2906250000000         1.933736561859527E-163
   12.5043750000000         6.845254797777525E-162
   12.7181250000000         1.266314271162947E-160
   12.9318750000000         1.240921727185263E-159
   13.1456250000000        -5.158228148214811E-159
   13.3593750000000        -3.892958478073477E-157
   13.5731250000000        -6.688304989998206E-156
   13.7868750000000        -6.458713636715519E-155
   14.0006250000000        -2.950053005348941E-154
   14.2143750000000         1.795220096854137E-153
   14.4281250000000         5.368338802091032E-152
   14.6418750000000         6.658836341775353E-151
   14.8556250000000         6.018185723406782E-150
   15.0693750000000         4.449729874284518E-149
   15.2831250000000         2.825118545601972E-148
   15.4968750000000         1.581278082130114E-147
   15.7106250000000         7.929160064989634E-147
   15.9243750000000         3.597574936894182E-146
   16.1381250000000         1.484653922190706E-145
   16.3518750000000         5.574941583299336E-145
   16.5656250000000         1.892699159225725E-144
   16.7793750000000         5.699668712911937E-144
   16.9931250000000         1.446013644164477E-143
   17.2068750000000         2.578068174032051E-143
   17.4206250000000        -5.630563334534006E-144
   17.6343750000000        -3.471607979988125E-142
   17.8481250000000        -2.212810595846396E-141
   18.0618750000000        -1.041905762512193E-140
   18.2756250000000        -4.243326289745999E-140
   18.4893750000000        -1.574037918098075E-139
   18.7031250000000        -5.445300568187466E-139
   18.9168750000000        -1.779424954023710E-138
   19.1306250000000        -5.534609758466666E-138
   19.3443750000000        -1.646270293749103E-137
   19.5581250000000        -4.697004115083081E-137
   19.7718750000000        -1.287771083798276E-136
   19.9856250000000        -3.396070189379549E-136
   20.1993750000000        -8.617027120381752E-136
   20.4131250000000        -2.102944923750136E-135
   20.6268750000000        -4.931082522434052E-135
   20.8406250000000        -1.108913800029138E-134
   21.0543750000000        -2.384507775816128E-134
   21.2681250000000        -4.879700943965149E-134
   21.4818750000000        -9.430770435266134E-134
   21.6956250000000        -1.698622941927260E-133
   21.9093750000000        -2.779396660176597E-133
   22.1231250000000        -3.893994554740276E-133
   22.3368750000000        -3.817972501742687E-133
   22.5506250000000         9.846767056880755E-134
   22.7643750000000         1.919179653301139E-132
   22.9781250000000         7.004326919477695E-132
   23.1918750000000         1.931173303179301E-131
   23.4056250000000         4.650763751058055E-131
   23.6193750000000         1.027165228399277E-130
   23.8331250000000         2.129016253478675E-130
   24.0468750000000         4.197215453286983E-130
   24.2606250000000         7.941449753021315E-130
   24.4743750000000         1.451476862495202E-129
   24.6881250000000         2.573603702257548E-129
   24.9018750000000         4.432498912218842E-129
   25.1156250000000         7.390160762461073E-129
   25.3293750000000         1.179785209326886E-128
   25.5431250000000         1.760454399935179E-128
   25.7568750000000         2.328553246973387E-128
   25.9706250000000         2.344285481853432E-128
   26.1843750000000         4.298254131591411E-129
   26.3981250000000        -6.316581276980516E-128
   26.6118750000000        -2.304254934205333E-127
   26.8256250000000        -5.718505705510778E-127
   27.0393750000000        -1.163654812288382E-126
   27.2531250000000        -2.024630503572918E-126
   27.4668750000000        -3.033290461735998E-126
   27.6806250000000        -3.969560712593214E-126
   27.8943750000000        -5.196750637523586E-126
   28.1081250000000        -1.028628944906207E-125
   28.3218750000000        -3.320023316543066E-125
   28.5356250000000        -1.140748854400538E-124
   28.7493750000000        -3.472302879500403E-124
   28.9631250000000        -9.173177148961112E-124
   29.1768750000000        -2.112857608404457E-123
   29.3906250000000        -4.220954583887942E-123
   29.6043750000000        -7.078178763005836E-123
   29.8181250000000        -8.851208023285493E-123
   30.0318750000000        -3.408241350513325E-123
   30.2456250000000         2.433362197100984E-122
   30.4593750000000         1.048130334356686E-121
   30.6731250000000         2.887280915862580E-121
   30.8868750000000         6.401921598065426E-121
   31.1006250000000         1.194814452921344E-120
   31.3143750000000         1.840036491841339E-120
   31.5281250000000         2.056120121614946E-120
   31.7418750000000         4.603782831499606E-121
   31.9556250000000        -5.823266575948723E-120
   32.1693750000000        -2.169827269180011E-119
   32.3831250000000        -5.371051373367715E-119
   32.5968750000000        -1.069496715516367E-118
   32.8106250000000        -1.761030944632183E-118
   33.0243750000000        -2.263808750794728E-118
   33.2381250000000        -1.606910130030251E-118
   33.4518750000000         2.247282374203914E-118
   33.6656250000000         1.277477049437751E-117
   33.8793750000000         3.466052877063658E-117
   34.0931250000000         7.187559933504639E-117
   34.3068750000000         1.222558004844595E-116
   34.5206250000000         1.662797387663546E-116
   34.7343750000000         1.483722690779367E-116
   34.9481250000000        -4.746884738940061E-117
   35.1618750000000        -6.170477243716127E-116
   35.3756250000000        -1.822625381514601E-115
   35.5893750000000        -3.893031326056138E-115
   35.8031250000000        -6.753620302164372E-115
   36.0168750000000        -9.487849098113075E-115
   36.2306250000000        -9.474280829252821E-115
   36.4443750000000        -1.312323070820034E-115
   36.6581250000000         2.395855433748006E-114
   36.8718750000000         7.814563525913155E-114
   37.0856250000000         1.715149359972081E-113
   37.2993750000000         3.015701216112115E-113
   37.5131250000000         4.316619037750556E-113
   37.7268750000000         4.582670747985635E-113
   37.9406250000000         1.726961598576657E-113
   38.1543750000000        -7.625734041593488E-113
   38.3681250000000        -2.779147986303277E-112
   38.5818750000000        -6.235701300137030E-112
   38.7956250000000        -1.102049479545590E-111
   39.0093750000000        -1.583471699936554E-111
   39.2231250000000        -1.716011392193319E-111
   39.4368750000000        -8.156000159499823E-112
   39.6506250000000         2.181480668737553E-111
   39.8643750000000         8.565679917981485E-111
   40.0781250000000         1.928832981398697E-110
   40.2918750000000         3.373024468044819E-110
   40.5056250000000         4.763224680903350E-110
   40.7193750000000         5.034659303900002E-110
   40.9331250000000         2.230581876161478E-110
   41.1468750000000        -6.514817515316495E-110
   41.3606250000000        -2.437800404501233E-109
   41.5743750000000        -5.310211475998596E-109
   41.7881250000000        -8.957061982533504E-109
   42.0018750000000        -1.205237643590871E-108
   42.2156250000000        -1.162797691897842E-108
   42.4293750000000        -2.633060723560880E-109
   42.6431250000000         2.172751721351404E-108
   42.8568750000000         6.793325092144597E-108
   43.0706250000000         1.371965064551049E-107
   43.2843750000000         2.166910278337924E-107
   43.4981250000000         2.672716559359046E-107
   43.7118750000000         2.108673056401470E-107
   43.9256250000000        -7.431320150146289E-108
   44.1393750000000        -7.358640282810199E-107
   44.3531250000000        -1.885005967726804E-106
   44.5668750000000        -3.466673773993396E-106
   44.7806250000000        -5.049326129083400E-106
   44.9943750000000        -5.557120184284383E-106
   45.2081250000000        -3.038320227585916E-106
   45.4218750000000         5.323765995708360E-106
   45.6356250000000         2.261158923157847E-105
   45.8493750000000         5.052525329761568E-105
   46.0631250000000         8.624275279743254E-105
   46.2768750000000         1.176719111631567E-104
   46.4906250000000         1.178369501731351E-104
   46.7043750000000         4.073906731173949E-105
   46.9181250000000        -1.766101599997949E-104
   47.1318750000000        -5.985689465268008E-104
   47.3456250000000        -1.252353749131627E-103
   47.5593750000000        -2.058532723593766E-103
   47.7731250000000        -2.730173615003429E-103
   47.9868750000000        -2.658755798273202E-103
   48.2006250000000        -8.374462460143523E-104
   48.4143750000000         4.081694814528393E-103
   48.6281250000000         1.344971991453145E-102
   48.8418750000000         2.782410007616228E-102
   49.0556250000000         4.556658629379455E-102
   49.2693750000000         6.084496885636601E-102
   49.4831250000000         6.140104342016146E-102
   49.6968750000000         2.704944063266046E-102
   49.9106250000000        -6.929690853683662E-102
   50.1243750000000        -2.553923467132451E-101
   50.3381250000000        -5.450104592458898E-101
   50.5518750000000        -9.122594291898010E-101
   50.7656250000000        -1.254973036231359E-100
   50.9793750000000        -1.353349181119125E-100
   51.1931250000000        -8.402035807410472E-101
   51.4068750000000         7.868702048911700E-101
   51.6206250000000         4.066358052424958E-100
   51.8343750000000         9.332706621630530E-100
   52.0481250000000         1.628982088826389E-099
   52.2618750000000         2.339510879191144E-099
   52.4756250000000         2.714497589980344E-099
   52.6893750000000         2.151053764204088E-099
   52.9031250000000        -2.011949651596485E-100
   53.1168750000000        -5.303993855499339E-099
   53.3306250000000        -1.387874051369815E-098
   53.5443750000000        -2.576470579984495E-098
   53.7581250000000        -3.897111297072464E-098
   53.9718750000000        -4.853924977216605E-098
   54.1856250000000        -4.555480493816227E-098
   54.3993750000000        -1.695943888605440E-098
   54.6131250000000         5.285132685555745E-098
   54.8268750000000         1.774196384538252E-097
   55.0406250000000         3.594687543609422E-097
   55.2543750000000         5.775811735612400E-097
   55.4681250000000         7.695900990544274E-097
   55.6818750000000         8.168828411779355E-097
   55.8956250000000         5.378990045925361E-097
   56.1093750000000        -2.963079736583792E-097
   56.3231250000000        -1.908077128492077E-096
   56.5368750000000        -4.404668332767757E-096
   56.7506250000000        -7.607233851929518E-096
   56.9643750000000        -1.082903838659589E-095
   57.1781250000000        -1.264978784363666E-095
   57.3918750000000        -1.078289172886338E-095
   57.6056250000000        -2.190168172119092E-096
   57.8193750000000         1.635393535992892E-095
   58.0331250000000         4.704024975325521E-095
   58.2468750000000         8.901546068133283E-095
   58.4606250000000         1.356698460911274E-094
   58.6743750000000         1.716955781774676E-094
   58.8881250000000         1.709557467445611E-094
   59.1018750000000         9.687768719966688E-095
   59.3156250000000        -9.232145335547382E-095
   59.5293750000000        -4.310839220731682E-094
   59.7431250000000        -9.248376695126654E-094
   59.9568750000000        -1.519522730134345E-093
   60.1706250000000        -2.066644199727164E-093
   60.3843750000000        -2.294160372505394E-093
   60.5981250000000        -1.800831148665974E-093
   60.8118750000000        -9.850294826711810E-095
   61.0256250000000         3.270080853453178E-093
   61.2393750000000         8.515721460568960E-093
   61.4531250000000         1.528667339504513E-092
   61.6668750000000         2.228766080705530E-092
   61.8806250000000         2.692866850819943E-092
   62.0943750000000         2.517248317392181E-092
   62.3081250000000         1.182324335650310E-092
   62.5218750000000        -1.845997361080142E-092
   62.7356250000000        -6.917520334008075E-092
   62.9493750000000        -1.389312784196537E-091
   63.1631250000000        -2.176047791624634E-091
   63.3768750000000        -2.825093859695465E-091
   63.5906250000000        -2.960963388420543E-091
   63.8043750000000        -2.074377213831799E-091
   64.0181250000000         3.976746937833922E-092
   64.2318750000000         4.900848425075779E-091
   64.4456250000000         1.148860289197159E-090
   64.6593750000000         1.946014493853539E-090
   64.8731250000000         2.697572130702645E-090
   65.0868750000000         3.077793678638611E-090
   65.3006250000000         2.621693277497829E-090
   65.5143750000000         7.829083657391605E-091
   65.7281250000000        -2.928115353093829E-090
   65.9418750000000        -8.710203224473546E-090
   66.1556250000000        -1.614980754044793E-089
   66.3693750000000        -2.385965079432317E-089
   66.5831250000000        -2.918083650933926E-089
   66.7968750000000        -2.811365944395965E-089
   67.0106250000000        -1.569357266773802E-089
   67.2243750000000         1.295899237402694E-089
   67.4381250000000         6.074956791190424E-089
   67.6518750000000         1.258929397743478E-088
   67.8656250000000         1.986977009413561E-088
   68.0793750000000         2.586348432375798E-088
   68.2931250000000         2.730060754440718E-088
   68.5068750000000         1.990066704710170E-088
   68.7206250000000        -8.816548019984120E-090
   68.9343750000000        -3.840735435312866E-088
   69.1481250000000        -9.266186208400076E-088
   69.3618750000000        -1.575223365865259E-087
   69.5756250000000        -2.180413800870513E-087
   69.7893750000000        -2.487442916048158E-087
   70.0031250000000        -2.143643815935921E-087
   70.2168750000000        -7.469347614147782E-088
   70.4306250000000         2.049250041866337E-087
   70.6443750000000         6.367459898226225E-087
   70.8581250000000         1.188404757954347E-086
   71.0718750000000         1.759000975451088E-086
   71.2856250000000         2.160622200296668E-086
   71.4993750000000         2.116083609867714E-086
   71.7131250000000         1.286327338899841E-086
   71.9268750000000        -6.590584479622391E-087
   72.1406250000000        -3.919402105853000E-086
   72.3543750000000        -8.391074658310635E-086
   72.5681250000000        -1.346767893037025E-085
   72.7818750000000        -1.785984984054321E-085
   72.9956250000000        -1.951164992128114E-085
   73.2093750000000        -1.571584780868815E-085
   73.4231250000000        -3.539837589748192E-086
   73.6368750000000         1.934740490843447E-085
   73.8506250000000         5.342477901860350E-085
   74.0643750000000         9.574823229449937E-085
   74.2781250000000         1.383473384278796E-084
   74.4918750000000         1.671012673227719E-084
   74.7056250000000         1.618249352785402E-084
   74.9193750000000         9.843297600420567E-085
   75.1331250000000        -4.600045365364934E-085
   75.3468750000000        -2.848224592536576E-084
   75.5606250000000        -6.103217051407060E-084
   75.7743750000000        -9.807015089437278E-084
   75.9881250000000        -1.308613530011320E-083
   76.2018750000000        -1.456089226860609E-083
   76.4156250000000        -1.242109275896256E-083
   76.6293750000000        -4.694480782647034E-084
   76.8431250000000         1.024011304400039E-083
   77.0568750000000         3.288403189792032E-083
   77.2706250000000         6.165682932207171E-083
   77.4843750000000         9.190807795450932E-083
   77.6981250000000         1.151947292993080E-082
   77.9118750000000         1.192355407234874E-082
   78.1256250000000         8.902801535565583E-083
   78.3393750000000         9.587287432387269E-084
   78.5531250000000        -1.294192806828837E-082
   78.7668750000000        -3.272639332713970E-082
   78.9806250000000        -5.647249473295591E-082
   79.1943750000000        -7.971946553167455E-082
   79.4081250000000        -9.507870541462091E-082
   79.6218750000000        -9.246439609089892E-082
   79.8356250000000        -6.029070036910042E-082
   80.0493750000000         1.207727325423424E-082
   80.2631250000000         1.305161386771224E-081
   80.4768750000000         2.912138738866683E-081
   80.6906250000000         4.753353367656060E-081
   80.9043750000000         6.445905111070090E-081
   81.1181250000000         7.395950767332716E-081
   81.3318750000000         6.833159447824476E-081
   81.5456250000000         3.918855870065621E-081
   81.7593750000000        -2.056097504590462E-081
   81.9731250000000        -1.138336387408600E-080
   82.1868750000000        -2.358456586815096E-080
   82.4006250000000        -3.705408398963781E-080
   82.6143750000000        -4.879616934500797E-080
   82.8281250000000        -5.439022958502281E-080
   83.0418750000000        -4.833657627677299E-080
   83.2556250000000        -2.492155920745272E-080
   83.4693750000000         2.031971171664450E-080
   83.6831250000000         8.858451275382940E-080
   83.8968750000000         1.754494764234319E-079
   84.1106250000000         2.686326620185388E-079
   84.3243750000000         3.465587029579205E-079
   84.5381250000000         3.786055347972198E-079
   84.7518750000000         3.279723898052896E-079
   84.9656250000000         1.579477457319936E-079
   85.1793750000000        -1.581128096132050E-079
   85.3931250000000        -6.236157367114066E-079
   85.6068750000000        -1.204049077477138E-078
   85.8206250000000        -1.813859566953002E-078
   86.0343750000000        -2.309305026562005E-078
   86.2481250000000        -2.492633083648777E-078
   86.4618750000000        -2.132966245666390E-078
   86.6756250000000        -1.007881646725839E-078
   86.8893750000000         1.033560792830009E-078
   87.1031250000000         3.990827776747757E-078
   87.3168750000000         7.626406501359159E-078
   87.5306250000000         1.139401403356678E-077
   87.7443750000000         1.440675512251924E-077
   87.9581250000000         1.547541327950947E-077
   88.1718750000000         1.324527903790733E-077
   88.3856250000000         6.449796798941028E-078
   88.5993750000000        -5.720958075555449E-078
   88.8131250000000        -2.316947989945435E-077
   89.0268750000000        -4.442846805720392E-077
   89.2406250000000        -6.629778343432746E-077
   89.4543750000000        -8.372425151711163E-077
   89.6681250000000        -9.008073345521174E-077
   89.8818750000000        -7.798062321590548E-077
   90.0956250000000        -4.069883475848024E-077
   90.3093750000000         2.584559542624085E-077
   90.5231250000000         1.207529013705345E-076
   90.7368750000000         2.358510494149475E-076
   90.9506250000000         3.540341700194057E-076
   91.1643750000000         4.489462897604687E-076
   91.3781250000000         4.867408998052808E-076
   91.5918750000000         4.304875877004936E-076
   91.8056250000000         2.474199584191013E-076
   92.0193750000000        -8.138379972021767E-077
   92.2331250000000        -5.500795124668930E-076
   92.4468750000000        -1.117937134007528E-075
   92.6606250000000        -1.702800105429979E-075
   92.8743750000000        -2.181284665359315E-075
   93.0881250000000        -2.398654988012559E-075
   93.3018750000000        -2.190262104337907E-075
   93.5156250000000        -1.414463259557644E-075
   93.7293750000000         5.862852629950266E-078
   93.9431250000000         2.039370286878163E-075
   94.1568750000000         4.509165002040084E-075
   94.3706250000000         7.073997340609294E-075
   94.5843750000000         9.239255677634900E-075
   94.7981250000000         1.040654701125859E-074
   95.0118750000000         9.964573552299923E-075
   95.2256250000000         7.414834822539024E-075
   95.4393750000000         2.514593337351051E-075
   95.6531250000000        -4.591212861092726E-075
   95.8668750000000        -1.328470163086173E-074
   96.0806250000000        -2.247226930356002E-074
   96.2943750000000        -3.069032411547242E-074
   96.5081250000000        -3.632419130757197E-074
   96.7218750000000        -3.791336192374424E-074
   96.9356250000000        -3.447987229772056E-074
   97.1493750000000        -2.578469259283501E-074
   97.3631250000000        -1.240226358528799E-074
   97.5768750000000         4.480526766561572E-075
   97.7906250000000         2.357668935986089E-074
   98.0043750000000         4.425580530232318E-074
   98.2181250000000         6.734068821251094E-074
   98.4318750000000         9.559547389300999E-074
   98.6456250000000         1.334516421082511E-073
   98.8593750000000         1.855133640581191E-073
   99.0731250000000         2.535420712913313E-073
   99.2868750000000         3.319908502098389E-073
   99.5006250000000         4.027511323214624E-073
   99.7143750000000         4.305301033700295E-073
   99.9281250000000         3.610527672651775E-073
   100.141875000000         1.248384887062956E-073
   100.355625000000        -3.506784109061267E-073
   100.569375000000        -1.118773942764249E-072
   100.783125000000        -2.180915954880161E-072
   100.996875000000        -3.447492653452534E-072
   101.210625000000        -4.699499380159772E-072
   101.424375000000        -5.563593689654468E-072
   101.638125000000        -5.516839131586472E-072
   101.851875000000        -3.938953918269928E-072
   102.065625000000        -2.270803100088177E-073
   102.279375000000         6.020750588197154E-072
   102.493125000000         1.476319904423324E-071
   102.706875000000         2.524659679714839E-071
   102.920625000000         3.576852256311612E-071
   103.134375000000         4.355917439514230E-071
   103.348125000000         4.488322006404023E-071
   103.561875000000         3.546409747017749E-071
   103.775625000000         1.130376609017627E-071
   103.989375000000        -3.009428256846216E-071
   104.203125000000        -8.819489375157316E-071
   104.416875000000        -1.578263014664291E-070
   104.630625000000        -2.278823092059133E-070
   104.844375000000        -2.808441584310686E-070
   105.058125000000        -2.937012678193260E-070
   105.271875000000        -2.408005465833501E-070
   105.485625000000        -9.893912916364706E-071
   105.699375000000         1.453968057854176E-070
   105.913125000000         4.873511426416517E-070
   106.126875000000         8.950249906979992E-070
   106.340625000000         1.303027577874632E-069
   106.554375000000         1.611064153511629E-069
   106.768125000000         1.690562962548520E-069
   106.981875000000         1.401863786653626E-069
   107.195625000000         6.231217445647785E-070
   107.409375000000        -7.102838718225168E-070
   107.623125000000        -2.560310578414138E-069
   107.836875000000        -4.743052308686061E-069
   108.050625000000        -6.899677159680726E-069
   108.264375000000        -8.495872107203433E-069
   108.478125000000        -8.864269088115467E-069
   108.691875000000        -7.300865097293238E-069
   108.905625000000        -3.218518570487223E-069
   109.119375000000         3.652017928112732E-069
   109.333125000000         1.303953959079975E-068
   109.546875000000         2.393241747224731E-068
   109.760625000000         3.446134746544579E-068
   109.974375000000         4.193390887323508E-068
   110.188125000000         4.308625768836297E-068
   110.401875000000         3.459558330873587E-068
   110.615625000000         1.385405308904274E-068
   110.829375000000        -2.005873554650653E-068
   111.043125000000        -6.534653306548482E-068
   111.256875000000        -1.166337871509805E-067
   111.470625000000        -1.645586423696706E-067
   111.684375000000        -1.961368642500367E-067
   111.898125000000        -1.961734687469864E-067
   112.111875000000        -1.498745439821359E-067
   112.325625000000        -4.659166387203158E-068
   112.539375000000         1.156757920660420E-067
   112.753125000000         3.257549721022149E-067
   112.966875000000         5.558346606607908E-067
   113.180625000000         7.603945360473367E-067
   113.394375000000         8.789034944119479E-067
   113.608125000000         8.433891302900298E-067
   113.821875000000         5.913136869267190E-067
   114.035625000000         8.311042447883133E-068
   114.249375000000        -6.776911226645828E-067
   114.463125000000        -1.625405742159597E-066
   114.676875000000        -2.619284405462922E-066
   114.890625000000        -3.442705094672437E-066
   115.104375000000        -3.820235065461089E-066
   115.318125000000        -3.456690752166912E-066
   115.531875000000        -2.098927026991395E-066
   115.745625000000         3.840382635424204E-067
   115.959375000000         3.913375131970145E-066
   116.173125000000         8.122835297061509E-066
   116.386875000000         1.231439091939214E-065
   116.600625000000         1.547297385167484E-065
   116.814375000000         1.636385772576926E-065
   117.028125000000         1.372724484932456E-065
   117.241875000000         6.568092244676511E-066
   117.455625000000        -5.484347697508958E-066
   117.669375000000        -2.180097155618555E-065
   117.883125000000        -4.044315418679861E-065
   118.096875000000        -5.802243549742267E-065
   118.310625000000        -6.983991643044323E-065
   118.524375000000        -7.039969334428065E-065
   118.738125000000        -5.434524683837715E-065
   118.951875000000        -1.779040820475090E-065
   119.165625000000         4.008878799848145E-065
   119.379375000000         1.154562917639007E-064
   119.593125000000         1.985831935430412E-064
   119.806875000000         2.734322748420338E-064
   120.020625000000         3.185252186252227E-064
   120.234375000000         3.094686288486666E-064
   120.448125000000         2.232995548264610E-064
   120.661875000000         4.446342611880945E-065
   120.875625000000        -2.282210942352981E-064
   121.089375000000        -5.747683636662189E-064
   121.303125000000        -9.490344999319395E-064
   121.516875000000        -1.277469384939947E-063
   121.730625000000        -1.463556742845714E-063
   121.944375000000        -1.399452597690439E-063
   122.158125000000        -9.853680118237879E-064
   122.371875000000        -1.557364844334476E-064
   122.585625000000         1.090734841204345E-063
   122.799375000000         2.662160228216010E-063
   123.013125000000         4.352669227806086E-063
   123.226875000000         5.837852249491700E-063
   123.440625000000         6.694516266253656E-063
   123.654375000000         6.450893533444918E-063
   123.868125000000         4.669364378909897E-063