  -1.60312500000000         0.000000000000000E+000
  -1.38937500000000         0.000000000000000E+000
  -1.17562500000000         0.000000000000000E+000
 -0.961875000000000         0.000000000000000E+000
 -0.748125000000000         0.000000000000000E+000
 -0.534375000000000         0.000000000000000E+000
 -0.320625000000000         0.000000000000000E+000
 -0.106875000000000         0.000000000000000E+000
  0.106875000000000         0.000000000000000E+000
  0.320625000000000         0.000000000000000E+000
  0.534375000000000         0.000000000000000E+000
  0.748125000000000         0.000000000000000E+000
  0.961875000000000         0.000000000000000E+000
   1.17562500000000         0.000000000000000E+000
   1.38937500000000         0.000000000000000E+000
   1.60312500000000         0.000000000000000E+000
   1.81687500000000         0.000000000000000E+000
   2.03062500000000         0.000000000000000E+000
   2.24437500000000         0.000000000000000E+000
   2.45812500000000         0.000000000000000E+000
   2.67187500000000         0.000000000000000E+000
   2.88562500000000         0.000000000000000E+000
   3.09937500000000         0.000000000000000E+000
   3.31312500000000         0.000000000000000E+000
   3.52687500000000         0.000000000000000E+000
   3.74062500000000         0.000000000000000E+000
   3.95437500000000         0.000000000000000E+000
   4.16812500000000         0.000000000000000E+000
   4.38187500000000         0.000000000000000E+000
   4.59562500000000         0.000000000000000E+000
   4.80937500000000         0.000000000000000E+000
   5.02312500000000         0.000000000000000E+000
   5.23687500000000         0.000000000000000E+000
   5.45062500000000         0.000000000000000E+000
   5.66437500000000         0.000000000000000E+000
   5.87812500000000         0.000000000000000E+000
   6.09187500000000         0.000000000000000E+000
   6.30562500000000         0.000000000000000E+000
   6.51937500000000         0.000000000000000E+000
   6.73312500000000         0.000000000000000E+000
   6.94687500000000         0.000000000000000E+000
   7.16062500000000         0.000000000000000E+000
   7.37437500000000         0.000000000000000E+000
   7.58812500000000         0.000000000000000E+000
   7.80187500000000         0.000000000000000E+000
   8.01562500000000         0.000000000000000E+000
   8.22937500000000         0.000000000000000E+000
   8.44312500000000         0.000000000000000E+000
   8.65687500000000         0.000000000000000E+000
   8.87062500000000         0.000000000000000E+000
   9.08437500000000         0.000000000000000E+000
   9.29812500000000         1.643635687552582E-187
   9.51187500000000         3.785542756062562E-181
   9.72562500000000        -2.539667366670304E-178
   9.93937500000000        -5.833578495486235E-176
   10.1531250000000         2.276171358791714E-174
   10.3668750000000        -6.938887199223458E-172
   10.5806250000000        -7.152631928330117E-170
   10.7943750000000        -2.574381717749941E-168
   11.0081250000000        -5.121503580014952E-167
   11.2218750000000        -6.451972517274134E-166
   11.4356250000000        -5.322102890147292E-165
   11.6493750000000        -2.694669534963132E-164
   11.8631250000000        -3.636404447673243E-164
   12.0768750000000         1.351987274088145E-162
   12.2906250000000         3.636313749072636E-161
   12.5043750000000         6.968568610923039E-160
   12.7181250000000        -4.485147315706331E-158
   12.9318750000000        -2.783344768280704E-156
   13.1456250000000        -7.476467638453196E-155
   13.3593750000000        -1.304837756785633E-153
   13.5731250000000        -1.689052357867629E-152
   13.7868750000000        -1.736946104346983E-151
   14.0006250000000        -1.481004634797071E-150
   14.2143750000000        -1.077962613923510E-149
   14.4281250000000        -6.837140910120174E-149
   14.6418750000000        -3.833678499046307E-148
   14.8556250000000        -1.917653881807327E-147
   15.0693750000000        -8.588586654412127E-147
   15.2831250000000        -3.432693746124431E-146
   15.4968750000000        -1.206282727998750E-145
   15.7106250000000        -3.577277842232630E-145
   15.9243750000000        -7.857831312100136E-145
   16.1381250000000        -4.441321073813186E-145
   16.3518750000000         7.638329127324645E-144
   16.5656250000000         5.707101795876012E-143
   16.7793750000000         2.789328200315758E-142
   16.9931250000000         1.102926905154066E-141
   17.2068750000000         3.684027992581690E-141
   17.4206250000000         1.021666634428592E-140
   17.6343750000000         2.092822797559053E-140
   17.8481250000000         1.155613584052382E-140
   18.0618750000000        -1.738677889376863E-139
   18.2756250000000        -1.243301313907108E-138
   18.4893750000000        -5.910416168288200E-138
   18.7031250000000        -2.345795854041619E-137
   18.9168750000000        -8.291121439106214E-137
   19.1306250000000        -2.682176247882984E-136
   19.3443750000000        -8.052457487877761E-136
   19.5581250000000        -2.260327604785119E-135
   19.7718750000000        -5.954390756654292E-135
   19.9856250000000        -1.473619981180566E-134
   20.1993750000000        -3.421342344436475E-134
   20.4131250000000        -7.418929205278334E-134
   20.6268750000000        -1.488902940775632E-133
   20.8406250000000        -2.716198098518963E-133
   21.0543750000000        -4.331446104079989E-133
   21.2681250000000        -5.413938981661668E-133
   21.4818750000000        -2.815300975943302E-133
   21.6956250000000         1.167803101361119E-132
   21.9093750000000         5.643173785408824E-132
   22.1231250000000         1.679324511575344E-131
   22.3368750000000         4.112005980993441E-131
   22.5506250000000         8.894475269605087E-131
   22.7643750000000         1.744548116942751E-130
   22.9781250000000         3.132295328007309E-130
   23.1918750000000         5.149019284393219E-130
   23.4056250000000         7.686153394596892E-130
   23.6193750000000         1.020859181996864E-129
   23.8331250000000         1.149900880885521E-129
   24.0468750000000         9.453674044027043E-130
   24.2606250000000         8.998204468497591E-131
   24.4743750000000        -1.933360382769539E-129
   24.6881250000000        -6.329070549177670E-129
   24.9018750000000        -1.680262509777043E-128
   25.1156250000000        -4.489433893157064E-128
   25.3293750000000        -1.231215443006860E-127
   25.5431250000000        -3.325932742499633E-127
   25.7568750000000        -8.515255757268824E-127
   25.9706250000000        -2.019705395941288E-126
   26.1843750000000        -4.371756668022880E-126
   26.3981250000000        -8.481635965657947E-126
   26.6118750000000        -1.422519849437525E-125
   26.8256250000000        -1.865065032298910E-125
   27.0393750000000        -1.107216670137203E-125
   27.2531250000000         3.642059642082894E-125
   27.4668750000000         1.840988626051535E-124
   27.6806250000000         5.421040039213467E-124
   27.8943750000000         1.274453875381153E-123
   28.1081250000000         2.545513556953800E-123
   28.3218750000000         4.313259578173094E-123
   28.5356250000000         5.798053829500785E-123
   28.7493750000000         4.383562929261990E-123
   28.9631250000000        -6.265531000488931E-123
   29.1768750000000        -3.872486036620639E-122
   29.3906250000000        -1.136925388986653E-121
   29.6043750000000        -2.573644702931599E-121
   29.8181250000000        -4.856511234191649E-121
   30.0318750000000        -7.595000214490089E-121
   30.2456250000000        -8.884109184649865E-121
   30.4593750000000        -3.596752353152078E-121
   30.6731250000000         1.902994244562967E-120
   30.8868750000000         7.762368530653143E-120
   31.1006250000000         1.978854939582289E-119
   31.3143750000000         4.023912334665239E-119
   31.5281250000000         6.794133982978062E-119
   31.7418750000000         9.139527852151835E-119
   31.9556250000000         7.641086381094372E-119
   32.1693750000000        -5.172435522152745E-119
   32.3831250000000        -4.260879329064407E-118
   32.5968750000000        -1.238334376564766E-117
   32.8106250000000        -2.681952979268255E-117
   33.0243750000000        -4.768484726407353E-117
   33.2381250000000        -6.916737798200003E-117
   33.4518750000000        -7.216174373359055E-117
   33.6656250000000        -1.361649973615730E-117
   33.8793750000000         1.844462952006124E-116
   34.0931250000000         6.368443712661677E-116
   34.3068750000000         1.467629621378941E-115
   34.5206250000000         2.717467752320865E-115
   34.7343750000000         4.136910746856273E-115
   34.9481250000000         4.819152882920858E-115
   35.1618750000000         2.674307116237088E-115
   35.3756250000000        -6.111807750438821E-115
   35.5893750000000        -2.720115394779536E-114
   35.8031250000000        -6.689907840326729E-114
   36.0168750000000        -1.280976814717969E-113
   36.2306250000000        -2.013470949180228E-113
   36.4443750000000        -2.492874397284857E-113
   36.6581250000000        -1.848407669284538E-113
   36.8718750000000         1.506366949789182E-113
   37.0856250000000         9.917277392388032E-113
   37.2993750000000         2.600700695875498E-112
   37.5131250000000         5.110296020387338E-112
   37.7268750000000         8.186948632241577E-112
   37.9406250000000         1.045971996562238E-111
   38.1543750000000         8.746195821521161E-112
   38.3681250000000        -2.682936679872574E-112
   38.5818750000000        -3.217243621254457E-111
   38.7956250000000        -8.888873122423127E-111
   39.0093750000000        -1.773442557111491E-110
   39.2231250000000        -2.861123815422428E-110
   39.4368750000000        -3.693683001433926E-110
   39.6506250000000        -3.229268736642662E-110
   39.8643750000000         3.675096140755509E-111
   40.0781250000000         9.703865986264658E-110
   40.2918750000000         2.754250619387417E-109
   40.5056250000000         5.506887605621539E-109
   40.7193750000000         8.848093436892121E-109
   40.9331250000000         1.136386826230406E-108
   41.1468750000000         9.946789318777648E-109
   41.3606250000000        -7.211960719288395E-110
   41.5743750000000        -2.795670614279138E-108
   41.7881250000000        -7.913768845809372E-108
   42.0018750000000        -1.566925484416877E-107
   42.2156250000000        -2.487004153720014E-107
   42.4293750000000        -3.147718191568847E-107
   42.6431250000000        -2.695871894071937E-107
   42.8568750000000         2.833082446635825E-108
   43.0706250000000         7.671080949316959E-107
   43.2843750000000         2.126344970720617E-106
   43.4981250000000         4.144469058142046E-106
   43.7118750000000         6.480764213710102E-106
   43.9256250000000         8.072308452818652E-106
   44.1393750000000         6.755098413277630E-106
   44.3531250000000        -9.567753402162624E-107
   44.5668750000000        -1.956018874678772E-105
   44.7806250000000        -5.314750748674889E-105
   44.9943750000000        -1.021949225189929E-104
   45.2081250000000        -1.580130620311896E-104
   45.4218750000000        -1.950218594591779E-104
   45.6356250000000        -1.626036848556461E-104
   45.8493750000000         1.898280364991745E-105
   46.0631250000000         4.503923148473633E-104
   46.2768750000000         1.220564490281994E-103
   46.4906250000000         2.335724824353503E-103
   46.7043750000000         3.600188819853323E-103
   46.9181250000000         4.454794091525964E-103
   47.1318750000000         3.812080431588706E-103
   47.3456250000000        -1.795035268714567E-105
   47.5593750000000        -9.145419922942282E-103
   47.7731250000000        -2.542491800753445E-102
   47.9868750000000        -4.902461786376316E-102
   48.2006250000000        -7.607136864145502E-102
   48.4143750000000        -9.551468617271982E-102
   48.6281250000000        -8.598572999809283E-102
   48.8418750000000        -1.443325011831266E-102
   49.0556250000000         1.603971818041713E-101
   49.2693750000000         4.753805483276388E-101
   49.4831250000000         9.367422507838834E-101
   49.6968750000000         1.477326511368689E-100
   49.9106250000000         1.900222395794329E-100
   50.1243750000000         1.822541913990915E-100
   50.3381250000000         6.501232414946985E-101
   50.5518750000000        -2.364957621473436E-100
   50.7656250000000        -7.913282129902754E-100
   50.9793750000000        -1.618865265138777E-099
   51.1931250000000        -2.617651325627002E-099
   51.4068750000000        -3.471729348885623E-099
   51.6206250000000        -3.556560948899555E-099
   51.8343750000000        -1.892978452177108E-099
   52.0481250000000         2.770269426270963E-099
   52.2618750000000         1.163679260624919E-098
   52.4756250000000         2.519216498274756E-098
   52.6893750000000         4.211647426237886E-098
   52.9031250000000         5.784776069659433E-098
   53.1168750000000         6.311673751521197E-098
   53.3306250000000         4.315007301332829E-098
   53.5443750000000        -2.130765251450992E-098
   53.7581250000000        -1.496138279459779E-097
   53.9718750000000        -3.518849389196672E-097
   54.1856250000000        -6.137316559301753E-097
   54.3993750000000        -8.759269169337384E-097
   54.6131250000000        -1.013232220500431E-096
   54.8268750000000        -8.215862298543718E-097
   55.0406250000000        -2.878809829861752E-098
   55.2543750000000         1.651119935413586E-096
   55.4681250000000         4.398644444410816E-096
   55.6818750000000         8.091687217808427E-096
   55.8956250000000         1.203981485323182E-095
   56.1093750000000         1.470083352260105E-095
   56.3231250000000         1.349148376628748E-095
   56.5368750000000         4.876286898846124E-096
   56.7506250000000        -1.501945350684855E-095
   56.9643750000000        -4.901327837069761E-095
   57.1781250000000        -9.651708865763169E-095
   57.3918750000000        -1.503247767312308E-094
   57.6056250000000        -1.930978510283923E-094
   57.8193750000000        -1.948040852148175E-094
   58.0331250000000        -1.131849756015340E-094
   58.2468750000000         9.996143454240044E-095
   58.4606250000000         4.837137128678308E-094
   58.6743750000000         1.042143600388727E-093
   58.8881250000000         1.708303048166165E-093
   59.1018750000000         2.303796043661866E-093
   59.3156250000000         2.507007276907120E-093
   59.5293750000000         1.851790698394688E-093
   59.7431250000000        -2.139142787788400E-094
   59.9568750000000        -4.177726371833319E-093
   60.1706250000000        -1.019781964227606E-092
   60.3843750000000        -1.772716266315265E-092
   60.5981250000000        -2.508076005972728E-092
   60.8118750000000        -2.907285784373950E-092
   61.0256250000000        -2.493835446327179E-092
   61.2393750000000        -6.830584873515025E-093
   61.4531250000000         3.078437043784673E-092
   61.6668750000000         9.059489339378151E-092
   61.8806250000000         1.687775893358227E-091
   62.0943750000000         2.506674158825867E-091
   62.3081250000000         3.069199656225235E-091
   62.5218750000000         2.921455290226522E-091
   62.7356250000000         1.487446172613776E-091
   62.9493750000000        -1.810146955068578E-091
   63.1631250000000        -7.322710587699599E-091
   63.3768750000000        -1.483929498965001E-090
   63.5906250000000        -2.317930193914885E-090
   63.8043750000000        -2.981337352215464E-090
   64.0181250000000        -3.068541843259027E-090
   64.2318750000000        -2.047744197842179E-090
   64.4456250000000         6.408760908836022E-091
   64.6593750000000         5.392613648624533E-090
   64.8731250000000         1.214611460937665E-089
   65.0868750000000         2.002062195941611E-089
   65.3006250000000         2.696294950873438E-089
   65.5143750000000         2.954771442661935E-089
   65.7281250000000         2.313470031329052E-089
   65.9418750000000         2.619313557317847E-090
   66.1556250000000        -3.601941666886507E-089
   66.3693750000000        -9.330379683853575E-089
   66.5831250000000        -1.631770842882276E-088
   66.7968750000000        -2.298746035544660E-088
   67.0106250000000        -2.658819291439688E-088
   67.2243750000000        -2.326264071601179E-088
   67.4381250000000        -8.585345350931670E-089
   67.6518750000000         2.125389899255150E-088
   67.8656250000000         6.754133933468872E-088
   68.0793750000000         1.265309537099235E-087
   68.2931250000000         1.867833188756815E-087
   68.5068750000000         2.272085819462179E-087
   68.7206250000000         2.170888878034579E-087
   68.9343750000000         1.196358019264128E-087
   69.1481250000000        -9.942940100686057E-088
   69.3618750000000        -4.574452951635294E-087
   69.5756250000000        -9.351748380952538E-087
   69.7893750000000        -1.454988154031747E-086
   70.0031250000000        -1.863010799165057E-086
   70.2168750000000        -1.924705902612204E-086
   70.4306250000000        -1.345842097110063E-086
   70.6443750000000         1.690736010132478E-087
   70.8581250000000         2.812874648439425E-086
   71.0718750000000         6.528261423361758E-086
   71.2856250000000         1.083550321594899E-085
   71.4993750000000         1.467689663259936E-085
   71.7131250000000         1.634501541042902E-085
   71.9268750000000         1.358292270658970E-085
   72.1406250000000         3.950820029480160E-086
   72.3543750000000        -1.446802734277704E-085
   72.5681250000000        -4.201189113940351E-085
   72.7818750000000        -7.613769812066307E-085
   72.9956250000000        -1.101322170506295E-084
   73.2093750000000        -1.322859661920946E-084
   73.4231250000000        -1.261497291813958E-084
   73.6368750000000        -7.257982006766720E-085
   73.8506250000000         4.581035244195554E-085
   74.0643750000000         2.375334977020742E-084
   74.2781250000000         4.928887358318879E-084
   74.4918750000000         7.738951298140335E-084
   74.7056250000000         1.006301699140327E-083
   74.9193750000000         1.077785408903018E-083
   75.1331250000000         8.473304884798400E-084
   75.3468750000000         1.706536938380998E-084
   75.5606250000000        -1.055257409209680E-083
   75.7743750000000        -2.829461913324865E-083
   75.9881250000000        -4.973718761405870E-083
   76.2018750000000        -7.064546074912345E-083
   76.4156250000000        -8.396098512821238E-083
   76.6293750000000        -8.006906123107448E-083
   76.8431250000000        -4.805872276334726E-083
   77.0568750000000         2.174275772172701E-083
   77.2706250000000         1.338877035709549E-082
   77.4843750000000         2.828762278148342E-082
   77.6981250000000         4.479981422870143E-082
   77.9118750000000         5.893901519501178E-082
   78.1256250000000         6.473311452398277E-082
   78.3393750000000         5.471401797085075E-082
   78.5531250000000         2.118846040506993E-082
   78.7668750000000        -4.158239168986048E-082
   78.9806250000000        -1.343583295161839E-081
   79.1943750000000        -2.494094909169633E-081
   79.4081250000000        -3.672547491136206E-081
   79.6218750000000        -4.547794359185686E-081
   79.8356250000000        -4.661719608631397E-081
   80.0493750000000        -3.481967899892377E-081
   80.2631250000000        -5.100150127788113E-082
   80.4768750000000         4.552130105359087E-081
   80.6906250000000         1.158830319400054E-080
   80.9043750000000         1.984015882854440E-080
   81.1181250000000         2.772136166484054E-080
   81.3318750000000         3.275306816627897E-080
   81.5456250000000         3.171315666994683E-080
   81.7593750000000         2.108678095012594E-080
   81.9731250000000        -2.126721264644724E-081
   82.1868750000000        -3.926277069467491E-080
   82.4006250000000        -8.861180415662522E-080
   82.6143750000000        -1.440575879904228E-079
   82.8281250000000        -1.941192479049849E-079
   83.0418750000000        -2.218952229980376E-079
   83.2556250000000        -2.064476902887653E-079
   83.4693750000000        -1.260825857190783E-079
   83.6831250000000         3.627309095203627E-080
   83.8968750000000         2.858439257993469E-079
   84.1106250000000         6.078069077457579E-079
   84.3243750000000         9.597421455857219E-079
   84.5381250000000         1.267074700880075E-078
   84.7518750000000         1.424341831226518E-078
   84.9656250000000         1.305138012853757E-078
   85.1793750000000         7.828801613800083E-079
   85.3931250000000        -2.370959131242074E-079
   85.6068750000000        -1.776203180134039E-078
   85.8206250000000        -3.737542677880844E-078
   86.0343750000000        -5.866382198965164E-078
   86.2481250000000        -7.728782653530048E-078
   86.4618750000000        -8.722869793765355E-078
   86.6756250000000        -8.136528641438134E-078
   86.8893750000000        -5.260911873895466E-078
   87.1031250000000         4.395451865395981E-079
   87.3168750000000         9.112821097698879E-078
   87.5306250000000         2.028891343409287E-077
   87.7443750000000         3.267824702740736E-077
   87.9581250000000         4.405770707115646E-077
   88.1718750000000         5.131001811964374E-077
   88.3856250000000         5.067772685529984E-077
   88.5993750000000         3.827376844934497E-077
   88.8131250000000         1.085500620580241E-077
   89.0268750000000        -3.318535880234702E-077
   89.2406250000000        -9.271114814482539E-077
   89.4543750000000        -1.627893775789736E-076
   89.6681250000000        -2.339100000969018E-076
   89.8818750000000        -2.917338247003129E-076
   90.0956250000000        -3.176274874480986E-076
   90.3093750000000        -2.902128042560810E-076
   90.5231250000000        -1.880886257290619E-076
   90.7368750000000         6.221781220409200E-078
   90.9506250000000         3.011832747864231E-076
   91.1643750000000         6.902799241216405E-076
   91.3781250000000         1.145640948243385E-075
   91.5918750000000         1.612020360377544E-075
   91.8056250000000         2.002263124762055E-075
   92.0193750000000         2.195874439032445E-075
   92.2331250000000         2.042886218497900E-075
   92.4468750000000         1.375797784640987E-075
   92.6606250000000         3.275473088835000E-077
   92.8743750000000        -2.105024644080795E-075
   93.0881250000000        -5.059751306680427E-075
   93.3018750000000        -8.688462997602936E-075
   93.5156250000000        -1.260520278615038E-074
   93.7293750000000        -1.610714326458416E-074
   93.9431250000000        -1.812708744473772E-074
   94.1568750000000        -1.724469401104599E-074
   94.3706250000000        -1.179673752827714E-074
   94.5843750000000        -1.287446741813097E-076
   94.7981250000000         1.897864959640792E-074
   95.0118750000000         4.570071857445430E-074
   95.2256250000000         7.841526899124080E-074
   95.4393750000000         1.129109690730311E-073
   95.6531250000000         1.417482387051484E-073
   95.8668750000000         1.540520983270599E-073
   96.0806250000000         1.360855448769335E-073
   96.2943750000000         7.296888589567522E-074
   96.5081250000000        -4.816451516266944E-074
   96.7218750000000        -2.334913635856564E-073
   96.9356250000000        -4.765788968815064E-073
   97.1493750000000        -7.520208972924662E-073
   97.3631250000000        -1.010058189572910E-072
   97.5768750000000        -1.174249100958303E-072
   97.7906250000000        -1.144725682435732E-072
   98.0043750000000        -8.096437659267013E-073
   98.2181250000000        -6.684551522226036E-074
   98.4318750000000         1.143739950831753E-072
   98.6456250000000         2.798970107061748E-072
   98.8593750000000         4.748173587951383E-072
   99.0731250000000         6.675335775155595E-072
   99.2868750000000         8.081520189842172E-072
   99.5006250000000         8.304059773918724E-072
   99.7143750000000         6.589142443232566E-072
   99.9281250000000         2.230209467262544E-072
   100.141875000000        -5.225277370885225E-072
   100.355625000000        -1.571431114813624E-071
   100.569375000000        -2.837750700265972E-071
   100.783125000000        -4.131945582967356E-071
   100.996875000000        -5.149434873245815E-071
   101.210625000000        -5.481622672632633E-071
   101.424375000000        -4.659166629425384E-071
   101.638125000000        -2.234552454561107E-071
   101.851875000000         2.094954618013328E-071
   102.065625000000         8.332434421925918E-071
   102.279375000000         1.601552840627506E-070
   102.493125000000         2.407484422236994E-070
   102.706875000000         3.076453380288806E-070
   102.920625000000         3.372089227311283E-070
   103.134375000000         3.020306476837194E-070
   103.348125000000         1.755396374313227E-070
   103.561875000000        -6.114182522952056E-071
   103.775625000000        -4.105751859549910E-070
   103.989375000000        -8.497707165339361E-070
   104.203125000000        -1.322242474807112E-069
   104.416875000000        -1.733923665917976E-069
   104.630625000000        -1.955904733465279E-069
   104.844375000000        -1.836837718636204E-069
   105.058125000000        -1.226994048157736E-069
   105.271875000000        -1.420604449877120E-071
   105.485625000000         1.830763504243911E-069
   105.699375000000         4.205316745870552E-069
   105.913125000000         6.832221594835518E-069
   106.126875000000         9.235888590534981E-069
   106.340625000000         1.075262844451826E-068
   106.554375000000         1.058921248419915E-068
   106.768125000000         7.939891341167929E-069
   106.981875000000         2.163532767234326E-069
   107.195625000000        -6.990378633429942E-069
   107.409375000000        -1.913460644224827E-068
   107.623125000000        -3.302155413089367E-068
   107.836875000000        -4.640686837372082E-068
   108.050625000000        -5.607055906835079E-068
   108.264375000000        -5.806506614540377E-068
   108.478125000000        -4.824151241890900E-068
   108.691875000000        -2.306752284694808E-068
   108.905625000000         1.930802766244765E-068
   109.119375000000         7.786242102619950E-068
   109.333125000000         1.475796382288385E-067
   109.546875000000         2.186798466055999E-067
   109.760625000000         2.765221076638250E-067
   109.974375000000         3.025047536864407E-067
   110.188125000000         2.762187891806077E-067
   110.401875000000         1.789561832140002E-067
   110.615625000000        -1.566619157879518E-069
   110.829375000000        -2.657258726085687E-067
   111.043125000000        -5.965606988573150E-067
   111.256875000000        -9.555479565226549E-067
   111.470625000000        -1.280978827828162E-066
   111.684375000000        -1.490396083517012E-066
   111.898125000000        -1.488341518158941E-066
   112.111875000000        -1.180113543805695E-066
   112.325625000000        -4.913175526663969E-067
   112.539375000000         6.082593104500027E-067
   112.753125000000         2.079388350589106E-066
   112.966875000000         3.791184086238045E-066
   113.180625000000         5.507590074821499E-066
   113.394375000000         6.888845276038593E-066
   113.608125000000         7.513873413237693E-066
   113.821875000000         6.927930278814086E-066
   114.035625000000         4.716775106295602E-066
   114.249375000000         6.041093725694816E-067
   114.463125000000        -5.436674337436777E-066
   114.676875000000        -1.307167744053864E-065
   114.890625000000        -2.151781392716804E-065
   115.104375000000        -2.950188704827739E-065
   115.318125000000        -3.529456775852441E-065
   115.531875000000        -3.684364849145932E-065
   115.745625000000        -3.202272554620468E-065
   115.959375000000        -1.899712486856325E-065
   116.173125000000         3.311457653055292E-066
   116.386875000000         3.470531740123775E-065
   116.600625000000         7.320743737805437E-065
   116.814375000000         1.146721500127904E-064
   117.028125000000         1.526273629836947E-064
   117.241875000000         1.784736265204948E-064
   117.455625000000         1.821543627935466E-064
   117.669375000000         1.533761135290681E-064
   117.883125000000         8.339344545441347E-065
   118.096875000000        -3.272103044217548E-065
   118.310625000000        -1.935218594735667E-064
   118.524375000000        -3.886894499476128E-064
   118.738125000000        -5.970589795009456E-064
   118.951875000000        -7.857706009029624E-064
   119.165625000000        -9.111909333188371E-064
   119.379375000000        -9.222229489823465E-064
   119.593125000000        -7.664601977172788E-064
   119.806875000000        -3.993218114803029E-064
   120.020625000000         2.041876553063401E-064
   120.234375000000         1.036103268261204E-063
   120.448125000000         2.042286212546907E-063
   120.661875000000         3.111934361159207E-063
   120.875625000000         4.073041353849705E-063
   121.089375000000         4.697377752705085E-063
   121.303125000000         4.718386677392771E-063
   121.516875000000         3.864458422054266E-063
   121.730625000000         1.908203712250233E-063
   121.944375000000        -1.270482691145495E-063
   122.158125000000        -5.613485212342162E-063
   122.371875000000        -1.081583382263394E-062
   122.585625000000        -1.627375925154418E-062
   122.799375000000        -2.106710956317311E-062
   123.013125000000        -2.399507202463751E-062
   123.226875000000        -2.368221193353890E-062
   123.440625000000        -1.876562377958794E-062
   123.654375000000        -8.162792781137906E-063
   123.868125000000         8.596405330922431E-063