  -1.60312500000000         0.000000000000000E+000
  -1.38937500000000         0.000000000000000E+000
  -1.17562500000000         0.000000000000000E+000
 -0.961875000000000         0.000000000000000E+000
 -0.748125000000000         0.000000000000000E+000
 -0.534375000000000         0.000000000000000E+000
 -0.320625000000000         0.000000000000000E+000
 -0.106875000000000         0.000000000000000E+000
  0.106875000000000         0.000000000000000E+000
  0.320625000000000         0.000000000000000E+000
  0.534375000000000         0.000000000000000E+000
  0.748125000000000         0.000000000000000E+000
  0.961875000000000         0.000000000000000E+000
   1.17562500000000         0.000000000000000E+000
   1.38937500000000         0.000000000000000E+000
   1.60312500000000         0.000000000000000E+000
   1.81687500000000         0.000000000000000E+000
   2.03062500000000         0.000000000000000E+000
   2.24437500000000         0.000000000000000E+000
   2.45812500000000         0.000000000000000E+000
   2.67187500000000         0.000000000000000E+000
   2.88562500000000         0.000000000000000E+000
   3.09937500000000         0.000000000000000E+000
   3.31312500000000         0.000000000000000E+000
   3.52687500000000         0.000000000000000E+000
   3.74062500000000         0.000000000000000E+000
   3.95437500000000         0.000000000000000E+000
   4.16812500000000         0.000000000000000E+000
   4.38187500000000         0.000000000000000E+000
   4.59562500000000         0.000000000000000E+000
   4.80937500000000         0.000000000000000E+000
   5.02312500000000         0.000000000000000E+000
   5.23687500000000         0.000000000000000E+000
   5.45062500000000         0.000000000000000E+000
   5.66437500000000         0.000000000000000E+000
   5.87812500000000         0.000000000000000E+000
   6.09187500000000         0.000000000000000E+000
   6.30562500000000         0.000000000000000E+000
   6.51937500000000         0.000000000000000E+000
   6.73312500000000         0.000000000000000E+000
   6.94687500000000         0.000000000000000E+000
   7.16062500000000         0.000000000000000E+000
   7.37437500000000         0.000000000000000E+000
   7.58812500000000         0.000000000000000E+000
   7.80187500000000         0.000000000000000E+000
   8.01562500000000         0.000000000000000E+000
   8.22937500000000         0.000000000000000E+000
   8.44312500000000         0.000000000000000E+000
   8.65687500000000         0.000000000000000E+000
   8.87062500000000         0.000000000000000E+000
   9.08437500000000         0.000000000000000E+000
   9.29812500000000         0.000000000000000E+000
   9.51187500000000         7.509617365582035E-189
   9.72562500000000         1.729580497705122E-182
   9.93937500000000        -1.156891050205650E-179
   10.1531250000000        -2.688462441598354E-177
   10.3668750000000         9.863077949984943E-176
   10.5806250000000        -3.150317507113575E-173
   10.7943750000000        -3.331075453051473E-171
   11.0081250000000        -1.242517349321662E-169
   11.2218750000000        -2.585139366024049E-168
   11.4356250000000        -3.452448455611795E-167
   11.6493750000000        -3.096257213255820E-166
   11.8631250000000        -1.815896206092808E-165
   12.0768750000000        -4.983605791710248E-165
   12.2906250000000         5.361971568769041E-164
   12.5043750000000         1.773620698676979E-162
   12.7181250000000         3.533235836166639E-161
   12.9318750000000        -1.980330664265482E-159
   13.1456250000000        -1.311644067639177E-157
   13.3593750000000        -3.676276454988724E-156
   13.5731250000000        -6.683820232535212E-155
   13.7868750000000        -9.017123156395798E-154
   14.0006250000000        -9.672530341017888E-153
   14.2143750000000        -8.610906168842926E-152
   14.4281250000000        -6.550566054379866E-151
   14.6418750000000        -4.347829732825417E-150
   14.8556250000000        -2.555632051499614E-149
   15.0693750000000        -1.343806193564294E-148
   15.2831250000000        -6.356093906379642E-148
   15.4968750000000        -2.705203753019881E-147
   15.7106250000000        -1.028619081062234E-146
   15.9243750000000        -3.421142495958796E-146
   16.1381250000000        -9.403835370185359E-146
   16.3518750000000        -1.741572620565209E-145
   16.5656250000000         9.471192648271794E-146
   16.7793750000000         2.971102421478370E-144
   16.9931250000000         1.859167196419794E-143
   17.2068750000000         8.460393780943320E-143
   17.4206250000000         3.189359888594828E-142
   17.6343750000000         1.020057947055258E-141
   17.8481250000000         2.677371021242037E-141
   18.0618750000000         4.862673108105003E-141
   18.2756250000000        -8.958810805427891E-142
   18.4893750000000        -6.345970670662458E-140
   18.7031250000000        -3.960649060466360E-139
   18.9168750000000        -1.800442239262132E-138
   19.1306250000000        -6.992955228741767E-138
   19.3443750000000        -2.444008004077552E-137
   19.5581250000000        -7.867812819703329E-137
   19.7718750000000        -2.361884255587936E-136
   19.9856250000000        -6.657492543507543E-136
   20.1993750000000        -1.768593237356792E-135
   20.4131250000000        -4.434616462451377E-135
   20.6268750000000        -1.049027888897633E-134
   20.8406250000000        -2.334859926725445E-134
   21.0543750000000        -4.861697411409398E-134
   21.2681250000000        -9.367532013740268E-134
   21.4818750000000        -1.634694458111440E-133
   21.6956250000000        -2.461264177095039E-133
   21.9093750000000        -2.754275607220817E-133
   22.1231250000000        -4.689738395475428E-134
   22.3368750000000         9.489004184840514E-133
   22.5506250000000         3.823435203582687E-132
   22.7643750000000         1.076177235365824E-131
   22.9781250000000         2.567078629865925E-131
   23.1918750000000         5.489096394463865E-131
   23.4056250000000         1.076365279804528E-130
   23.6193750000000         1.954994062992993E-130
   23.8331250000000         3.300043835880994E-130
   24.0468750000000         5.170472540924831E-130
   24.2606250000000         7.472830750220849E-130
   24.4743750000000         9.816300912151764E-130
   24.6881250000000         1.127643684044886E-129
   24.9018750000000         9.844879769863079E-130
   25.1156250000000         7.363608167162930E-131
   25.3293750000000        -2.888396070983763E-129
   25.5431250000000        -1.147573615628971E-128
   25.7568750000000        -3.525895113588188E-128
   25.9706250000000        -9.794757136520804E-128
   26.1843750000000        -2.529146376612829E-127
   26.3981250000000        -6.076231675974469E-127
   26.6118750000000        -1.349849693270804E-126
   26.8256250000000        -2.742012202028578E-126
   27.0393750000000        -4.986305439059046E-126
   27.2531250000000        -7.736475592518921E-126
   27.4668750000000        -8.822622839820266E-126
   27.6806250000000        -1.497465647375843E-126
   27.8943750000000         3.059591526173124E-125
   28.1081250000000         1.209178989364950E-124
   28.3218750000000         3.275420106095182E-124
   28.5356250000000         7.312349087284155E-124
   28.7493750000000         1.399835450641739E-123
   28.9631250000000         2.268716873202796E-123
   29.1768750000000         2.851332058286826E-123
   29.3906250000000         1.664644677795482E-123
   29.6043750000000        -4.716548218220666E-123
   29.8181250000000        -2.285648248274039E-122
   30.0318750000000        -6.318536127835354E-122
   30.2456250000000        -1.382150840227018E-121
   30.4593750000000        -2.538354687464792E-121
   30.6731250000000        -3.858890777762754E-121
   30.8868750000000        -4.309966638290938E-121
   31.1006250000000        -1.214489089368677E-121
   31.3143750000000         1.092219116085448E-120
   31.5281250000000         4.144374962638171E-120
   31.7418750000000         1.030070693100748E-119
   31.9556250000000         2.063280349195135E-119
   32.1693750000000         3.445604078523241E-119
   32.3831250000000         4.591604078002491E-119
   32.5968750000000         3.790848257775922E-119
   32.8106250000000        -2.667741235127256E-119
   33.0243750000000        -2.137992245721528E-118
   33.2381250000000        -6.187886334881541E-118
   33.4518750000000        -1.339797307962227E-117
   33.6656250000000        -2.390506224391601E-117
   33.8793750000000        -3.503427651568626E-117
   34.0931250000000        -3.773631247814229E-117
   34.3068750000000        -1.134152615904521E-117
   34.5206250000000         8.210788165808566E-117
   34.7343750000000         2.997158434527390E-116
   34.9481250000000         7.063353789174302E-116
   35.1618750000000         1.333137491646947E-115
   35.3756250000000         2.082126189354416E-115
   35.5893750000000         2.551872120764101E-115
   35.8031250000000         1.778822829380843E-115
   36.0168750000000        -2.050782636361696E-115
   36.2306250000000        -1.173305107697425E-114
   36.4443750000000        -3.061467952148978E-114
   36.6581250000000        -6.088601738022508E-114
   36.8718750000000        -9.960255659170240E-114
   37.0856250000000        -1.314366464314945E-113
   37.2993750000000        -1.179596256102213E-113
   37.5131250000000         1.434097184870102E-114
   37.7268750000000         3.801262035766018E-113
   37.9406250000000         1.119965443047277E-112
   38.1543750000000         2.337699481759771E-112
   38.3681250000000         3.955039007998984E-112
   38.5818750000000         5.449797672587955E-112
   38.7956250000000         5.474627888284718E-112
   39.0093750000000         1.438215307531876E-112
   39.2231250000000        -1.070089005642364E-111
   39.4368750000000        -3.591220190268653E-111
   39.6506250000000        -7.799960509971963E-111
   39.8643750000000        -1.348412344105290E-110
   40.0781250000000        -1.900037467486535E-110
   40.2918750000000        -2.008302051329710E-110
   40.5056250000000        -8.581753482743313E-111
   40.7193750000000         2.807996674718225E-110
   40.9331250000000         1.051677963815082E-109
   41.1468750000000         2.341760747436518E-109
   41.3606250000000         4.086303009917918E-109
   41.5743750000000         5.797894499994207E-109
   41.7881250000000         6.232170295818367E-109
   42.0018750000000         3.050719297575155E-109
   42.2156250000000        -7.289867339704602E-109
   42.4293750000000        -2.899334279869169E-108
   42.6431250000000        -6.507844757637638E-108
   42.8568750000000        -1.134807383000857E-107
   43.0706250000000        -1.605886202140750E-107
   43.2843750000000        -1.726480524344742E-107
   43.4981250000000        -8.755677639105840E-108
   43.7118750000000         1.868914054791254E-107
   43.9256250000000         7.574396285572734E-107
   44.1393750000000         1.696804057055531E-106
   44.3531250000000         2.944802599151681E-106
   44.5668750000000         4.149086972930231E-106
   44.7806250000000         4.459684660545001E-106
   44.9943750000000         2.342022556878484E-106
   45.2081250000000        -4.444829748940959E-106
   45.4218750000000        -1.845115072171980E-105
   45.6356250000000        -4.136783762019523E-105
   45.8493750000000        -7.171373443877057E-105
   46.0631250000000        -1.011923247549596E-104
   46.2768750000000        -1.100929124485678E-104
   46.4906250000000        -6.322705286040133E-105
   46.7043750000000         9.035588421045382E-105
   46.9181250000000         4.084280732833887E-104
   47.1318750000000         9.300356280286839E-104
   47.3456250000000         1.625813563867863E-103
   47.5593750000000         2.320771364921221E-103
   47.7731250000000         2.597883503526525E-103
   47.9868750000000         1.713354974228211E-103
   48.2006250000000        -1.411062384686194E-103
   48.4143750000000        -8.011109259920576E-103
   48.6281250000000        -1.897513260136824E-102
   48.8418750000000        -3.386776333480689E-102
   49.0556250000000        -4.941983573497926E-102
   49.2693750000000        -5.764351127087699E-102
   49.4831250000000        -4.414749522294896E-102
   49.6968750000000         1.214739606743456E-102
   49.9106250000000         1.359399506686491E-101
   50.1243750000000         3.465518850752104E-101
   50.3381250000000         6.404340508989722E-101
   50.5518750000000         9.640197381360878E-101
   50.7656250000000         1.179552728795853E-100
   50.9793750000000         1.033535277642357E-100
   51.1931250000000         1.478734637088148E-101
   51.4068750000000        -1.933768700422526E-100
   51.6206250000000        -5.601611456597062E-100
   51.8343750000000        -1.089441356756491E-099
   52.0481250000000        -1.705209978665948E-099
   52.2618750000000        -2.194407587616673E-099
   52.4756250000000        -2.151931051880941E-099
   52.6893750000000        -9.584481157381439E-100
   52.9031250000000         2.159297045258121E-099
   53.1168750000000         7.920052160206128E-099
   53.3306250000000         1.656455184028275E-098
   53.5443750000000         2.718053790314489E-098
   53.7581250000000         3.682299729854330E-098
   53.9718750000000         3.962974115805369E-098
   54.1856250000000         2.635919205045473E-098
   54.3993750000000        -1.495218104316650E-098
   54.6131250000000        -9.628383379000560E-098
   54.8268750000000        -2.239091167863027E-097
   55.0406250000000        -3.890719043875556E-097
   55.2543750000000        -5.555499932112301E-097
   55.4681250000000        -6.465899601107973E-097
   55.6818750000000        -5.366599860744012E-097
   55.8956250000000        -5.702840901310481E-098
   56.1093750000000         9.726910213659286E-097
   56.3231250000000         2.674077753361177E-096
   56.5368750000000         4.991877730372068E-096
   56.7506250000000         7.532470684272272E-096
   56.9643750000000         9.386838888182227E-096
   57.1781250000000         9.001836353283482E-096
   57.3918750000000         4.207058522388163E-096
   57.6056250000000        -7.455917427878905E-096
   57.8193750000000        -2.794135316239788E-095
   58.0331250000000        -5.732720492155196E-095
   58.2468750000000        -9.188437210502551E-095
   58.4606250000000        -1.218743950581017E-094
   58.6743750000000        -1.297639919518525E-094
   58.8881250000000        -9.003902475346770E-095
   59.1018750000000         2.773670718152145E-095
   59.3156250000000         2.507707205426304E-094
   59.5293750000000         5.883475460663033E-094
   59.7431250000000         1.010530952545850E-093
   59.9568750000000         1.422940816172628E-093
   60.1706250000000         1.644474278488815E-093
   60.3843750000000         1.400078921805324E-093
   60.5981250000000         3.457461222573845E-094
   60.8118750000000        -1.854503091206937E-093
   61.0256250000000        -5.383063923747489E-093
   61.2393750000000        -1.005103479200762E-092
   61.4531250000000        -1.503108867946533E-092
   61.6668750000000        -1.860463354196511E-092
   61.8806250000000        -1.803898265801558E-092
   62.0943750000000        -9.762041946302299E-093
   62.3081250000000         9.967657996383970E-093
   62.5218750000000         4.372024343089556E-092
   62.7356250000000         9.082068420001868E-092
   62.9493750000000         1.447171270837355E-091
   63.1631250000000         1.903431782310210E-091
   63.3768750000000         2.025124512072245E-091
   63.5906250000000         1.468823765596226E-091
   63.8043750000000        -1.465175558839367E-092
   64.0181250000000        -3.124003963553667E-091
   64.2318750000000        -7.503478371828667E-091
   64.4456250000000        -1.281854790649590E-090
   64.6593750000000        -1.784080716345177E-090
   64.8731250000000        -2.039923180010405E-090
   65.0868750000000        -1.740821054155660E-090
   65.3006250000000        -5.269954803082798E-091
   65.5143750000000         1.918741978828009E-090
   65.7281250000000         5.714486809134260E-090
   65.9418750000000         1.056723440797322E-089
   66.1556250000000         1.553965598763956E-089
   66.3693750000000         1.886638418790858E-089
   66.5831250000000         1.793014938293445E-089
   66.7968750000000         9.538506575347718E-090
   67.0106250000000        -9.355891361201731E-090
   67.2243750000000        -4.039818537603054E-089
   67.4381250000000        -8.206896184674844E-089
   67.6518750000000        -1.276623021206943E-088
   67.8656250000000        -1.635449352002465E-088
   68.0793750000000        -1.685685635378356E-088
   68.2931250000000        -1.157813853530518E-088
   68.5068750000000         2.234534013241643E-089
   68.7206250000000         2.642815366286558E-088
   68.9343750000000         6.054036107539721E-088
   69.1481250000000         1.001186161193823E-087
   69.3618750000000         1.351540350464274E-087
   69.5756250000000         1.492892072924150E-087
   69.7893750000000         1.206971179122413E-087
   70.0031250000000         2.562798382575145E-088
   70.2168750000000        -1.545603671019656E-087
   70.4306250000000        -4.226867263082507E-087
   70.6443750000000        -7.523033492045283E-087
   70.8581250000000        -1.074195157777012E-086
   71.0718750000000        -1.267569360732280E-086
   71.2856250000000        -1.162673419499235E-086
   71.4993750000000        -5.627134946137454E-087
   71.7131250000000         7.078200778246153E-087
   71.9268750000000         2.725142080913531E-086
   72.1406250000000         5.363055088476492E-086
   72.3543750000000         8.181477359292624E-086
   72.5681250000000         1.033886902459291E-085
   72.7818750000000         1.057677676988179E-085
   72.9956250000000         7.336024467129561E-086
   73.2093750000000        -9.365655837124393E-087
   73.4231250000000        -1.525317741177794E-085
   73.6368750000000        -3.533345210077030E-085
   73.8506250000000        -5.872983072507307E-085
   74.0643750000000        -8.003317729350830E-085
   74.2781250000000        -9.048384103958984E-085
   74.4918750000000        -7.841488052870230E-085
   74.7056250000000        -3.098737706329573E-085
   74.9193750000000         6.241710762798940E-085
   75.1331250000000         2.050645972282326E-084
   75.3468750000000         3.864258224747867E-084
   75.5606250000000         5.755840550049657E-084
   75.7743750000000         7.165285658121754E-084
   75.9881250000000         7.281976144201158E-084
   76.2018750000000         5.126221156807611E-084
   76.4156250000000        -2.572587020939347E-085
   76.6293750000000        -9.476837258079945E-084
   76.8431250000000        -2.235469615696885E-083
   77.0568750000000        -3.742831304386249E-083
   77.2706250000000        -5.150852371428578E-083
   77.4843750000000        -5.947153072827427E-083
   77.6981250000000        -5.451018808986654E-083
   77.9118750000000        -2.908023032862353E-083
   78.1256250000000         2.327841092195288E-083
   78.3393750000000         1.052130053255884E-082
   78.5531250000000         2.121459215961871E-082
   78.7668750000000         3.287596467840459E-082
   78.9806250000000         4.263747670437296E-082
   79.1943750000000         4.626028261568082E-082
   79.4081250000000         3.848780270839035E-082
   79.6218750000000         1.393579761542585E-082
   79.8356250000000        -3.139465354893686E-082
   80.0493750000000        -9.802406456892312E-082
   80.2631250000000        -1.805622604890270E-081
   80.4768750000000        -2.654306671886098E-081
   80.6906250000000        -3.295008181990044E-081
   80.9043750000000        -3.406250983194351E-081
   81.1181250000000        -2.611015527671364E-081
   81.3318750000000        -5.492170464583747E-082
   81.5456250000000         3.009038413270494E-081
   81.7593750000000         8.016238270164852E-081
   81.9731250000000         1.398687337981332E-080
   82.1868750000000         1.986034058868137E-080
   82.4006250000000         2.393992861335724E-080
   82.6143750000000         2.397092637968331E-080
   82.8281250000000         1.742006800471569E-080
   83.0418750000000         2.000083179764239E-081
   83.2556250000000        -2.355808635719600E-080
   83.4693750000000        -5.854865731874027E-080
   83.6831250000000        -9.929982341936511E-080
   83.8968750000000        -1.383937060004142E-079
   84.1106250000000        -1.644276475903715E-079
   84.3243750000000        -1.626914613844012E-079
   84.5381250000000        -1.171055563048808E-079
   84.7518750000000        -1.362819602468183E-080
   84.9656250000000         1.549260072037899E-079
   85.1793750000000         3.831107426726627E-079
   85.3931250000000         6.470645387648370E-079
   85.6068750000000         9.001856448637846E-079
   85.8206250000000         1.072153692852889E-078
   86.0343750000000         1.073356919835879E-078
   86.2481250000000         8.065306438814620E-079
   86.4618750000000         1.865835342209949E-079
   86.6756250000000        -8.319033186261791E-079
   86.8893750000000        -2.222140537105060E-078
   87.1031250000000        -3.852743886997343E-078
   87.3168750000000        -5.463264829390245E-078
   87.5306250000000        -6.657429519099064E-078
   87.7443750000000        -6.924612774860523E-078
   87.9581250000000        -5.698757559796328E-078
   88.1718750000000        -2.459947012751375E-078
   88.3856250000000         3.123170159038112E-078
   88.5993750000000         1.102170516047732E-077
   88.8131250000000         2.066893276070918E-077
   89.0268750000000         3.081211541791585E-077
   89.2406250000000         3.943909014271714E-077
   89.4543750000000         4.383017942548275E-077
   89.6681250000000         4.078357466170653E-077
   89.8818750000000         2.704984128412798E-077
   90.0956250000000        -1.293704354723387E-080
   90.3093750000000        -4.158781749695656E-077
   90.5231250000000        -9.642224890232225E-077
   90.7368750000000        -1.598502732841622E-076
   90.9506250000000        -2.229940303149615E-076
   91.1643750000000        -2.723770058800893E-076
   91.3781250000000        -2.902217388495281E-076
   91.5918750000000        -2.557232109321157E-076
   91.8056250000000        -1.475729840181413E-076
   92.0193750000000         5.205876794453207E-077
   92.2331250000000         3.520179643943112E-076
   92.4468750000000         7.453147169614294E-076
   92.6606250000000         1.201470380498371E-075
   92.8743750000000         1.659122576982042E-075
   93.0881250000000         2.020598170938265E-075
   93.3018750000000         2.150898471209109E-075
   93.5156250000000         1.884231042553535E-075
   93.7293750000000         1.041643715976362E-075
   93.9431250000000        -5.368638859128499E-076
   94.1568750000000        -2.943581119007649E-075
   94.3706250000000        -6.138192254566502E-075
   94.5843750000000        -9.871785268350908E-075
   94.7981250000000        -1.361126050560052E-074
   95.0118750000000        -1.648361903527426E-074
   95.2256250000000        -1.726795457770485E-074
   95.4393750000000        -1.446956999424031E-074
   95.6531250000000        -6.512389087862502E-075
   95.8668750000000         7.921135955979752E-075
   96.0806250000000         2.939315694854318E-074
   96.2943750000000         5.708279890633538E-074
   96.5081250000000         8.810632085237044E-074
   96.7218750000000         1.169292512548561E-073
   96.9356250000000         1.350841801532665E-073
   97.1493750000000         1.314646660458767E-073
   97.3631250000000         9.348602216078535E-074
   97.5768750000000         9.358766523660442E-075
   97.7906250000000        -1.284188296777172E-073
   98.0043750000000        -3.184978691292561E-073
   98.2181250000000        -5.455687732049555E-073
   98.4318750000000        -7.756937862034894E-073
   98.6456250000000        -9.535623931047241E-073
   98.8593750000000        -1.003548679848783E-072
   99.0731250000000        -8.365953667720825E-073
   99.2868750000000        -3.646522202558120E-073
   99.5006250000000         4.765280073091693E-073
   99.7143750000000         1.697112940888459E-072
   99.9281250000000         3.218749615378004E-072
   100.141875000000         4.842282469605399E-072
   100.355625000000         6.227077299454583E-072
   100.569375000000         6.893899985112127E-072
   100.783125000000         6.264180979730960E-072
   100.996875000000         3.746614774481848E-072
   101.210625000000        -1.123679948401336E-072
   101.424375000000        -8.498476680197817E-072
   101.638125000000        -1.800200296529160E-071
   101.851875000000        -2.852647531794510E-071
   102.065625000000        -3.809378254582783E-071
   102.279375000000        -4.385407860290534E-071
   102.493125000000        -4.229702987673458E-071
   102.706875000000        -2.974041052702758E-071
   102.920625000000        -3.127764100285415E-072
   103.134375000000         3.889164187267693E-071
   103.348125000000         9.471054498457623E-071
   103.561875000000         1.585496895623026E-070
   103.775625000000         2.195953214657533E-070
   103.989375000000         2.618821580371572E-070
   104.203125000000         2.653437672301724E-070
   104.416875000000         2.083933573515708E-070
   104.630625000000         7.222160073061371E-071
   104.844375000000        -1.533136095016844E-070
   105.058125000000        -4.627722130631094E-070
   105.271875000000        -8.282910243779413E-070
   105.485625000000        -1.194458896547755E-069
   105.699375000000        -1.476980900549450E-069
   105.913125000000        -1.567365924916769E-069
   106.126875000000        -1.345593149823798E-069
   106.340625000000        -7.018412836748374E-070
   106.554375000000         4.331880955149954E-070
   106.768125000000         2.052028665721183E-069
   106.981875000000         4.033635427657200E-069
   107.195625000000         6.114091973416185E-069
   107.409375000000         7.875164672893726E-069
   107.623125000000         8.761995142718482E-069
   107.836875000000         8.140101762009705E-069
   108.050625000000         5.397922071744724E-069
   108.264375000000         9.393110379592494E-071
   108.478125000000        -7.862998300336864E-069
   108.691875000000        -1.802403718047171E-068
   108.905625000000        -2.923900955368095E-068
   109.119375000000        -3.957181624426888E-068
   109.333125000000        -4.634716191418948E-068
   109.546875000000        -4.637973226934527E-068
   109.760625000000        -3.642102544544741E-068
   109.974375000000        -1.382828276186532E-068
   110.188125000000         2.258561851944366E-068
   110.401875000000         7.161969732329976E-068
   110.615625000000         1.288301163667818E-067
   110.829375000000         1.859689580496457E-067
   111.043125000000         2.309670337310297E-067
   111.256875000000         2.487088103572781E-067
   111.470625000000         2.227924966762158E-067
   111.684375000000         1.383494612693357E-067
   111.898125000000        -1.418837394710828E-068
   112.111875000000        -2.347271378080610E-067
   112.325625000000        -5.091841831290485E-067
   112.539375000000        -8.060890668211582E-067
   112.753125000000        -1.075203152861911E-066
   112.966875000000        -1.249311934590826E-066
   113.180625000000        -1.250205069654605E-066
   113.394375000000        -9.994615775654863E-067
   113.608125000000        -4.339732031066098E-067
   113.821875000000         4.748170033467718E-067
   114.035625000000         1.700137849304533E-066
   114.249375000000         3.140963727892277E-066
   114.463125000000         4.609390797360184E-066
   114.676875000000         5.829421313232796E-066
   114.890625000000         6.452219141544797E-066
   115.104375000000         6.091888224475049E-066
   115.318125000000         4.383643746188615E-066
   115.531875000000         1.062823555672475E-066
   115.745625000000        -3.941348393497980E-066
   115.959375000000        -1.040860865156932E-065
   116.173125000000        -1.774382973508076E-065
   116.386875000000        -2.492775342291566E-065
   116.600625000000        -3.052602369492306E-065
   116.814375000000        -3.277951478509970E-065
   117.028125000000        -2.979374284633259E-065
   117.241875000000        -1.983456978099326E-065
   117.455625000000        -1.721104038957395E-066
   117.669375000000         2.471482376940050E-065
   117.883125000000         5.815836241479508E-065
   118.096875000000         9.541206940164670E-065
   118.310625000000         1.311707831835613E-064
   118.524375000000         1.580876646328720E-064
   118.738125000000         1.672456895104356E-064
   118.951875000000         1.491246493573942E-064
   119.165625000000         9.510248710903485E-065
   119.379375000000        -5.511346411622050E-067
   119.593125000000        -1.383402583463479E-064
   119.806875000000        -3.111482299288008E-064
   120.020625000000        -5.022008407135905E-064
   120.234375000000        -6.839243089533602E-064
   120.448125000000        -8.183091902130898E-064
   120.661875000000        -8.593839290648750E-064
   120.875625000000        -7.582773043937598E-064
   121.089375000000        -4.710772387415210E-064
   121.303125000000         3.074161264016981E-065
   121.516875000000         7.481391278244265E-064
   121.730625000000         1.642100125382572E-063
   121.944375000000         2.623245161612449E-063
   122.158125000000         3.546343034761413E-063
   122.371875000000         4.212966031200850E-063
   122.585625000000         4.385423720128350E-063
   122.799375000000         3.814348605502096E-063
   123.013125000000         2.280737005349677E-063
   123.226875000000        -3.491869402284048E-064
   123.440625000000        -4.061128946976193E-063
   123.654375000000        -8.630454711441057E-063
   123.868125000000        -1.357273082545788E-062