  -1.60312500000000         0.000000000000000E+000
  -1.38937500000000         0.000000000000000E+000
  -1.17562500000000         0.000000000000000E+000
 -0.961875000000000         0.000000000000000E+000
 -0.748125000000000         0.000000000000000E+000
 -0.534375000000000         0.000000000000000E+000
 -0.320625000000000         0.000000000000000E+000
 -0.106875000000000         0.000000000000000E+000
  0.106875000000000         0.000000000000000E+000
  0.320625000000000         0.000000000000000E+000
  0.534375000000000         0.000000000000000E+000
  0.748125000000000         0.000000000000000E+000
  0.961875000000000         0.000000000000000E+000
   1.17562500000000         0.000000000000000E+000
   1.38937500000000         0.000000000000000E+000
   1.60312500000000         0.000000000000000E+000
   1.81687500000000         0.000000000000000E+000
   2.03062500000000         0.000000000000000E+000
   2.24437500000000         0.000000000000000E+000
   2.45812500000000         0.000000000000000E+000
   2.67187500000000         0.000000000000000E+000
   2.88562500000000         0.000000000000000E+000
   3.09937500000000         0.000000000000000E+000
   3.31312500000000         0.000000000000000E+000
   3.52687500000000         0.000000000000000E+000
   3.74062500000000         0.000000000000000E+000
   3.95437500000000         0.000000000000000E+000
   4.16812500000000         0.000000000000000E+000
   4.38187500000000         0.000000000000000E+000
   4.59562500000000         0.000000000000000E+000
   4.80937500000000         0.000000000000000E+000
   5.02312500000000         0.000000000000000E+000
   5.23687500000000         0.000000000000000E+000
   5.45062500000000         0.000000000000000E+000
   5.66437500000000         0.000000000000000E+000
   5.87812500000000         0.000000000000000E+000
   6.09187500000000         0.000000000000000E+000
   6.30562500000000         0.000000000000000E+000
   6.51937500000000         0.000000000000000E+000
   6.73312500000000         0.000000000000000E+000
   6.94687500000000         0.000000000000000E+000
   7.16062500000000         0.000000000000000E+000
   7.37437500000000         0.000000000000000E+000
   7.58812500000000         0.000000000000000E+000
   7.80187500000000         0.000000000000000E+000
   8.01562500000000         0.000000000000000E+000
   8.22937500000000         0.000000000000000E+000
   8.44312500000000         0.000000000000000E+000
   8.65687500000000         0.000000000000000E+000
   8.87062500000000         0.000000000000000E+000
   9.08437500000000         0.000000000000000E+000
   9.29812500000000         1.299699584658657E-188
   9.51187500000000        -9.723465331849952E-182
   9.72562500000000        -1.129065334945807E-178
   9.93937500000000        -7.351342942074913E-177
   10.1531250000000        -9.124800078155880E-174
   10.3668750000000        -3.177714082716454E-172
   10.5806250000000         1.056873455465297E-170
   10.7943750000000         8.400868861068072E-169
   11.0081250000000         2.332604004923356E-167
   11.2218750000000         3.843615756425131E-166
   11.4356250000000         4.379644816589118E-165
   11.6493750000000         4.352517059465255E-164
   11.8631250000000         6.020430842906658E-163
   12.0768750000000         1.156647676671419E-161
   12.2906250000000         2.063952081281658E-160
   12.5043750000000         2.999877511034041E-159
   12.7181250000000         3.562563500125881E-158
   12.9318750000000         3.536675671312013E-157
   13.1456250000000         2.994148760898298E-156
   13.3593750000000         2.190191888628348E-155
   13.5731250000000         1.389640554214682E-154
   13.7868750000000         7.580925269899346E-154
   14.0006250000000         3.452894508449872E-153
   14.2143750000000         1.214027123141454E-152
   14.4281250000000         2.437104627999484E-152
   14.6418750000000        -4.996118597629422E-152
   14.8556250000000        -7.055202754930610E-151
   15.0693750000000        -2.594085665430581E-150
   15.2831250000000         8.204475263395497E-150
   15.4968750000000         2.031620280977323E-148
   15.7106250000000         1.889038789384682E-147
   15.9243750000000         1.300832319822938E-146
   16.1381250000000         7.496476211130972E-146
   16.3518750000000         3.785467458196656E-145
   16.5656250000000         1.710784204607485E-144
   16.7793750000000         6.981821638368593E-144
   16.9931250000000         2.572804682647749E-143
   17.2068750000000         8.467931899456812E-143
   17.4206250000000         2.411755549361634E-142
   17.6343750000000         5.412325805734808E-142
   17.8481250000000         5.857365344467176E-142
   18.0618750000000        -2.771773645460591E-141
   18.2756250000000        -2.516083387084193E-140
   18.4893750000000        -1.306598847944571E-139
   18.7031250000000        -5.519328380223480E-139
   18.9168750000000        -2.058788178995508E-138
   19.1306250000000        -7.003868503015101E-138
   19.3443750000000        -2.207088456308060E-137
   19.5581250000000        -6.494516007070890E-137
   19.7718750000000        -1.791398971102467E-136
   19.9856250000000        -4.636509143077161E-136
   20.1993750000000        -1.124435961004509E-135
   20.4131250000000        -2.545298786034248E-135
   20.6268750000000        -5.340944439866574E-135
   20.8406250000000        -1.027692088805245E-134
   21.0543750000000        -1.784480529224029E-134
   21.2681250000000        -2.739709850382586E-134
   21.4818750000000        -3.695564570115233E-134
   21.6956250000000        -4.960697163564977E-134
   21.9093750000000        -1.064800754935838E-133
   22.1231250000000        -3.997555337950911E-133
   22.3368750000000        -1.582527200418691E-132
   22.5506250000000        -5.472823153246268E-132
   22.7643750000000        -1.633051168880040E-131
   22.9781250000000        -4.233884411041275E-131
   23.1918750000000        -9.464923116731632E-131
   23.4056250000000        -1.745803192047372E-130
   23.6193750000000        -2.229772199789634E-130
   23.8331250000000         2.856817667793689E-131
   24.0468750000000         1.422757132917666E-129
   24.2606250000000         6.142306965832486E-129
   24.4743750000000         1.904780068931309E-128
   24.6881250000000         4.938987798369627E-128
   24.9018750000000         1.112898692964857E-127
   25.1156250000000         2.175344794686042E-127
   25.3293750000000         3.525743237287445E-127
   25.5431250000000         3.942339393482758E-127
   25.7568750000000        -7.135913257182195E-128
   25.9706250000000        -2.121776310643619E-126
   26.1843750000000        -8.124726335318770E-126
   26.3981250000000        -2.253703126643571E-125
   26.6118750000000        -5.229373997202094E-125
   26.8256250000000        -1.049718818083704E-124
   27.0393750000000        -1.804163631742089E-124
   27.2531250000000        -2.473362667246918E-124
   27.4668750000000        -1.910734373819663E-124
   27.6806250000000         2.841326581823736E-124
   27.8943750000000         1.805092722760456E-123
   28.1081250000000         5.492537286599802E-123
   28.3218750000000         1.297333232979901E-122
   28.5356250000000         2.581433375699502E-122
   28.7493750000000         4.348700353992711E-122
   28.9631250000000         5.832732011397402E-122
   29.1768750000000         4.539939697319144E-122
   29.3906250000000        -5.444300124242764E-122
   29.6043750000000        -3.567337666275276E-121
   29.8181250000000        -1.049515122813020E-120
   30.0318750000000        -2.370573268225556E-120
   30.2456250000000        -4.473980602330112E-120
   30.4593750000000        -7.056914052885539E-120
   30.6731250000000        -8.558422782676165E-120
   30.8868750000000        -4.736197624172275E-120
   31.1006250000000         1.339504073064099E-119
   31.3143750000000         6.167806941326081E-119
   31.5281250000000         1.630034225754963E-118
   31.7418750000000         3.410046381775868E-118
   31.9556250000000         5.987237076474954E-118
   32.1693750000000         8.691304267332525E-118
   32.3831250000000         9.221097537350633E-118
   32.5968750000000         2.195621334074588E-118
   32.8106250000000        -2.260252746583933E-117
   33.0243750000000        -8.135816849967015E-117
   33.2381250000000        -1.944080864465393E-116
   33.4518750000000        -3.769626768752271E-116
   33.6656250000000        -6.151137836221431E-116
   33.8793750000000        -8.178588135726638E-116
   34.0931250000000        -7.376644773133229E-116
   34.3068750000000         1.363960330520484E-116
   34.5206250000000         2.678465303078138E-115
   34.7343750000000         8.123602600306881E-115
   34.9481250000000         1.776935557085417E-114
   35.1618750000000         3.205707428367255E-114
   35.3756250000000         4.859197488032685E-114
   35.5893750000000         5.867177642483450E-114
   35.8031250000000         4.225350608711173E-114
   36.0168750000000        -3.765439634020622E-114
   36.2306250000000        -2.379945655233285E-113
   36.4443750000000        -6.291929391578947E-113
   36.6581250000000        -1.267303008118725E-112
   36.8718750000000        -2.127745880885850E-112
   37.0856250000000        -2.982059989720955E-112
   37.2993750000000        -3.208044447187905E-112
   37.5131250000000        -1.554342784734683E-112
   37.7268750000000         4.052875173899936E-112
   37.9406250000000         1.645837502599883E-111
   38.1543750000000         3.861552919070448E-111
   38.3681250000000         7.176943580881892E-111
   38.5818750000000         1.118446905188346E-110
   38.7956250000000         1.435707037296103E-110
   39.0093750000000         1.326260870849554E-110
   39.2231250000000         1.780128672055674E-111
   39.4368750000000        -2.917690886738080E-110
   39.6506250000000        -9.048029906539727E-110
   39.8643750000000        -1.906870725997140E-109
   40.0781250000000        -3.271969656328482E-109
   40.2918750000000        -4.710800921523573E-109
   40.5056250000000        -5.455332659546225E-109
   40.7193750000000        -4.017139090445944E-109
   40.9331250000000         1.973631501416667E-109
   41.1468750000000         1.563812331853060E-108
   41.3606250000000         4.009231961080420E-108
   41.5743750000000         7.662739347731796E-108
   41.7881250000000         1.214009487332373E-107
   42.0018750000000         1.604822563379168E-107
   42.2156250000000         1.638132846263450E-107
   42.4293750000000         8.000607767174413E-108
   42.6431250000000        -1.640225501043800E-107
   42.8568750000000        -6.519870217182606E-107
   43.0706250000000        -1.446804252846564E-106
   43.2843750000000        -2.529347808994442E-106
   43.4981250000000        -3.701811708677117E-106
   43.7118750000000        -4.461793939127989E-106
   43.9256250000000        -3.876168252512090E-106
   44.1393750000000        -5.198468808951364E-107
   44.3531250000000         7.409134440355886E-106
   44.5668750000000         2.164147060498216E-105
   44.7806250000000         4.287838526445052E-105
   44.9943750000000         6.919045845144885E-105
   45.2081250000000         9.380134996160514E-105
   45.4218750000000         1.026161597093373E-104
   45.6356250000000         7.238941039636423E-105
   45.8493750000000        -2.886321846121223E-105
   46.0631250000000        -2.368659164836809E-104
   46.2768750000000        -5.786951371767296E-104
   46.4906250000000        -1.050536277538985E-103
   46.7043750000000        -1.584924805188488E-103
   46.9181250000000        -2.010806988887716E-103
   47.1318750000000        -2.016401778847239E-103
   47.3456250000000        -1.133906595410325E-103
   47.5593750000000         1.224936920737521E-103
   47.7731250000000         5.645823648534851E-103
   47.9868750000000         1.246499979912274E-102
   48.2006250000000         2.137705334676342E-102
   48.4143750000000         3.091287296951398E-102
   48.6281250000000         3.786693707544176E-102
   48.8418750000000         3.684186449462726E-102
   49.0556250000000         2.017994846382539E-102
   49.2693750000000        -2.135912902522860E-102
   49.4831250000000        -9.677576957847538E-102
   49.6968750000000        -2.115184018927054E-101
   49.9106250000000        -3.625197505949741E-101
   50.1243750000000        -5.317399761196617E-101
   50.3381250000000        -6.788037855032579E-101
   50.5518750000000        -7.337896059186716E-101
   50.7656250000000        -5.916833617364806E-101
   50.9793750000000        -1.104879482733112E-101
   51.1931250000000         8.842381640416483E-101
   51.4068750000000         2.583897653274756E-100
   51.6206250000000         5.162158308768258E-100
   51.8343750000000         8.705867636668710E-100
   52.0481250000000         1.308597755132174E-099
   52.2618750000000         1.773107002205874E-099
   52.4756250000000         2.126007201222475E-099
   52.6893750000000         2.094578565345104E-099
   52.9031250000000         1.204229288483367E-099
   53.1168750000000        -1.284876723876113E-099
   53.3306250000000        -6.394141197609935E-099
   53.5443750000000        -1.531414090573144E-098
   53.7581250000000        -2.903487621946289E-098
   53.9718750000000        -4.754982068192603E-098
   54.1856250000000        -6.846374800093693E-098
   54.3993750000000        -8.492563335274924E-098
   54.6131250000000        -8.306503235039380E-098
   54.8268750000000        -3.961240336220093E-098
   55.0406250000000         7.881820195240935E-098
   55.2543750000000         3.122503649277886E-097
   55.4681250000000         6.960420619284363E-097
   55.6818750000000         1.237500284976967E-096
   55.8956250000000         1.876875830134059E-096
   56.1093750000000         2.432547608041784E-096
   56.3231250000000         2.537691932438341E-096
   56.5368750000000         1.588646831735997E-096
   56.7506250000000        -1.256282626245518E-096
   56.9643750000000        -6.966927662445981E-096
   57.1781250000000        -1.634076877754401E-095
   57.3918750000000        -2.942888028978766E-095
   57.6056250000000        -4.463633513792126E-095
   57.8193750000000        -5.753531554198974E-095
   58.0331250000000        -5.960387429791805E-095
   58.2468750000000        -3.737746088515478E-095
   58.4606250000000         2.713930555363977E-095
   58.6743750000000         1.535728703064368E-094
   58.8881250000000         3.563122603142362E-094
   59.1018750000000         6.323154727030276E-094
   59.3156250000000         9.430889623674566E-094
   59.5293750000000         1.192335093821999E-093
   59.7431250000000         1.204254998563714E-093
   59.9568750000000         7.125660142457694E-094
   60.1706250000000        -6.235620467925907E-094
   60.3843750000000        -3.154720491352739E-093
   60.5981250000000        -7.103248484611792E-093
   60.8118750000000        -1.233289275500530E-092
   61.0256250000000        -1.802580719868754E-092
   61.2393750000000        -2.230486047032384E-092
   61.4531250000000        -2.190114418061977E-092
   61.6668750000000        -1.205060034266184E-092
   61.8806250000000         1.310231992480450E-092
   62.0943750000000         5.924046839990057E-092
   62.3081250000000         1.293878030879840E-091
   62.5218750000000         2.199700028842905E-091
   62.7356250000000         3.155440889995425E-091
   62.9493750000000         3.829744217417094E-091
   63.1631250000000         3.668247164630860E-091
   63.3768750000000         1.890008710675000E-091
   63.5906250000000        -2.430169573629457E-091
   63.8043750000000        -1.014148049262846E-090
   64.0181250000000        -2.161017091573429E-090
   64.2318750000000        -3.610269059927354E-090
   64.4456250000000        -5.099468217796834E-090
   64.6593750000000        -6.094308150547877E-090
   64.8731250000000        -5.730384973654970E-090
   65.0868750000000        -2.825242382382653E-090
   65.3006250000000         3.977120784985773E-090
   65.5143750000000         1.585874547031940E-089
   65.7281250000000         3.321717629939728E-089
   65.9418750000000         5.477467518802308E-089
   66.1556250000000         7.647878293657290E-089
   66.3693750000000         9.040965379029024E-089
   66.5831250000000         8.410516629851940E-089
   66.7968750000000         4.093680616309943E-089
   67.0106250000000        -5.764011071967562E-089
   67.2243750000000        -2.270771988750576E-088
   67.4381250000000        -4.712865005223170E-088
   67.6518750000000        -7.707156203107624E-088
   67.8656250000000        -1.068122493037096E-087
   68.0793750000000        -1.255103105507374E-087
   68.2931250000000        -1.164860781504007E-087
   68.5068750000000        -5.793208272626326E-088
   68.7206250000000         7.392836643334933E-088
   68.9343750000000         2.982029370471708E-087
   69.1481250000000         6.185061389564069E-087
   69.3618750000000         1.008098173862009E-086
   69.5756250000000         1.392672156653069E-086
   69.7893750000000         1.634737435253522E-086
   70.0031250000000         1.526365001182016E-086
   70.2168750000000         7.999308905885298E-087
   70.4306250000000        -8.315277105011620E-087
   70.6443750000000        -3.593061659723447E-086
   70.8581250000000        -7.518832900655861E-086
   71.0718750000000        -1.227904244512086E-085
   71.2856250000000        -1.698428138425206E-085
   71.4993750000000        -2.001419818361831E-085
   71.7131250000000        -1.894784292231472E-085
   71.9268750000000        -1.070257638113027E-085
   72.1406250000000         7.993552307189770E-086
   72.3543750000000         3.967977313015971E-085
   72.5681250000000         8.472870691467007E-085
   72.7818750000000         1.394560427881360E-084
   72.9956250000000         1.940225188874827E-084
   73.2093750000000         2.306428261544444E-084
   73.4231250000000         2.229253797316861E-084
   73.6368750000000         1.374538098842784E-084
   73.8506250000000        -6.112422269000170E-085
   74.0643750000000        -4.003648093008872E-084
   74.2781250000000        -8.851082321666804E-084
   74.4918750000000        -1.478050595899280E-083
   74.7056250000000        -2.078433923683710E-083
   74.9193750000000        -2.504096575376675E-083
   75.1331250000000        -2.485091018772675E-083
   75.3468750000000        -1.679729643262230E-083
   75.5606250000000         2.747993908373473E-084
   75.7743750000000         3.666621057478876E-083
   75.9881250000000         8.563475644276927E-083
   76.2018750000000         1.462424829037879E-082
   76.4156250000000         2.089324136627979E-082
   76.6293750000000         2.562694103875593E-082
   76.8431250000000         2.623000638895739E-082
   77.0568750000000         1.940075534548666E-082
   77.2706250000000         1.596934746708944E-083
   77.4843750000000        -3.008255555175408E-082
   77.6981250000000        -7.655901479634170E-082
   77.9118750000000        -1.350437826682421E-081
   78.1256250000000        -1.971453807576836E-081
   78.3393750000000        -2.472553912565130E-081
   78.5531250000000        -2.618885474500810E-081
   78.7668750000000        -2.108542971006099E-081
   78.9806250000000        -6.122486917238042E-082
   79.1943750000000         2.150668412679682E-081
   79.4081250000000         6.296322922308828E-081
   79.6218750000000         1.162565641216298E-080
   79.8356250000000         1.745814938518592E-080
   80.0493750000000         2.248657544830082E-080
   80.2631250000000         2.470894797281090E-080
   80.4768750000000         2.151059179912052E-080
   80.6906250000000         9.976820680585952E-081
   80.9043750000000        -1.249338891197190E-080
   81.1181250000000        -4.723913743418003E-080
   81.3318750000000        -9.309230526318917E-080
   81.5456250000000        -1.449813346983774E-079
   81.7593750000000        -1.926708713523758E-079
   81.9731250000000        -2.200790100472480E-079
   82.1868750000000        -2.057496397951178E-079
   82.4006250000000        -1.251236846254700E-079
   82.6143750000000         4.481408930410879E-080
   82.8281250000000         3.182056451632695E-079
   83.0418750000000         6.905311676562055E-079
   83.2556250000000         1.127401726129686E-078
   83.4693750000000         1.554039660501275E-078
   83.6831250000000         1.848741420518815E-078
   83.8968750000000         1.844685100872709E-078
   84.1106250000000         1.345026806880230E-078
   84.3243750000000         1.558594648966983E-079
   84.5381250000000        -1.860223060057867E-078
   84.7518750000000        -4.710943624486418E-078
   84.9656250000000        -8.188367458287296E-078
   85.1793750000000        -1.178469242455245E-077
   85.3931250000000        -1.463312746700703E-077
   85.6068750000000        -1.550532499913627E-077
   85.8206250000000        -1.290182037618061E-077
   86.0343750000000        -5.270493609173104E-078
   86.2481250000000         8.623405560575578E-078
   86.4618750000000         2.917685518239643E-077
   86.6756250000000         5.531919260152304E-077
   86.8893750000000         8.386733902606814E-077
   87.1031250000000         1.090229131755656E-076
   87.3168750000000         1.222280648769990E-076
   87.5306250000000         1.126379251407310E-076
   87.7443750000000         6.846763129321570E-077
   87.9581250000000        -2.059387523235358E-077
   88.1718750000000        -1.598655945963151E-076
   88.3856250000000        -3.452714091197806E-076
   88.5993750000000        -5.586283857218999E-076
   88.8131250000000        -7.636273696087997E-076
   89.0268750000000        -9.039332633974047E-076
   89.2406250000000        -9.051541898752138E-076
   89.4543750000000        -6.825030626393634E-076
   89.6681250000000        -1.556371682942530E-076
   89.8818750000000         7.287470566657940E-076
   90.0956250000000         1.967574146289060E-075
   90.3093750000000         3.468583236514710E-075
   90.5231250000000         5.020117967310245E-075
   90.7368750000000         6.272485537141917E-075
   90.9506250000000         6.742247630451692E-075
   91.1643750000000         5.851784969425212E-075
   91.3781250000000         3.014990495936523E-075
   91.5918750000000        -2.225059780017396E-075
   91.8056250000000        -1.000992635340291E-074
   92.0193750000000        -1.994839981032070E-074
   92.2331250000000        -3.090265949319737E-074
   92.4468750000000        -4.083182278372117E-074
   92.6606250000000        -4.676351044344570E-074
   92.8743750000000        -4.497327876312189E-074
   93.0881250000000        -3.144691449389240E-074
   93.3018750000000        -2.674909705278179E-075
   93.5156250000000         4.322355057113402E-074
   93.7293750000000         1.051302353176390E-073
   93.9431250000000         1.774998173730104E-073
   94.1568750000000         2.491819629966550E-073
   94.3706250000000         3.029132451126371E-073
   94.5843750000000         3.159723106321795E-073
   94.7981250000000         2.624887857014766E-073
   95.0118750000000         1.177753197753662E-073
   95.2256250000000        -1.352229968861741E-073
   95.4393750000000        -4.977157416714977E-073
   95.6531250000000        -9.460538612392855E-073
   95.8668750000000        -1.423592647009604E-072
   96.0806250000000        -1.835813823607764E-072
   96.2943750000000        -2.051617843570804E-072
   96.5081250000000        -1.913827758342763E-072
   96.7218750000000        -1.261434082538321E-072
   96.9356250000000         3.526783351994181E-074
   97.1493750000000         2.027879845692477E-072
   97.3631250000000         4.636041396424932E-072
   97.5768750000000         7.595193936127166E-072
   97.7906250000000         1.041889039481809E-071
   98.0043750000000         1.239204790994507E-071
   98.2181250000000         1.261305513621639E-071
   98.4318750000000         1.010081413261105E-071
   98.6456250000000         3.976296908632178E-072
   98.8593750000000        -6.283902524513313E-072
   99.0731250000000        -2.054235581594209E-071
   99.2868750000000        -3.768665288511243E-071
   99.5006250000000        -5.537322117315112E-071
   99.7143750000000        -6.991734420053329E-071
   99.9281250000000        -7.642974648041605E-071
   100.141875000000        -6.929556593914878E-071
   100.355625000000        -4.306283856035195E-071
   100.569375000000         6.250960502562056E-072
   100.783125000000         7.951604274452133E-071
   100.996875000000         1.727102557120675E-070
   101.210625000000         2.753326210891280E-070
   101.424375000000         3.694642751110946E-070
   101.638125000000         4.300129521415539E-070
   101.851875000000         4.266798014437877E-070
   102.065625000000         3.280700336491006E-070
   102.279375000000         1.080985824327566E-070
   102.493125000000        -2.455961956917002E-070
   102.706875000000        -7.221080328709649E-070
   102.920625000000        -1.278149346825711E-069
   103.134375000000        -1.831602497522141E-069
   103.348125000000        -2.260471307551074E-069
   103.561875000000        -2.410105851345502E-069
   103.775625000000        -2.111138456026947E-069
   103.989375000000        -1.209381085567521E-069
   104.203125000000         3.931051235019431E-070
   104.416875000000         2.689404813894538E-069
   104.630625000000         5.518655201659810E-069
   104.844375000000         8.526998993338507E-069
   105.058125000000         1.115194463830530E-068
   105.271875000000         1.264472259293661E-068
   105.485625000000         1.214382445711938E-068
   105.699375000000         8.807946915621613E-069
   105.913125000000         2.007449053826616E-069
   106.126875000000        -8.439773669591271E-069
   106.340625000000        -2.201840663122522E-068
   106.554375000000        -3.729951810133247E-068
   106.768125000000        -5.182066254336649E-068
   106.981875000000        -6.213309369031672E-068
   107.195625000000        -6.408344700483074E-068
   107.409375000000        -5.337753844039593E-068
   107.623125000000        -2.643476412047149E-068
   107.836875000000         1.851741665830938E-068
   108.050625000000         8.023450566999775E-068
   108.264375000000         1.533392325560191E-067
   108.478125000000         2.275813793488866E-067
   108.691875000000         2.878028633763705E-067
   108.905625000000         3.149353784133141E-067
   109.119375000000         2.882837469020456E-067
   109.333125000000         1.891859859255319E-067
   109.546875000000         5.886480783818017E-069
   109.760625000000        -2.608748138343520E-067
   109.974375000000        -5.924298229202000E-067
   110.188125000000        -9.481346383961256E-067
   110.401875000000        -1.264184760871822E-066
   110.615625000000        -1.456815199208454E-066
   110.829375000000        -1.431144464040265E-066
   111.043125000000        -1.096273256482692E-066
   111.256875000000        -3.861847113801165E-067
   111.470625000000         7.154408213793257E-067
   111.684375000000         2.150042007941376E-066
   111.898125000000         3.763795655162347E-066
   112.111875000000         5.298443040240286E-066
   112.325625000000         6.400132031000497E-066
   112.539375000000         6.652214749543789E-066
   112.753125000000         5.635433786601713E-066
   112.966875000000         3.014613355062124E-066
   113.180625000000        -1.355014186837604E-066
   113.394375000000        -7.315814442214914E-066
   113.608125000000        -1.431123646020029E-065
   113.821875000000        -2.133169367000990E-065
   114.035625000000        -2.693229200996333E-065
   114.249375000000        -2.934924712535454E-065
   114.463125000000        -2.673244749102996E-065
   114.676875000000        -1.749457879704721E-065
   114.890625000000        -7.528965949286294E-067
   115.104375000000         2.318981248776089E-065
   115.318125000000         5.240926417116081E-065
   115.531875000000         8.307880374534193E-065
   115.745625000000         1.094673625380982E-064
   115.959375000000         1.243333360090335E-064
   116.173125000000         1.197974970557856E-064
   116.386875000000         8.871251173412053E-065
   116.600625000000         2.645016577168708E-065
   116.814375000000        -6.709253680119750E-065
   117.028125000000        -1.855952541360347E-064
   117.241875000000        -3.149636247307772E-064
   117.455625000000        -4.330327894818187E-064
   117.669375000000        -5.108212131592899E-064
   117.883125000000        -5.157124996485285E-064
   118.096875000000        -4.166973612793287E-064
   118.310625000000        -1.914344561206598E-064
   118.524375000000         1.655869777184462E-064
   118.738125000000         6.350206069159391E-064
   118.951875000000         1.166486555975200E-063
   119.165625000000         1.676273280999263E-063
   119.379375000000         2.050968045365294E-063
   119.593125000000         2.158673496110491E-063
   119.806875000000         1.868574356259066E-063
   120.020625000000         1.078207290975037E-063
   120.234375000000        -2.540579931239723E-064
   120.448125000000        -2.075891053721460E-063
   120.661875000000        -4.213755908691658E-063
   120.875625000000        -6.359488740439585E-063
   121.089375000000        -8.078982896982253E-063
   121.303125000000        -8.850052428303684E-063
   121.516875000000        -8.133403774689416E-063
   121.730625000000        -5.475455289234306E-063
   121.944375000000        -6.347573359120572E-064
   122.158125000000         6.284301239049145E-063
   122.371875000000         1.471474313689667E-062
   122.585625000000         2.355757586676900E-062
   122.799375000000         3.119242419849815E-062
   123.013125000000         3.559762589269807E-062
   123.226875000000         3.459861520476983E-062
   123.440625000000         2.624491274188096E-062
   123.654375000000         9.290269320053290E-063
   123.868125000000        -1.628014170321870E-062