  -1.60312500000000         0.000000000000000E+000
  -1.38937500000000         0.000000000000000E+000
  -1.17562500000000         0.000000000000000E+000
 -0.961875000000000         0.000000000000000E+000
 -0.748125000000000         0.000000000000000E+000
 -0.534375000000000         0.000000000000000E+000
 -0.320625000000000         0.000000000000000E+000
 -0.106875000000000         0.000000000000000E+000
  0.106875000000000         0.000000000000000E+000
  0.320625000000000         0.000000000000000E+000
  0.534375000000000         0.000000000000000E+000
  0.748125000000000         0.000000000000000E+000
  0.961875000000000         0.000000000000000E+000
   1.17562500000000         0.000000000000000E+000
   1.38937500000000         0.000000000000000E+000
   1.60312500000000         0.000000000000000E+000
   1.81687500000000         0.000000000000000E+000
   2.03062500000000         0.000000000000000E+000
   2.24437500000000         0.000000000000000E+000
   2.45812500000000         0.000000000000000E+000
   2.67187500000000         0.000000000000000E+000
   2.88562500000000         0.000000000000000E+000
   3.09937500000000         0.000000000000000E+000
   3.31312500000000         0.000000000000000E+000
   3.52687500000000         0.000000000000000E+000
   3.74062500000000         0.000000000000000E+000
   3.95437500000000         0.000000000000000E+000
   4.16812500000000         0.000000000000000E+000
   4.38187500000000         0.000000000000000E+000
   4.59562500000000         0.000000000000000E+000
   4.80937500000000         0.000000000000000E+000
   5.02312500000000         0.000000000000000E+000
   5.23687500000000         0.000000000000000E+000
   5.45062500000000         0.000000000000000E+000
   5.66437500000000         0.000000000000000E+000
   5.87812500000000         0.000000000000000E+000
   6.09187500000000         0.000000000000000E+000
   6.30562500000000         0.000000000000000E+000
   6.51937500000000         0.000000000000000E+000
   6.73312500000000         0.000000000000000E+000
   6.94687500000000         0.000000000000000E+000
   7.16062500000000         0.000000000000000E+000
   7.37437500000000         0.000000000000000E+000
   7.58812500000000         0.000000000000000E+000
   7.80187500000000         0.000000000000000E+000
   8.01562500000000         0.000000000000000E+000
   8.22937500000000         0.000000000000000E+000
   8.44312500000000         0.000000000000000E+000
   8.65687500000000         0.000000000000000E+000
   8.87062500000000         0.000000000000000E+000
   9.08437500000000         0.000000000000000E+000
   9.29812500000000         0.000000000000000E+000
   9.51187500000000        -1.592687899777857E-189
   9.72562500000000        -6.437506260105278E-183
   9.93937500000000        -8.585890891633000E-180
   10.1531250000000        -1.029082559414608E-177
   10.3668750000000         3.053021923175085E-175
   10.5806250000000         3.424488006661841E-173
   10.7943750000000        -1.094300298301904E-171
   11.0081250000000        -1.428234556028665E-169
   11.2218750000000        -5.303659716615574E-168
   11.4356250000000        -1.121350067200669E-166
   11.6493750000000        -1.510205637237632E-165
   11.8631250000000        -1.186997735466495E-164
   12.0768750000000        -6.286101801378907E-165
   12.2906250000000         1.300392645986811E-162
   12.5043750000000         2.061484268732333E-161
   12.7181250000000         1.751465464608228E-160
   12.9318750000000         6.399842853438935E-160
   13.1456250000000        -4.792611735079202E-159
   13.3593750000000        -9.923055476790829E-158
   13.5731250000000        -9.777103535215008E-157
   13.7868750000000        -9.230193313573009E-156
   14.0006250000000        -1.094084661861309E-154
   14.2143750000000        -1.353176376056167E-153
   14.4281250000000        -1.450596334029811E-152
   14.6418750000000        -1.298755887659314E-151
   14.8556250000000        -9.859184318856202E-151
   15.0693750000000        -6.493224097977674E-150
   15.2831250000000        -3.787927513889258E-149
   15.4968750000000        -1.991568568165782E-148
   15.7106250000000        -9.575461420633880E-148
   15.9243750000000        -4.263533912173191E-147
   16.1381250000000        -1.778100495663771E-146
   16.3518750000000        -7.019190115107840E-146
   16.5656250000000        -2.648438203811580E-145
   16.7793750000000        -9.633779867613981E-145
   16.9931250000000        -3.401173618495794E-144
   17.2068750000000        -1.170109597195052E-143
   17.4206250000000        -3.925422268302803E-143
   17.6343750000000        -1.280648230953174E-142
   17.8481250000000        -4.040108236387990E-142
   18.0618750000000        -1.222590018677540E-141
   18.2756250000000        -3.512964162619347E-141
   18.4893750000000        -9.461819314593851E-141
   18.7031250000000        -2.346990851269825E-140
   18.9168750000000        -5.215181692102989E-140
   19.1306250000000        -9.855546299012165E-140
   19.3443750000000        -1.391415079581244E-139
   19.5581250000000        -7.484582460647782E-140
   19.7718750000000         2.612468617228636E-139
   19.9856250000000         4.455159300533023E-139
   20.1993750000000        -4.511274054870125E-138
   20.4131250000000        -4.113974744680059E-137
   20.6268750000000        -2.179732571856425E-136
   20.8406250000000        -9.146551512468154E-136
   21.0543750000000        -3.311480322182594E-135
   21.2681250000000        -1.072088538530457E-134
   21.4818750000000        -3.155673048359559E-134
   21.6956250000000        -8.497701202093238E-134
   21.9093750000000        -2.089143108728012E-133
   22.1231250000000        -4.631253539993689E-133
   22.3368750000000        -8.960529569859154E-133
   22.5506250000000        -1.379407191718498E-132
   22.7643750000000        -1.063456034174821E-132
   22.9781250000000         3.094040846767109E-132
   23.1918750000000         1.975599735962589E-131
   23.4056250000000         7.011994919158351E-131
   23.6193750000000         1.995117946276132E-130
   23.8331250000000         4.911168947468812E-130
   24.0468750000000         1.065982709421120E-129
   24.2606250000000         2.018130489121692E-129
   24.4743750000000         3.156303578426946E-129
   24.6881250000000         3.282714815163259E-129
   24.9018750000000        -1.461153553868418E-129
   25.1156250000000        -2.079885190937657E-128
   25.3293750000000        -7.538412169289744E-128
   25.5431250000000        -2.022610681511257E-127
   25.7568750000000        -4.539205018762816E-127
   25.9706250000000        -8.717990200184364E-127
   26.1843750000000        -1.391567266874472E-126
   26.3981250000000        -1.601968385791102E-126
   26.6118750000000        -2.444687221602455E-127
   26.8256250000000         5.641276672221621E-126
   27.0393750000000         2.181988492049020E-125
   27.2531250000000         5.745152170333994E-125
   27.4668750000000         1.228655727710032E-124
   27.6806250000000         2.192330434391948E-124
   27.8943750000000         3.102481228087260E-124
   28.1081250000000         2.610172908015741E-124
   28.3218750000000        -2.705121234394497E-124
   28.5356250000000        -1.985394835672996E-123
   28.7493750000000        -6.069396396531041E-123
   28.9631250000000        -1.406621256756472E-122
   29.1768750000000        -2.696722783281409E-122
   29.3906250000000        -4.250562201093752E-122
   29.6043750000000        -4.908410726211087E-122
   29.8181250000000        -1.456639745382860E-122
   30.0318750000000         1.305529862930116E-121
   30.2456250000000         5.110529013455981E-121
   30.4593750000000         1.308910926519610E-120
   30.6731250000000         2.707500670895483E-120
   30.8868750000000         4.696277314250447E-120
   31.1006250000000         6.604077919126003E-120
   31.3143750000000         6.196665785982832E-120
   31.5281250000000        -1.767759036333788E-120
   31.7418750000000        -2.733479452135832E-119
   31.9556250000000        -8.653177466005353E-119
   32.1693750000000        -1.993755726685238E-118
   32.3831250000000        -3.795221988744848E-118
   32.5968750000000        -6.068690607245536E-118
   32.8106250000000        -7.714408287468082E-118
   33.0243750000000        -5.782426750654174E-118
   33.2381250000000         5.837402368370047E-118
   33.4518750000000         3.766551975748912E-117
   33.6656250000000         1.045923585747693E-116
   33.8793750000000         2.219261676480651E-116
   34.0931250000000         3.929737871272899E-116
   34.3068750000000         5.816867275426332E-116
   34.5206250000000         6.636486973397792E-116
   34.7343750000000         3.534772032769250E-116
   34.9481250000000        -8.777312231388402E-116
   35.1618750000000        -3.847232610637775E-115
   35.3756250000000        -9.560175308797745E-115
   35.5893750000000        -1.877005057457361E-114
   35.8031250000000        -3.091271914563011E-114
   36.0168750000000        -4.208452619740027E-114
   36.2306250000000        -4.186786664478620E-114
   36.4443750000000        -9.324240369103637E-115
   36.6581250000000         9.033881174711830E-114
   36.8718750000000         3.047801663168736E-113
   37.0856250000000         6.824022312603096E-113
   37.2993750000000         1.238623676328383E-112
   37.5131250000000         1.887725673403098E-112
   37.7268750000000         2.330210540958193E-112
   37.9406250000000         1.899946297174066E-112
   38.1543750000000        -5.898293259735126E-113
   38.3681250000000        -6.898194096799743E-112
   38.5818750000000        -1.910498495954221E-111
   38.7956250000000        -3.873758696241793E-111
   39.0093750000000        -6.486677205735359E-111
   39.2231250000000        -9.079856011493702E-111
   39.4368750000000        -9.932300983830500E-111
   39.6506250000000        -5.734773342960479E-111
   39.8643750000000         8.761021133160204E-111
   40.0781250000000         4.040579724016571E-110
   40.2918750000000         9.581007821089578E-110
   40.5056250000000         1.769019497547252E-109
   40.7193750000000         2.727860950467114E-109
   40.9331250000000         3.474557154227753E-109
   41.1468750000000         3.247491431312821E-109
   41.3606250000000         7.553850889343862E-110
   41.5743750000000        -5.822009788849565E-109
   41.7881250000000        -1.852534594156626E-108
   42.0018750000000        -3.875176882732017E-108
   42.2156250000000        -6.556837028574520E-108
   42.4293750000000        -9.303978555904006E-108
   42.6431250000000        -1.067384450021552E-107
   42.8568750000000        -8.027668284025890E-108
   43.0706250000000         2.622302783894617E-108
   43.2843750000000         2.623873679776887E-107
   43.4981250000000         6.738251057700508E-107
   43.7118750000000         1.272887431897220E-106
   43.9256250000000         1.989804472467674E-106
   44.1393750000000         2.605047796687874E-106
   44.3531250000000         2.674331712066249E-106
   44.5668750000000         1.475000387034792E-106
   44.7806250000000        -1.974119615566393E-106
   44.9943750000000        -8.742576674659825E-106
   45.2081250000000        -1.957523181002286E-105
   45.4218750000000        -3.415415696544113E-105
   45.6356250000000        -5.001380844836644E-105
   45.8493750000000        -6.122345733528081E-105
   46.0631250000000        -5.717885949511765E-105
   46.2768750000000        -2.215848152316260E-105
   46.4906250000000         6.335306511795290E-105
   46.7043750000000         2.183053183789832E-104
   46.9181250000000         4.524185310624873E-104
   47.1318750000000         7.524623888222685E-104
   47.3456250000000         1.063994948280023E-103
   47.5593750000000         1.271263827717117E-103
   47.7731250000000         1.180994592079145E-103
   47.9868750000000         5.192267250820964E-104
   48.2006250000000        -1.046628864057086E-103
   48.4143750000000        -3.846878815280761E-103
   48.6281250000000        -8.097336628746449E-103
   48.8418750000000        -1.372767628497086E-102
   49.0556250000000        -2.014894619193353E-102
   49.2693750000000        -2.596600971004731E-102
   49.4831250000000        -2.864618588253605E-102
   49.6968750000000        -2.416032737434801E-102
   49.9106250000000        -6.627373727898505E-103
   50.1243750000000         3.195432771125889E-102
   50.3381250000000         1.016646036898343E-101
   50.5518750000000         2.137812106217323E-101
   50.7656250000000         3.780010130642704E-101
   50.9793750000000         5.959283485833358E-101
   51.1931250000000         8.481478414345373E-101
   51.4068750000000         1.071771529253378E-100
   51.6206250000000         1.126348610251430E-100
   51.8343750000000         7.500716696588702E-101
   52.0481250000000        -4.825795656645562E-101
   52.2618750000000        -3.174235369429221E-100
   52.4756250000000        -8.037443926392876E-100
   52.6893750000000        -1.566666115725243E-099
   52.9031250000000        -2.604641071396653E-099
   53.1168750000000        -3.769661073044212E-099
   53.3306250000000        -4.642087007601625E-099
   53.5443750000000        -4.379447611424317E-099
   53.7581250000000        -1.585246735487330E-099
   53.9718750000000         5.706060949588540E-099
   54.1856250000000         1.976764062232940E-098
   54.3993750000000         4.241972179627345E-098
   54.6131250000000         7.352094739181697E-098
   54.8268750000000         1.085305467230464E-097
   55.0406250000000         1.352034812949378E-097
   55.2543750000000         1.299905338621210E-097
   55.4681250000000         5.555991252015772E-098
   55.6818750000000        -1.379790327126283E-097
   55.8956250000000        -5.042746758327397E-097
   56.1093750000000        -1.079525490499599E-096
   56.3231250000000        -1.844277725399564E-096
   56.5368750000000        -2.666341858099140E-096
   56.7506250000000        -3.229653247380123E-096
   56.9643750000000        -2.966051553865988E-096
   57.1781250000000        -1.025045579849360E-096
   57.3918750000000         3.661005154952813E-096
   57.6056250000000         1.213770400374655E-095
   57.8193750000000         2.492786158517889E-095
   58.0331250000000         4.120229901536411E-095
   58.2468750000000         5.762890489451967E-095
   58.4606250000000         6.705780620391675E-095
   58.6743750000000         5.744618084665354E-095
   58.8881250000000         1.175972484017888E-095
   59.1018750000000        -9.004320677877246E-095
   59.3156250000000        -2.655573506420692E-094
   59.5293750000000        -5.196396081418986E-094
   59.7431250000000        -8.285471178244526E-094
   59.9568750000000        -1.119382461393180E-093
   60.1706250000000        -1.248649748079758E-093
   60.3843750000000        -9.880833116674130E-094
   60.5981250000000        -3.133862443779755E-095
   60.8118750000000         1.959547795440174E-093
   61.0256250000000         5.246147600229251E-093
   61.2393750000000         9.825533665815062E-093
   61.4531250000000         1.515770930261034E-092
   61.6668750000000         1.983448230019282E-092
   61.8806250000000         2.126577092564141E-092
   62.0943750000000         1.552852240881965E-092
   62.3081250000000        -2.397363631174020E-093
   62.5218750000000        -3.771451755807713E-092
   62.7356250000000        -9.390689887471638E-092
   62.9493750000000        -1.696339858588939E-091
   63.1631250000000        -2.544668878247305E-091
   63.3768750000000        -3.240154079316010E-091
   63.5906250000000        -3.357667215113676E-091
   63.8043750000000        -2.279525425788524E-091
   64.0181250000000         7.519170665766725E-092
   64.2318750000000         6.476727608802801E-091
   64.4456250000000         1.531529510236055E-090
   64.6593750000000         2.690001458689507E-090
   64.8731250000000         3.946214830946041E-090
   65.0868750000000         4.917033568387543E-090
   65.3006250000000         4.962552760991615E-090
   65.5143750000000         3.184841226615533E-090
   65.7281250000000        -1.477849438337194E-090
   65.9418750000000        -1.000827769465722E-089
   66.1556250000000        -2.287218984599656E-089
   66.3693750000000        -3.936811929559177E-089
   66.5831250000000        -5.681070466075764E-089
   66.7968750000000        -6.969544197709916E-089
   67.0106250000000        -6.913247600137375E-089
   67.2243750000000        -4.299666236377900E-089
   67.4381250000000         2.261943211433045E-089
   67.6518750000000         1.400115782259328E-088
   67.8656250000000         3.140230540198318E-088
   68.0793750000000         5.336788858561761E-088
   68.2931250000000         7.620448213151298E-088
   68.5068750000000         9.263400191595007E-088
   68.7206250000000         9.120002973872783E-088
   68.9343750000000         5.661922615421663E-088
   69.1481250000000        -2.822963442314984E-088
   69.3618750000000        -1.779633358910406E-087
   69.5756250000000        -3.974876615120802E-087
   69.7893750000000        -6.719687289846132E-087
   70.0031250000000        -9.550266842788950E-087
   70.2168750000000        -1.157678698865832E-086
   70.4306250000000        -1.142413742174782E-086
   70.6443750000000        -7.286890013130348E-087
   70.8581250000000         2.825034302159557E-087
   71.0718750000000         2.057444510178751E-086
   71.2856250000000         4.647009598066096E-086
   71.4993750000000         7.874141424031781E-086
   71.7131250000000         1.120432638473572E-085
   71.9268750000000         1.362792891500645E-085
   72.1406250000000         1.360259150221746E-085
   72.3543750000000         9.122935934261337E-086
   72.5681250000000        -2.002954589767567E-086
   72.7818750000000        -2.159464698210856E-085
   72.9956250000000        -5.021375921159531E-085
   73.2093750000000        -8.597748075234002E-085
   73.4231250000000        -1.232136520288533E-084
   73.6368750000000        -1.512616349319180E-084
   73.8506250000000        -1.539135219488159E-084
   74.0643750000000        -1.101706609209814E-084
   74.2781250000000         2.903444157505582E-086
   74.4918750000000         2.045108916092628E-084
   74.7056250000000         5.012331761820367E-084
   74.9193750000000         8.752362881442321E-084
   75.1331250000000         1.271005353235108E-083
   75.3468750000000         1.583586355471359E-083
   75.5606250000000         1.653086393408552E-083
   75.7743750000000         1.271822114499277E-083
   75.9881250000000         2.114078563559044E-084
   76.2018750000000        -1.723574676651185E-083
   76.4156250000000        -4.611822562093623E-083
   76.6293750000000        -8.304465019934189E-083
   76.8431250000000        -1.230044428476586E-082
   77.0568750000000        -1.563528332271183E-082
   77.2706250000000        -1.682614329528833E-082
   77.4843750000000        -1.393040519991790E-082
   77.6981250000000        -4.782677448881554E-083
   77.9118750000000         1.253086284856785E-082
   78.1256250000000         3.892944716404282E-082
   78.3393750000000         7.335091704650002E-082
   78.5531250000000         1.116347298705145E-081
   78.7668750000000         1.455063345264297E-081
   78.9806250000000         1.620280218695029E-081
   79.1943750000000         1.440027061687859E-081
   79.4081250000000         7.188295641903756E-082
   79.6218750000000        -7.230907037454944E-082
   79.8356250000000        -2.987681402298239E-081
   80.0493750000000        -6.015725420073862E-081
   80.2631250000000        -9.491233903140491E-081
   80.4768750000000        -1.275205853559665E-080
   80.6906250000000        -1.473607040620875E-080
   80.9043750000000        -1.400222073493050E-080
   81.1181250000000        -8.871501142450053E-081
   81.3318750000000         2.270174939149669E-081
   81.5456250000000         2.048179302893754E-080
   81.7593750000000         4.559911425818308E-080
   81.9731250000000         7.545314112867276E-080
   82.1868750000000         1.051136253783041E-079
   82.4006250000000         1.263807772005044E-079
   82.6143750000000         1.278277649088148E-079
   82.8281250000000         9.574572632941539E-080
   83.0418750000000         1.632890784677748E-080
   83.2556250000000        -1.206768103178982E-079
   83.4693750000000        -3.168870615314963E-079
   83.6831250000000        -5.591803948406065E-079
   83.8968750000000        -8.135597170865952E-079
   84.1106250000000        -1.020580545720978E-078
   84.3243750000000        -1.094565792079823E-078
   84.5381250000000        -9.292413553419831E-079
   84.7518750000000        -4.124084513468916E-079
   84.9656250000000         5.484497214372780E-079
   85.1793750000000         1.989397177427037E-078
   85.3931250000000         3.844653381864847E-078
   85.6068750000000         5.898965226447114E-078
   85.8206250000000         7.748699840219148E-078
   86.0343750000000         8.787183392299795E-078
   86.2481250000000         8.233189775130828E-078
   86.4618750000000         5.222070320868492E-078
   86.6756250000000        -1.025047843518018E-078
   86.8893750000000        -1.094907554225294E-077
   87.1031250000000        -2.433105032224020E-077
   87.3168750000000        -3.993962906133317E-077
   87.5306250000000        -5.521871986471194E-077
   87.7443750000000        -6.611876727626833E-077
   87.9581250000000        -6.720155526635340E-077
   88.1718750000000        -5.215780653527695E-077
   88.3856250000000        -1.485684951411508E-077
   88.5993750000000         4.901428659871194E-077
   88.8131250000000         1.397781432697136E-076
   89.0268750000000         2.512826706281923E-076
   89.2406250000000         3.685373630713267E-076
   89.4543750000000         4.661272618496799E-076
   89.6681250000000         5.082579862460800E-076
   89.8818750000000         4.513841215288391E-076
   90.0956250000000         2.502952771468175E-076
   90.3093750000000        -1.318048247129907E-076
   90.5231250000000        -7.093585542869739E-076
   90.7368750000000        -1.457808548723096E-075
   90.9506250000000        -2.296731264640030E-075
   91.1643750000000        -3.076726022904141E-075
   91.3781250000000        -3.575413987813292E-075
   91.5918750000000        -3.508767379839875E-075
   91.8056250000000        -2.563840066840166E-075
   92.0193750000000        -4.572661006739940E-076
   92.2331250000000         2.979835414705775E-075
   92.4468750000000         7.695904208976874E-075
   92.6606250000000         1.330537503396703E-074
   92.8743750000000         1.899036184189819E-074
   93.0881250000000         2.344966043029823E-074
   93.3018750000000         2.493383674571877E-074
   93.5156250000000         2.140634147272223E-074
   93.7293750000000         1.086289556606509E-074
   93.9431250000000        -8.178246606694970E-075
   94.1568750000000        -3.603604328989448E-074
   94.3706250000000        -7.114431819951666E-074
   94.5843750000000        -1.093720074631361E-073
   94.7981250000000        -1.435691545001805E-073
   95.0118750000000        -1.635690421221152E-073
   95.2256250000000        -1.568956009701054E-073
   95.4393750000000        -1.103956384554108E-073
   95.6531250000000        -1.291832377399940E-074
   95.8668750000000         1.410138386209287E-073
   96.0806250000000         3.468594125136727E-073
   96.2943750000000         5.856819764394896E-073
   96.5081250000000         8.207401825329202E-073
   96.7218750000000         9.963491891720432E-073
   96.9356250000000         1.040488644711460E-072
   97.1493750000000         8.725506139553631E-073
   97.3631250000000         4.171735472073383E-073
   97.5768750000000        -3.757930176355243E-073
   97.7906250000000        -1.506533481316268E-072
   98.0043750000000        -2.898863314678742E-072
   98.2181250000000        -4.377341135193807E-072
   98.4318750000000        -5.654946093868101E-072
   98.6456250000000        -6.339622962660685E-072
   98.8593750000000        -5.967998527500430E-072
   99.0731250000000        -4.072679306053753E-072
   99.2868750000000        -2.852131786848244E-073
   99.5006250000000         5.530220392958433E-072
   99.7143750000000         1.312680703749722E-071
   99.9281250000000         2.173423237502569E-071
   100.141875000000         2.996327808192373E-071
   100.355625000000         3.580035938974938E-071
   100.569375000000         3.673871259200265E-071
   100.783125000000         3.008576069608925E-071
   100.996875000000         1.346651114371674E-071
   101.210625000000        -1.449112157818094E-071
   101.424375000000        -5.335087736990251E-071
   101.638125000000        -1.000619291894673E-070
   101.851875000000        -1.483304937140357E-070
   102.065625000000        -1.883965001817544E-070
   102.279375000000        -2.074643625765678E-070
   102.493125000000        -1.910139376411539E-070
   102.706875000000        -1.251332890338028E-070
   102.920625000000         1.421579486564169E-073
   103.134375000000         1.867293131612279E-070
   103.348125000000         4.241679052747976E-070
   103.561875000000         6.859009875861227E-070
   103.775625000000         9.272743679004752E-070
   103.989375000000         1.086518172942562E-069
   104.203125000000         1.089923537824100E-069
   104.416875000000         8.620864559180635E-070
   104.630625000000         3.413964518900038E-070
   104.844375000000        -5.001141940523298E-070
   105.058125000000        -1.634814077522436E-069
   105.271875000000        -2.959182449578154E-069
   105.485625000000        -4.280366199959160E-069
   105.699375000000        -5.315699878018292E-069
   105.913125000000        -5.711341581590755E-069
   106.126875000000        -5.084891972792514E-069
   106.340625000000        -3.093924240189657E-069
   106.554375000000         4.723624269796056E-070
   106.768125000000         5.587434024140532E-069
   106.981875000000         1.188392331401481E-068
   107.195625000000         1.857557687406636E-068
   107.409375000000         2.443300676922246E-068
   107.623125000000         2.784293500397706E-068
   107.836875000000         2.697614497234652E-068
   108.050625000000         2.007742302943022E-068
   108.264375000000         5.870603818176252E-069
   108.478125000000        -1.595592139672978E-068
   108.691875000000        -4.425062507625558E-068
   108.905625000000        -7.598750683789130E-068
   109.119375000000        -1.060683985432257E-067
   109.333125000000        -1.274759080198417E-067
   109.546875000000        -1.318999736843737E-067
   109.760625000000        -1.109144860472028E-067
   109.974375000000        -5.769708256921058E-068
   110.188125000000         3.083329009352949E-068
   110.401875000000         1.517301730885427E-067
   110.615625000000         2.940030936786714E-067
   110.829375000000         4.374143350745487E-067
   111.043125000000         5.526966304678148E-067
   111.256875000000         6.037621881726024E-067
   111.470625000000         5.522989864876563E-067
   111.684375000000         3.648165214338032E-067
   111.898125000000         2.171258454695162E-068
   112.111875000000        -4.726778814863019E-067
   112.325625000000        -1.080742969785257E-066
   112.539375000000        -1.725227385416712E-066
   112.753125000000        -2.288442876025957E-066
   112.966875000000        -2.619592622336873E-066
   113.180625000000        -2.552116901452158E-066
   113.394375000000        -1.931668850305280E-066
   113.608125000000        -6.533540091831186E-067
   113.821875000000         1.295652527097469E-066
   114.035625000000         3.794759446903951E-066
   114.249375000000         6.559054486687783E-066
   114.463125000000         9.129666533899543E-066
   114.676875000000         1.089629191489498E-065
   114.890625000000         1.116059965658893E-065
   115.104375000000         9.244313979824450E-066
   115.318125000000         4.638019594156948E-066
   115.531875000000        -2.823401612331115E-066
   115.745625000000        -1.278417590423326E-065
   115.959375000000        -2.422611568692446E-065
   116.173125000000        -3.540602582299580E-065
   116.386875000000        -4.391750704879795E-065
   116.600625000000        -4.691542609004438E-065
   116.814375000000        -4.152320884238969E-065
   117.028125000000        -2.541340673942478E-065
   117.241875000000         2.487849005662939E-066
   117.455625000000         4.126768582061304E-065
   117.669375000000         8.740445693823992E-065
   117.883125000000         1.344304566904561E-064
   118.096875000000         1.730645142840250E-064
   118.310625000000         1.919774677461509E-064
   118.524375000000         1.792887911029901E-064
   118.738125000000         1.247815880379663E-064
   118.951875000000         2.267013348960847E-065
   119.165625000000        -1.254260876919020E-064
   119.379375000000        -3.078290583229115E-064
   119.593125000000        -5.011420198841087E-064
   119.806875000000        -6.703198309879576E-064
   120.020625000000        -7.711471195638514E-064
   120.234375000000        -7.555786643700933E-064
   120.448125000000        -5.799924439918525E-064
   120.661875000000        -2.158317135360434E-064
   120.875625000000         3.385814151949892E-064
   121.089375000000         1.046997672446681E-063
   121.303125000000         1.827502505772231E-063
   121.516875000000         2.550962876660360E-063
   121.730625000000         3.048409727537028E-063
   121.944375000000         3.129377433801677E-063
   122.158125000000         2.611799104588136E-063
   122.371875000000         1.361959981138725E-063
   122.585625000000        -6.595972304735610E-064
   122.799375000000        -3.353113383689731E-063
   123.013125000000        -6.444983441991447E-063
   123.226875000000        -9.474400274957593E-063
   123.440625000000        -1.181218458133588E-062
   123.654375000000        -1.272048952403287E-062
   123.868125000000        -1.145725911994505E-062