  -1.60312500000000         0.000000000000000E+000
  -1.38937500000000         0.000000000000000E+000
  -1.17562500000000         0.000000000000000E+000
 -0.961875000000000         0.000000000000000E+000
 -0.748125000000000         0.000000000000000E+000
 -0.534375000000000         0.000000000000000E+000
 -0.320625000000000         0.000000000000000E+000
 -0.106875000000000         0.000000000000000E+000
  0.106875000000000         0.000000000000000E+000
  0.320625000000000         0.000000000000000E+000
  0.534375000000000         0.000000000000000E+000
  0.748125000000000         0.000000000000000E+000
  0.961875000000000         0.000000000000000E+000
   1.17562500000000         0.000000000000000E+000
   1.38937500000000         0.000000000000000E+000
   1.60312500000000         0.000000000000000E+000
   1.81687500000000         0.000000000000000E+000
   2.03062500000000         0.000000000000000E+000
   2.24437500000000         0.000000000000000E+000
   2.45812500000000         0.000000000000000E+000
   2.67187500000000         0.000000000000000E+000
   2.88562500000000         0.000000000000000E+000
   3.09937500000000         0.000000000000000E+000
   3.31312500000000         0.000000000000000E+000
   3.52687500000000         0.000000000000000E+000
   3.74062500000000         0.000000000000000E+000
   3.95437500000000         0.000000000000000E+000
   4.16812500000000         0.000000000000000E+000
   4.38187500000000         0.000000000000000E+000
   4.59562500000000         0.000000000000000E+000
   4.80937500000000         0.000000000000000E+000
   5.02312500000000         0.000000000000000E+000
   5.23687500000000         0.000000000000000E+000
   5.45062500000000         0.000000000000000E+000
   5.66437500000000         0.000000000000000E+000
   5.87812500000000         0.000000000000000E+000
   6.09187500000000         0.000000000000000E+000
   6.30562500000000         0.000000000000000E+000
   6.51937500000000         0.000000000000000E+000
   6.73312500000000         0.000000000000000E+000
   6.94687500000000         0.000000000000000E+000
   7.16062500000000         0.000000000000000E+000
   7.37437500000000         0.000000000000000E+000
   7.58812500000000         0.000000000000000E+000
   7.80187500000000         0.000000000000000E+000
   8.01562500000000         0.000000000000000E+000
   8.22937500000000         0.000000000000000E+000
   8.44312500000000         0.000000000000000E+000
   8.65687500000000         0.000000000000000E+000
   8.87062500000000         0.000000000000000E+000
   9.08437500000000         0.000000000000000E+000
   9.29812500000000        -3.485928168865047E-188
   9.51187500000000        -1.408981213989556E-181
   9.72562500000000        -1.876382532625938E-178
   9.93937500000000        -2.214790936315674E-176
   10.1531250000000         6.727031694849183E-174
   10.3668750000000         7.361334367371630E-172
   10.5806250000000        -2.544339263347379E-170
   10.7943750000000        -3.077336290850708E-168
   11.0081250000000        -1.098535805086424E-166
   11.2218750000000        -2.225270232726674E-165
   11.4356250000000        -2.826145280424859E-164
   11.6493750000000        -1.961454360528792E-163
   11.8631250000000         3.489598253567454E-163
   12.0768750000000         2.847716282720624E-161
   12.2906250000000         3.941374654721431E-160
   12.5043750000000         2.959510358352462E-159
   12.7181250000000         6.791691887080710E-159
   12.9318750000000        -1.290775830496887E-157
   13.1456250000000        -1.948066826987455E-156
   13.3593750000000        -1.716038396981257E-155
   13.5731250000000        -1.613953703098617E-154
   13.7868750000000        -2.011986783762664E-153
   14.0006250000000        -2.502983371561802E-152
   14.2143750000000        -2.606536094797722E-151
   14.4281250000000        -2.237227749231916E-150
   14.6418750000000        -1.621117127745958E-149
   14.8556250000000        -1.018025446018370E-148
   15.0693750000000        -5.664100762589044E-148
   15.2831250000000        -2.842945850262756E-147
   15.4968750000000        -1.306902945467801E-146
   15.7106250000000        -5.575948258651603E-146
   15.9243750000000        -2.234995142295756E-145
   16.1381250000000        -8.512633663686181E-145
   16.3518750000000        -3.113240133470433E-144
   16.5656250000000        -1.102850922253353E-143
   16.7793750000000        -3.806734851156457E-143
   16.9931250000000        -1.283048152218122E-142
   17.2068750000000        -4.213963540535065E-142
   17.4206250000000        -1.340747004848522E-141
   17.6343750000000        -4.095846793336857E-141
   17.8481250000000        -1.187665416630642E-140
   18.0618750000000        -3.221328844081813E-140
   18.2756250000000        -8.007345320409449E-140
   18.4893750000000        -1.763930710140941E-139
   18.7031250000000        -3.211670016259857E-139
   18.9168750000000        -3.878770255082408E-139
   19.1306250000000         1.273302795628378E-139
   19.3443750000000         2.295554397064948E-138
   19.5581250000000         5.948841760053502E-138
   19.7718750000000        -3.322975121210092E-138
   19.9856250000000        -1.125227520974823E-136
   20.1993750000000        -6.932005533492186E-136
   20.4131250000000        -3.068678337335366E-135
   20.6268750000000        -1.137796128608091E-134
   20.8406250000000        -3.721116573303746E-134
   21.0543750000000        -1.097107188878345E-133
   21.2681250000000        -2.938655183649050E-133
   21.4818750000000        -7.131780486641799E-133
   21.6956250000000        -1.543411343021803E-132
   21.9093750000000        -2.851311389343977E-132
   22.1231250000000        -3.911582993412899E-132
   22.3368750000000        -1.103691539874257E-132
   22.5506250000000         1.749445816000844E-131
   22.7643750000000         8.408020460910646E-131
   22.9781250000000         2.736860628715430E-130
   23.1918750000000         7.376381452147072E-130
   23.4056250000000         1.729689542307246E-129
   23.6193750000000         3.550373892728450E-129
   23.8331250000000         6.199748890776018E-129
   24.0468750000000         8.257599179810976E-129
   24.2606250000000         4.071550157210645E-129
   24.4743750000000        -2.214450893075207E-128
   24.6881250000000        -1.065961816521841E-127
   24.9018750000000        -3.194162713773450E-127
   25.1156250000000        -7.714662875390082E-127
   25.3293750000000        -1.582253447960494E-126
   25.5431250000000        -2.731123827872971E-126
   25.7568750000000        -3.638049794017972E-126
   25.9706250000000        -2.230068273208299E-126
   26.1843750000000         6.771141954147264E-126
   26.3981250000000         3.431676416095174E-125
   26.6118750000000         9.911006011014150E-125
   26.8256250000000         2.252806753013745E-124
   27.0393750000000         4.257699210742435E-124
   27.2531250000000         6.518499757970206E-124
   27.4668750000000         6.774798585663314E-124
   27.6806250000000        -1.171481970911623E-124
   27.8943750000000        -3.069572972233412E-123
   28.1081250000000        -1.055610590026599E-122
   28.3218750000000        -2.590014400038352E-122
   28.5356250000000        -5.185308515849940E-122
   28.7493750000000        -8.564007217647839E-122
   28.9631250000000        -1.073385800861135E-121
   29.1768750000000        -5.772451367051052E-122
   29.3906250000000         1.961062109109834E-121
   29.6043750000000         8.994755595927498E-121
   29.8181250000000         2.420747283631789E-120
   30.0318750000000         5.151791663611971E-120
   30.2456250000000         9.134748827937235E-120
   30.4593750000000         1.314826101327555E-119
   30.6731250000000         1.291746572780067E-119
   30.8868750000000        -1.772328737964571E-120
   31.1006250000000        -5.067323799911036E-119
   31.3143750000000        -1.654009138220652E-118
   31.5281250000000        -3.852696838046943E-118
   31.7418750000000        -7.360611667983056E-118
   31.9556250000000        -1.174171999475258E-117
   32.1693750000000        -1.473062140364354E-117
   32.3831250000000        -1.033075162006394E-117
   32.5968750000000         1.373963272453093E-117
   32.8106250000000         7.830537597562780E-117
   33.0243750000000         2.120386598479738E-116
   33.2381250000000         4.423003485811257E-116
   33.4518750000000         7.682083962252704E-116
   33.6656250000000         1.103261207340720E-115
   33.8793750000000         1.175638270229971E-115
   34.0931250000000         3.866422283477218E-116
   34.3068750000000        -2.336466645998640E-115
   34.5206250000000        -8.582655068923775E-115
   34.7343750000000        -2.015880567374109E-114
   34.9481250000000        -3.804615078462533E-114
   35.1618750000000        -6.004590947036912E-114
   35.3756250000000        -7.653763015198436E-114
   35.5893750000000        -6.419027103654473E-114
   35.8031250000000         2.124932021282639E-114
   36.0168750000000         2.492602382547078E-113
   36.2306250000000         7.075427893288136E-113
   36.4443750000000         1.469047998972168E-112
   36.6581250000000         2.512161470888870E-112
   36.8718750000000         3.571548669305277E-112
   37.0856250000000         3.909018271597002E-112
   37.2993750000000         2.032883734627770E-112
   37.5131250000000        -4.522244892190971E-112
   37.7268750000000        -1.910192644769683E-111
   37.9406250000000        -4.507668283549160E-111
   38.1543750000000        -8.357775228324395E-111
   38.3681250000000        -1.290993023093052E-110
   38.5818750000000        -1.625292954989665E-110
   38.7956250000000        -1.421912102499361E-110
   39.0093750000000         4.320444030828463E-112
   39.2231250000000         3.809957434389343E-110
   39.4368750000000         1.105291362283221E-109
   39.6506250000000         2.253989526541646E-109
   39.8643750000000         3.753410705436299E-109
   40.0781250000000         5.200260973558952E-109
   40.2918750000000         5.622262565159740E-109
   40.5056250000000         3.237596251434730E-109
   40.7193750000000        -4.643239268899901E-109
   40.9331250000000        -2.131280165084524E-108
   41.1468750000000        -4.957511700887942E-108
   41.3606250000000        -8.941502214902131E-108
   41.5743750000000        -1.340789444942703E-107
   41.7881250000000        -1.646583738293430E-107
   42.0018750000000        -1.442397416815265E-107
   42.2156250000000        -1.433195997116031E-108
   42.4293750000000         3.014453586168407E-107
   42.6431250000000         8.789942145346371E-107
   42.8568750000000         1.751796691326481E-106
   43.0706250000000         2.837979646869259E-106
   43.2843750000000         3.836222239263926E-106
   43.4981250000000         4.106553692906426E-106
   43.7118750000000         2.579495135039905E-106
   43.9256250000000        -2.225340394109696E-106
   44.1393750000000        -1.194945527371736E-105
   44.3531250000000        -2.776627864513156E-105
   44.5668750000000        -4.924129659193006E-105
   44.7806250000000        -7.265058363787283E-105
   44.9943750000000        -8.895341365933265E-105
   45.2081250000000        -8.199489801427280E-105
   45.4218750000000        -2.803135493329588E-105
   45.6356250000000         1.017749619180944E-104
   45.8493750000000         3.338708630118542E-104
   46.0631250000000         6.779692652216684E-104
   46.2768750000000         1.105104064439065E-103
   46.4906250000000         1.519854048655841E-103
   46.7043750000000         1.732601964036229E-103
   46.9181250000000         1.443029063603061E-103
   47.1318750000000         2.514540914025965E-104
   47.3456250000000        -2.282027126747487E-103
   47.5593750000000        -6.512239446258405E-103
   47.7731250000000        -1.250843418726476E-102
   47.9868750000000        -1.978783701552497E-102
   48.2006250000000        -2.701728366793461E-102
   48.4143750000000        -3.174081022656159E-102
   48.6281250000000        -3.020157926765784E-102
   48.8418750000000        -1.731115079759539E-102
   49.0556250000000         1.322431137318442E-102
   49.2693750000000         6.865729288328161E-102
   49.4831250000000         1.568435482929150E-101
   49.6968750000000         2.855627676374729E-101
   49.9106250000000         4.606955503345661E-101
   50.1243750000000         6.813134880895849E-101
   50.3381250000000         9.281506039508385E-101
   50.5518750000000         1.140386619021569E-100
   50.7656250000000         1.175500877841981E-100
   50.9793750000000         7.505550662620004E-101
   51.1931250000000        -6.258785684727241E-101
   51.4068750000000        -3.699935992794528E-100
   51.6206250000000        -9.430134872883671E-100
   51.8343750000000        -1.874352958612068E-099
   52.0481250000000        -3.193334440690784E-099
   52.2618750000000        -4.752894094071187E-099
   52.4756250000000        -6.053984307285572E-099
   52.6893750000000        -6.020111106141755E-099
   52.9031250000000        -2.780644623122848E-099
   53.1168750000000         6.404028690458346E-099
   53.3306250000000         2.484326157348320E-098
   53.5443750000000         5.540847943114787E-098
   53.7581250000000         9.842852015488133E-098
   53.9718750000000         1.481814600083989E-097
   54.1856250000000         1.880209623737234E-097
   54.3993750000000         1.849270691776500E-097
   54.6131250000000         8.554287441739308E-098
   54.8268750000000        -1.824652182201829E-097
   55.0406250000000        -6.978887344144607E-097
   55.2543750000000        -1.514972514683277E-096
   55.4681250000000        -2.606932980750544E-096
   55.6818750000000        -3.781139039290319E-096
   55.8956250000000        -4.573417796584196E-096
   56.1093750000000        -4.147632055989464E-096
   56.3231250000000        -1.254389883784795E-096
   56.5368750000000         5.663341054953665E-096
   56.7506250000000         1.809870979066637E-095
   56.9643750000000         3.671347558296896E-095
   57.1781250000000         6.008100430569233E-095
   57.3918750000000         8.296620474520727E-095
   57.6056250000000         9.440900068016478E-095
   57.8193750000000         7.626069912800011E-095
   58.0331250000000         3.330522463014674E-096
   58.2468750000000        -1.531592943006541E-094
   58.4606250000000        -4.167414611901986E-094
   58.6743750000000        -7.895725732873469E-094
   58.8881250000000        -1.228225587086115E-093
   59.1018750000000        -1.613322931376531E-093
   59.3156250000000        -1.719626303046435E-093
   59.5293750000000        -1.199964481274369E-093
   59.7431250000000         3.955468798211233E-094
   59.9568750000000         3.536252399185212E-093
   60.1706250000000         8.532320467265534E-093
   60.3843750000000         1.523730653955244E-092
   60.5981250000000         2.263433907509827E-092
   60.8118750000000         2.835937780319098E-092
   61.0256250000000         2.829531161416884E-092
   61.2393750000000         1.647636283212119E-092
   61.4531250000000        -1.434484761452014E-092
   61.6668750000000        -7.103416429553360E-092
   61.8806250000000        -1.568983198609150E-091
   62.0943750000000        -2.667736402595680E-091
   62.3081250000000        -3.806440083315221E-091
   62.5218750000000        -4.568976960237734E-091
   62.7356250000000        -4.275575947205788E-091
   62.9493750000000        -1.992996678725720E-091
   63.1631250000000         3.345304329447815E-091
   63.3768750000000         1.265011872964214E-090
   63.5906250000000         2.616939065280265E-090
   63.8043750000000         4.275204165198283E-090
   64.0181250000000         5.894995218737379E-090
   64.2318750000000         6.815103617701980E-090
   64.4456250000000         6.010523833744180E-090
   64.6593750000000         2.139274006838784E-090
   64.8731250000000        -6.246454166465620E-090
   65.0868750000000        -2.025210179870575E-089
   65.3006250000000        -3.990519015311721E-089
   65.5143750000000        -6.314375854345103E-089
   65.7281250000000        -8.465346802349693E-089
   65.9418750000000        -9.484729293842080E-089
   66.1556250000000        -7.949423996729758E-089
   66.3693750000000        -2.071953031583166E-089
   66.5831250000000         9.975796830640500E-089
   66.7968750000000         2.943309088924059E-088
   67.0106250000000         5.597148696554964E-088
   67.2243750000000         8.641079216828914E-088
   67.4381250000000         1.133226395999982E-087
   67.6518750000000         1.239231592512904E-087
   67.8656250000000         9.990215063494761E-088
   68.0793750000000         1.906387031384010E-088
   68.2931250000000        -1.402321126956431E-087
   68.5068750000000        -3.909796127171426E-087
   68.7206250000000        -7.254872302816224E-087
   68.9343750000000        -1.100220802141767E-086
   69.1481250000000        -1.420139467526266E-086
   69.3618750000000        -1.527512720427323E-086
   69.5756250000000        -1.202842405695964E-086
   69.7893750000000        -1.877229987318891E-087
   70.0031250000000         1.759850964491652E-086
   70.2168750000000         4.769565391673058E-086
   70.4306250000000         8.721119724675845E-086
   70.6443750000000         1.307682097147963E-085
   70.8581250000000         1.671622499222444E-085
   71.0718750000000         1.782973787051444E-085
   71.2856250000000         1.395447188434515E-085
   71.4993750000000         2.255531829707739E-086
   71.7131250000000        -1.984243888640101E-085
   71.9268750000000        -5.360013554797112E-085
   72.1406250000000        -9.749200161783007E-085
   72.3543750000000        -1.454666520258054E-084
   72.5681250000000        -1.852916519859013E-084
   72.7818750000000        -1.975838273579315E-084
   72.9956250000000        -1.563746095962898E-084
   73.2093750000000        -3.222761981094596E-085
   73.4231250000000         2.011025805891420E-084
   73.6368750000000         5.558462900429782E-084
   73.8506250000000         1.015445393407502E-083
   74.0643750000000         1.517458233043248E-083
   74.2781250000000         1.937736025405867E-083
   74.4918750000000         2.081785703548123E-083
   74.7056250000000         1.691451370651811E-083
   74.9193750000000         4.763930782926680E-084
   75.1331250000000        -1.820743484387007E-083
   75.3468750000000        -5.320331628583044E-083
   75.5606250000000        -9.865913025605806E-083
   75.7743750000000        -1.486460745904117E-082
   75.9881250000000        -1.914174261867854E-082
   76.2018750000000        -2.086419156522087E-082
   76.4156250000000        -1.760584543397288E-082
   76.6293750000000        -6.639155859044195E-083
   76.8431250000000         1.447042663407059E-082
   77.0568750000000         4.692543352951166E-082
   77.2706250000000         8.944368398775828E-082
   77.4843750000000         1.368377750291095E-081
   77.6981250000000         1.787257627886992E-081
   77.9118750000000         1.988450522053409E-081
   78.1256250000000         1.755975090752237E-081
   78.3393750000000         8.453539491113975E-082
   78.5531250000000        -9.657033711512949E-082
   78.7668750000000        -3.797389651591555E-081
   78.9806250000000        -7.561328938143619E-081
   79.1943750000000        -1.183969008973019E-080
   79.4081250000000        -1.577451431485133E-080
   79.6218750000000        -1.800585053844941E-080
   79.8356250000000        -1.670976109923203E-080
   80.0493750000000        -9.793688922616994E-081
   80.2631250000000         4.698801832724715E-081
   80.4768750000000         2.794569842276921E-080
   80.6906250000000         5.948604311787668E-080
   80.9043750000000         9.623462773398302E-080
   81.1181250000000         1.315622637063145E-079
   81.3318750000000         1.547403606320036E-079
   81.5456250000000         1.511456519699360E-079
   81.7593750000000         1.036726380902250E-079
   81.9731250000000        -4.236082122680700E-081
   82.1868750000000        -1.837055077991826E-079
   82.4006250000000        -4.338054455350233E-079
   82.6143750000000        -7.338523588158473E-079
   82.8281250000000        -1.036019942480512E-078
   83.0418750000000        -1.260452645138819E-078
   83.2556250000000        -1.295814136018274E-078
   83.4693750000000        -1.008623936976429E-078
   83.6831250000000        -2.645269628125629E-079
   83.8968750000000         1.036538966226462E-078
   84.1106250000000         2.911759948577117E-078
   84.3243750000000         5.237789308911425E-078
   84.5381250000000         7.693492665936221E-078
   84.7518750000000         9.718414966143774E-078
   84.9656250000000         1.050775080372002E-077
   85.1793750000000         9.068007216126435E-078
   85.3931250000000         4.356745996800798E-078
   85.6068750000000        -4.477597473360955E-078
   85.8206250000000        -1.775591393873294E-077
   86.0343750000000        -3.485466941348629E-077
   86.2481250000000        -5.377930083580439E-077
   86.4618750000000        -7.082655088675049E-077
   86.6756250000000        -8.047679976686810E-077
   86.8893750000000        -7.568435183480351E-077
   87.1031250000000        -4.873385088839840E-077
   87.3168750000000         7.211527610447340E-078
   87.5306250000000         9.584445712411748E-077
   87.7443750000000         2.148711066564636E-076
   87.9581250000000         3.529627407251247E-076
   88.1718750000000         4.871452175252102E-076
   88.3856250000000         5.815435388210288E-076
   88.5993750000000         5.886030285295232E-076
   88.8131250000000         4.539526432059540E-076
   89.0268750000000         1.258543023213847E-076
   89.2406250000000        -4.304048406504549E-076
   89.4543750000000        -1.213839184858588E-075
   89.6681250000000        -2.166921002453071E-075
   89.8818750000000        -3.156444272954402E-075
   90.0956250000000        -3.961807215409307E-075
   90.3093750000000        -4.277908475670193E-075
   90.5231250000000        -3.740419599595380E-075
   90.7368750000000        -1.980183364034071E-075
   90.9506250000000         1.289760709203073E-075
   91.1643750000000         6.156983268259457E-075
   91.3781250000000         1.237352096866878E-074
   91.5918750000000         1.922299686114794E-074
   91.8056250000000         2.542504900743941E-074
   92.0193750000000         2.912135807587644E-074
   92.2331250000000         2.799285450191346E-074
   92.4468750000000         1.955395847133116E-074
   92.6606250000000         1.652824085436237E-075
   92.8743750000000        -2.682673166102100E-074
   93.0881250000000        -6.511672838503732E-074
   93.3018750000000        -1.096908387738770E-073
   93.5156250000000        -1.535586472946472E-073
   93.7293750000000        -1.859897271059771E-073
   93.9431250000000        -1.929707905571368E-073
   94.1568750000000        -1.586917706272198E-073
   94.3706250000000        -6.827486018119173E-074
   94.5843750000000         8.821678550692468E-074
   94.7981250000000         3.107365009975810E-073
   95.0118750000000         5.838011837941402E-073
   95.2256250000000         8.716861144324165E-073
   95.4393750000000         1.115745199777668E-072
   95.6531250000000         1.235631563101489E-072
   95.8668750000000         1.136232801839957E-072
   96.0806250000000         7.217698991541589E-073
   96.2943750000000        -8.239078734404661E-074
   96.5081250000000        -1.301169168316986E-072
   96.7218750000000        -2.877484104641144E-072
   96.9356250000000        -4.641756137927205E-072
   97.1493750000000        -6.291200131145768E-072
   97.3631250000000        -7.388847124951143E-072
   97.5768750000000        -7.392883118095949E-072
   97.7906250000000        -5.725426510594977E-072
   98.0043750000000        -1.885527573532337E-072
   98.2181250000000         4.396519666840905E-072
   98.4318750000000         1.297746238241827E-071
   98.6456250000000         2.311934730446356E-071
   98.8593750000000         3.334922414497830E-071
   99.0731250000000         4.141356382443284E-071
   99.2868750000000         4.438627831933143E-071
   99.5006250000000         3.898423332489115E-071
   99.7143750000000         2.212430366654333E-071
   99.9281250000000        -8.281623870711309E-072
   100.141875000000        -5.235310746576163E-071
   100.355625000000        -1.072188361398832E-070
   100.569375000000        -1.661514743964524E-070
   100.783125000000        -2.181331178870023E-070
   100.996875000000        -2.481640582913070E-070
   101.210625000000        -2.386156001739782E-070
   101.424375000000        -1.718419157285886E-070
   101.638125000000        -3.408939951445955E-071
   101.851875000000         1.795300145817121E-070
   102.065625000000         4.595879828548724E-070
   102.279375000000         7.773914671641024E-070
   102.493125000000         1.081883080265375E-069
   102.706875000000         1.299978487742182E-069
   102.920625000000         1.341934040124207E-069
   103.134375000000         1.112989282741316E-069
   103.348125000000         5.317353622161857E-070
   103.561875000000        -4.456143523840642E-070
   103.775625000000        -1.797576285840088E-069
   103.989375000000        -3.410847840455223E-069
   104.203125000000        -5.061221091756378E-069
   104.416875000000        -6.409694270308632E-069
   104.630625000000        -7.021825889167100E-069
   104.844375000000        -6.417055231277122E-069
   105.058125000000        -4.151288693779028E-069
   105.271875000000         6.970205778931361E-071
   105.485625000000         6.256422361957465E-069
   105.699375000000         1.400098709590880E-068
   105.913125000000         2.237059060624633E-068
   106.126875000000         2.986531237765317E-068
   106.340625000000         3.447912582067986E-068
   106.554375000000         3.389837403627317E-068
   106.768125000000         2.585777925982522E-068
   106.981875000000         8.648990558238482E-069
   107.195625000000        -1.825871705937180E-068
   107.409375000000        -5.356865574559546E-068
   107.623125000000        -9.360485928957599E-068
   107.836875000000        -1.320213543730682E-067
   108.050625000000        -1.599528829977126E-067
   108.264375000000        -1.667730871836571E-067
   108.478125000000        -1.415695160000221E-067
   108.691875000000        -7.533921454636841E-068
   108.905625000000         3.624478082257235E-068
   109.119375000000         1.898349791860685E-067
   109.333125000000         3.717179316621766E-067
   109.546875000000         5.561408335244976E-067
   109.760625000000         7.054624034104760E-067
   109.974375000000         7.728976532347934E-067
   110.188125000000         7.084082833232400E-067
   110.401875000000         4.678589672334689E-067
   110.615625000000         2.491451440371774E-068
   110.829375000000        -6.156603892367279E-067
   111.043125000000        -1.405516641723139E-066
   111.256875000000        -2.244054786410504E-066
   111.470625000000        -2.977064004517643E-066
   111.684375000000        -3.406099038101266E-066
   111.898125000000        -3.311219816480189E-066
   112.111875000000        -2.488005138334850E-066
   112.325625000000        -7.971125985020916E-067
   112.539375000000         1.778739168093240E-066
   112.753125000000         5.079240667245673E-066
   112.966875000000         8.724746041694989E-066
   113.180625000000         1.210294762038868E-065
   113.394375000000         1.439878067043470E-065
   113.608125000000         1.467948034955688E-065
   113.821875000000         1.204008910285463E-065
   114.035625000000         5.804192633135094E-066
   114.249375000000        -4.239154449099720E-066
   114.463125000000        -1.759691756022175E-065
   114.676875000000        -3.288134089644530E-065
   114.890625000000        -4.772681467163894E-065
   115.104375000000        -5.887642603529061E-065
   115.318125000000        -6.249037876013683E-065
   115.531875000000        -5.470353184449960E-065
   115.745625000000        -3.241838220666183E-065
   115.959375000000         5.735062885561935E-066
   116.173125000000         5.840410733464239E-065
   116.386875000000         1.206757565786280E-064
   116.600625000000         1.836355536711033E-064
   116.814375000000         2.345765981805864E-064
   117.028125000000         2.580804463239495E-064
   117.241875000000         2.381003346230265E-064
   117.455625000000         1.610217828977513E-064
   117.669375000000         1.946261503153750E-065
   117.883125000000        -1.836750788801454E-064
   118.096875000000        -4.316373121344516E-064
   118.310625000000        -6.916672913848178E-064
   118.524375000000        -9.152852812828687E-064
   118.738125000000        -1.041917887532361E-063
   118.951875000000        -1.006472098943869E-063
   119.165625000000        -7.508744450490550E-064
   119.379375000000        -2.387878046345939E-064
   119.593125000000         5.282478811498574E-064
   119.806875000000         1.495993106182800E-063
   120.020625000000         2.547562532491271E-063
   120.234375000000         3.502321046409798E-063
   120.448125000000         4.127344702631367E-063
   120.661875000000         4.164068769746014E-063
   120.875625000000         3.370678234438680E-063
   121.089375000000         1.577808169599871E-063
   121.303125000000        -1.248536505589739E-063
   121.516875000000        -4.946775172098601E-063
   121.730625000000        -9.115510842710313E-063
   121.944375000000        -1.310042278670504E-062
   122.158125000000        -1.602704792281237E-062
   122.371875000000        -1.689065272816389E-062
   122.585625000000        -1.470721666928237E-062
   122.799375000000        -8.718802341053631E-063
   123.013125000000         1.366918512183738E-063
   123.226875000000         1.513781392620730E-062
   123.440625000000         3.128712399562373E-062
   123.654375000000         4.752855996519532E-062
   123.868125000000         6.067377240552758E-062