  -1.60312500000000         0.000000000000000E+000
  -1.38937500000000         0.000000000000000E+000
  -1.17562500000000         0.000000000000000E+000
 -0.961875000000000         0.000000000000000E+000
 -0.748125000000000         0.000000000000000E+000
 -0.534375000000000         0.000000000000000E+000
 -0.320625000000000         0.000000000000000E+000
 -0.106875000000000         0.000000000000000E+000
  0.106875000000000         0.000000000000000E+000
  0.320625000000000         0.000000000000000E+000
  0.534375000000000         0.000000000000000E+000
  0.748125000000000         0.000000000000000E+000
  0.961875000000000         0.000000000000000E+000
   1.17562500000000         0.000000000000000E+000
   1.38937500000000         0.000000000000000E+000
   1.60312500000000         0.000000000000000E+000
   1.81687500000000         0.000000000000000E+000
   2.03062500000000         0.000000000000000E+000
   2.24437500000000         0.000000000000000E+000
   2.45812500000000         0.000000000000000E+000
   2.67187500000000         0.000000000000000E+000
   2.88562500000000         0.000000000000000E+000
   3.09937500000000         0.000000000000000E+000
   3.31312500000000         0.000000000000000E+000
   3.52687500000000         0.000000000000000E+000
   3.74062500000000         0.000000000000000E+000
   3.95437500000000         0.000000000000000E+000
   4.16812500000000         0.000000000000000E+000
   4.38187500000000         0.000000000000000E+000
   4.59562500000000         0.000000000000000E+000
   4.80937500000000         0.000000000000000E+000
   5.02312500000000         0.000000000000000E+000
   5.23687500000000         0.000000000000000E+000
   5.45062500000000         0.000000000000000E+000
   5.66437500000000         0.000000000000000E+000
   5.87812500000000         0.000000000000000E+000
   6.09187500000000         0.000000000000000E+000
   6.30562500000000         0.000000000000000E+000
   6.51937500000000         0.000000000000000E+000
   6.73312500000000         0.000000000000000E+000
   6.94687500000000         0.000000000000000E+000
   7.16062500000000         0.000000000000000E+000
   7.37437500000000         0.000000000000000E+000
   7.58812500000000         0.000000000000000E+000
   7.80187500000000         0.000000000000000E+000
   8.01562500000000         0.000000000000000E+000
   8.22937500000000         0.000000000000000E+000
   8.44312500000000         0.000000000000000E+000
   8.65687500000000         0.000000000000000E+000
   8.87062500000000         0.000000000000000E+000
   9.08437500000000         0.000000000000000E+000
   9.29812500000000         1.216093178627983E-187
   9.51187500000000        -9.097981690057659E-181
   9.72562500000000        -1.054615805024091E-177
   9.93937500000000        -6.667344415830068E-176
   10.1531250000000        -8.524278840579546E-173
   10.3668750000000        -2.802678691767206E-171
   10.5806250000000         1.046647227893074E-169
   10.7943750000000         7.656908625067110E-168
   11.0081250000000         2.027379747726101E-166
   11.2218750000000         3.175372299784392E-165
   11.4356250000000         3.420739486696745E-164
   11.6493750000000         3.320665305418132E-163
   11.8631250000000         4.893832077140183E-162
   12.0768750000000         9.769736027302152E-161
   12.2906250000000         1.725261529658690E-159
   12.5043750000000         2.441258457940213E-158
   12.7181250000000         2.808576609431686E-157
   12.9318750000000         2.694973282962727E-156
   13.1456250000000         2.201128350082297E-155
   13.3593750000000         1.549035246899156E-154
   13.5731250000000         9.404147118966081E-154
   13.7868750000000         4.852600226755710E-153
   14.0006250000000         2.036192123719691E-152
   14.2143750000000         6.092347500106904E-152
   14.4281250000000         5.351652545348354E-152
   14.6418750000000        -7.490227921789948E-151
   14.8556250000000        -5.384863425521748E-150
   15.0693750000000        -1.228592384874747E-149
   15.2831250000000         1.133250904342545E-148
   15.4968750000000         1.710839146612172E-147
   15.7106250000000         1.406344633911369E-146
   15.9243750000000         8.997664169686016E-146
   16.1381250000000         4.897327282500904E-145
   16.3518750000000         2.350800452646807E-144
   16.5656250000000         1.011457927870121E-143
   16.7793750000000         3.920506922432669E-143
   16.9931250000000         1.361982073895577E-142
   17.2068750000000         4.153926433060273E-142
   17.4206250000000         1.048899622814162E-141
   17.6343750000000         1.758651494260152E-141
   17.8481250000000        -1.342240229949162E-141
   18.0618750000000        -3.007305969900810E-140
   18.2756250000000        -1.794152231115776E-139
   18.4893750000000        -8.077103995655237E-139
   18.7031250000000        -3.134024835315328E-138
   18.9168750000000        -1.096520642525225E-137
   19.1306250000000        -3.530455099247495E-137
   19.3443750000000        -1.056733770549215E-136
   19.5581250000000        -2.954894347123608E-136
   19.7718750000000        -7.729993329090464E-136
   19.9856250000000        -1.889092056073123E-135
   20.1993750000000        -4.293692006586930E-135
   20.4131250000000        -9.000930917667939E-135
   20.6268750000000        -1.715715707140644E-134
   20.8406250000000        -2.902741788237956E-134
   21.0543750000000        -4.178319642581077E-134
   21.2681250000000        -4.759498567089633E-134
   21.4818750000000        -4.184171325145667E-134
   21.6956250000000        -7.653326625261277E-134
   21.9093750000000        -4.556127347572971E-133
   22.1231250000000        -2.288485120695402E-132
   22.3368750000000        -8.778384274613136E-132
   22.5506250000000        -2.762204569336417E-131
   22.7643750000000        -7.397036165684991E-131
   22.9781250000000        -1.693824563231487E-130
   23.1918750000000        -3.200714576595747E-130
   23.4056250000000        -4.278217637431937E-130
   23.6193750000000        -2.501473472909796E-131
   23.8331250000000         2.378655873039274E-129
   24.0468750000000         1.066638699236170E-128
   24.2606250000000         3.349314360801090E-128
   24.4743750000000         8.726001403859122E-128
   24.6881250000000         1.966424635696725E-127
   24.9018750000000         3.825387416961930E-127
   25.1156250000000         6.115628739493615E-127
   25.3293750000000         6.519678325782682E-127
   25.5431250000000        -2.621702595300233E-127
   25.7568750000000        -4.094256144400715E-126
   25.9706250000000        -1.509093382586172E-125
   26.1843750000000        -4.107701962139117E-125
   26.3981250000000        -9.377495634227616E-125
   26.6118750000000        -1.846503882713869E-124
   26.8256250000000        -3.082445061038122E-124
   27.0393750000000        -3.976687698338592E-124
   27.2531250000000        -2.284823744981445E-124
   27.4668750000000         7.549182046055168E-124
   27.6806250000000         3.691454619388306E-123
   27.8943750000000         1.053975066321363E-122
   28.1081250000000         2.396265461247614E-122
   28.3218750000000         4.603308848178547E-122
   28.5356250000000         7.411663247443459E-122
   28.7493750000000         9.124168128399436E-122
   28.9631250000000         4.761508198194162E-122
   29.1768750000000        -1.685781055214277E-121
   29.3906250000000        -7.656197725194524E-121
   29.6043750000000        -2.062831833423003E-120
   29.8181250000000        -4.419332902815529E-120
   30.0318750000000        -7.941445065956735E-120
   30.2456250000000        -1.173955922975841E-119
   30.4593750000000        -1.242823913801167E-119
   30.6731250000000        -1.620965351257324E-120
   30.8868750000000         3.738447560626448E-119
   31.1006250000000         1.322645382399415E-118
   31.3143750000000         3.195064903693668E-118
   31.5281250000000         6.285669895111993E-118
   31.7418750000000         1.036941460566841E-117
   31.9556250000000         1.374465037397218E-117
   32.1693750000000         1.155656310773609E-117
   32.3831250000000        -6.599433095870753E-118
   32.5968750000000        -5.913601675934370E-117
   32.8106250000000        -1.728934456959912E-116
   33.0243750000000        -3.768669382462855E-116
   33.2381250000000        -6.809100717829005E-116
   33.4518750000000        -1.027203055035231E-115
   33.6656250000000        -1.201111394058721E-115
   33.8793750000000        -6.959181259461466E-116
   34.0931250000000         1.446274488606644E-115
   34.3068750000000         6.732069468028411E-115
   34.5206250000000         1.705337399420402E-114
   34.7343750000000         3.389527907928129E-114
   34.9481250000000         5.635738029426059E-114
   35.1618750000000         7.732887666778279E-114
   35.3756250000000         7.738364353483058E-114
   35.5893750000000         1.693028904535803E-114
   35.8031250000000        -1.705515319714191E-113
   36.0168750000000        -5.771247480502692E-113
   36.2306250000000        -1.297403150739180E-112
   36.4443750000000        -2.362932508999453E-112
   36.6581250000000        -3.607688019289023E-112
   36.8718750000000        -4.443239445198694E-112
   37.0856250000000        -3.550342859691181E-112
   37.2993750000000         1.435868403860070E-112
   37.5131250000000         1.403736352552681E-111
   37.7268750000000         3.842783374824739E-111
   37.9406250000000         7.764701866905217E-111
   38.1543750000000         1.296713828720534E-110
   38.3681250000000         1.805406088763859E-110
   38.5818750000000         1.944325346091406E-110
   38.7956250000000         1.024190509887615E-110
   39.0093750000000        -2.048248207633110E-110
   39.2231250000000        -8.695592762135180E-110
   39.4368750000000        -2.027005639757146E-109
   39.6506250000000        -3.708984086373052E-109
   39.8643750000000        -5.667088291106872E-109
   40.0781250000000        -7.105767197373535E-109
   40.2918750000000        -6.356981482814441E-109
   40.5056250000000        -6.093973524852351E-110
   40.7193750000000         1.406617928558728E-108
   40.9331250000000         4.198781455640209E-108
   41.1468750000000         8.586707963881610E-108
   41.3606250000000         1.429441137391825E-107
   41.5743750000000         1.989045306258583E-107
   41.7881250000000         2.200293197219248E-107
   42.0018750000000         1.456437338891120E-107
   42.2156250000000        -1.144762177400757E-107
   42.4293750000000        -6.696847830047283E-107
   42.6431250000000        -1.613624014900528E-106
   42.8568750000000        -2.952125427100696E-106
   43.0706250000000        -4.484760946029624E-106
   43.2843750000000        -5.644301567634734E-106
   43.4981250000000        -5.326120885536499E-106
   43.7118750000000        -1.784823960787435E-106
   43.9256250000000         7.264362549006361E-106
   44.1393750000000         2.413981402752655E-105
   44.3531250000000         5.004948488476371E-105
   44.5668750000000         8.311857279595004E-105
   44.7806250000000         1.155894006259762E-104
   44.9943750000000         1.306054362114349E-104
   45.2081250000000         9.967191125201590E-105
   45.4218750000000        -1.719415922645176E-105
   45.6356250000000        -2.656292261580916E-104
   45.8493750000000        -6.817637923923315E-104
   46.0631250000000        -1.264460282671703E-103
   46.2768750000000        -1.933941782292497E-103
   46.4906250000000        -2.480946080746149E-103
   46.7043750000000        -2.519180493752128E-103
   46.9181250000000        -1.465682043784505E-103
   47.1318750000000         1.413333131882537E-103
   47.3456250000000         6.843931742380990E-103
   47.5593750000000         1.522711870110762E-102
   47.7731250000000         2.613790331337033E-102
   47.9868750000000         3.766725365119476E-102
   48.2006250000000         4.572038188228523E-102
   48.4143750000000         4.350366137152124E-102
   48.6281250000000         2.156360511669186E-102
   48.8418750000000        -3.115492751027776E-102
   49.0556250000000        -1.247460411989795E-101
   49.2693750000000        -2.639236896927537E-101
   49.4831250000000        -4.417290874136491E-101
   49.6968750000000        -6.318861857019536E-101
   49.9106250000000        -7.809919308105017E-101
   50.1243750000000        -8.023552086017810E-101
   50.3381250000000        -5.736804347535044E-101
   50.5518750000000         5.919322618822803E-102
   50.7656250000000         1.270455842183148E-100
   50.9793750000000         3.231957383203236E-100
   51.1931250000000         6.075421445474748E-100
   51.4068750000000         9.827825237408126E-100
   51.6206250000000         1.429625107130301E-099
   51.8343750000000         1.886126310788251E-099
   52.0481250000000         2.212222147366633E-099
   52.2618750000000         2.134063205369741E-099
   52.4756250000000         1.167926960867471E-099
   52.6893750000000        -1.461996068491999E-099
   52.9031250000000        -6.868757399220170E-099
   53.1168750000000        -1.642112341817847E-098
   53.3306250000000        -3.138485996178713E-098
   53.5443750000000        -5.207712561127957E-098
   53.7581250000000        -7.630402352304984E-098
   53.9718750000000        -9.693522290935395E-098
   54.1856250000000        -9.875064674221000E-098
   54.3993750000000        -5.527868988293422E-098
   54.6131250000000         7.268782206871583E-098
   54.8268750000000         3.338864842535568E-097
   55.0406250000000         7.742361385732063E-097
   55.2543750000000         1.409924450670109E-096
   55.4681250000000         2.181108971558176E-096
   55.6818750000000         2.885166799656142E-096
   55.8956250000000         3.097294441579811E-096
   56.1093750000000         2.101973655802409E-096
   56.3231250000000        -1.118167111741058E-096
   56.5368750000000        -7.761787046877355E-096
   56.7506250000000        -1.885743595178010E-095
   56.9643750000000        -3.457550005945232E-095
   57.1781250000000        -5.313295481865786E-095
   57.3918750000000        -6.932890728420668E-095
   57.6056250000000        -7.296306790300825E-095
   57.8193750000000        -4.772914640406539E-095
   58.0331250000000         2.837421067608120E-095
   58.2468750000000         1.795922306129319E-094
   58.4606250000000         4.240734202763741E-094
   58.6743750000000         7.589306943696800E-094
   58.8881250000000         1.138046054241308E-093
   59.1018750000000         1.444440143548553E-093
   59.3156250000000         1.463381981966574E-093
   59.5293750000000         8.687455638069286E-094
   59.7431250000000        -7.572142913698289E-094
   59.9568750000000        -3.843384392306851E-093
   60.1706250000000        -8.658398634952658E-093
   60.3843750000000        -1.502495523227680E-092
   60.5981250000000        -2.192033593272020E-092
   60.8118750000000        -2.701200811774535E-092
   61.0256250000000        -2.625502761261487E-092
   61.2393750000000        -1.378289773602887E-092
   61.4531250000000         1.756036009583305E-092
   61.6668750000000         7.460847113652184E-092
   61.8806250000000         1.607404904304147E-091
   62.0943750000000         2.709614836055717E-091
   62.3081250000000         3.853878468092441E-091
   62.5218750000000         4.621648998228628E-091
   62.7356250000000         4.320955550566892E-091
   62.9493750000000         1.988315349284966E-091
   63.1631250000000        -3.499398884126917E-091
   63.3768750000000        -1.313908957393960E-090
   63.5906250000000        -2.728363121487402E-090
   63.8043750000000        -4.486898557108161E-090
   64.0181250000000        -6.244039850476235E-090
   64.2318750000000        -7.316212484999099E-090
   64.4456250000000        -6.617814723136376E-090
   64.6593750000000        -2.690629092078080E-090
   64.8731250000000         6.095758232596529E-090
   65.0868750000000         2.108686250445439E-089
   65.3006250000000         4.256097999723851E-089
   65.5143750000000         6.861211647371938E-089
   65.7281250000000         9.380594976326676E-089
   65.9418750000000         1.079016421770914E-088
   66.1556250000000         9.517772856957396E-089
   66.3693750000000         3.516960105585116E-089
   66.5831250000000        -9.415895770399906E-089
   66.7968750000000        -3.097555230952523E-088
   67.0106250000000        -6.126015939365611E-088
   67.2243750000000        -9.727746695056094E-088
   67.4381250000000        -1.312224644152959E-087
   67.6518750000000        -1.489451330475771E-087
   67.8656250000000        -1.293303034215066E-087
   68.0793750000000        -4.562231643372459E-088
   68.2931250000000         1.300595786590970E-087
   68.5068750000000         4.178140627363413E-087
   68.7206250000000         8.159679177044784E-087
   68.9343750000000         1.282507596810809E-086
   69.1481250000000         1.714481426901341E-086
   69.3618750000000         1.930824162858674E-086
   69.5756250000000         1.667528892496276E-086
   69.7893750000000         5.974093868062113E-087
   70.0031250000000        -1.611420465837848E-086
   70.2168750000000        -5.185623843808805E-086
   70.4306250000000        -1.007948587398948E-085
   70.6443750000000        -1.575942827078045E-085
   70.8581250000000        -2.097293421747607E-085
   71.0718750000000        -2.356703812839522E-085
   71.2856250000000        -2.045858937224765E-085
   71.4993750000000        -7.891509335272780E-086
   71.7131250000000         1.786910242349347E-085
   71.9268750000000         5.927959035951895E-085
   72.1406250000000         1.156549470750546E-084
   72.3543750000000         1.808243120872373E-084
   72.5681250000000         2.406861794637368E-084
   72.7818750000000         2.713824602879911E-084
   72.9956250000000         2.391810587702237E-084
   73.2093750000000         1.034650910960850E-084
   73.4231250000000        -1.756751161043505E-084
   73.6368750000000        -6.240588707719788E-084
   73.8506250000000        -1.233981200098479E-083
   74.0643750000000        -1.940199727254835E-083
   74.2781250000000        -2.595411246928026E-083
   74.4918750000000        -2.952587478055361E-083
   74.7056250000000        -2.665034302383754E-083
   74.9193750000000        -1.317774134509491E-083
   75.1331250000000         1.495603903903647E-083
   75.3468750000000         6.039941130112215E-083
   75.5606250000000         1.224804983222301E-082
   75.7743750000000         1.948829324746381E-082
   75.9881250000000         2.633022920210860E-082
   76.2018750000000         3.037875462106672E-082
   76.4156250000000         2.827849053356255E-082
   76.6293750000000         1.601343622644824E-082
   76.8431250000000        -1.037071949941705E-082
   77.0568750000000        -5.352870546873023E-082
   77.2706250000000        -1.130567504262660E-081
   77.4843750000000        -1.833595330681249E-081
   77.6981250000000        -2.515079218519930E-081
   77.9118750000000        -2.957179763646188E-081
   78.1256250000000        -2.853496080979917E-081
   78.3393750000000        -1.835159872126932E-081
   78.5531250000000         4.659756668807969E-082
   78.7668750000000         4.309158868742234E-081
   78.9806250000000         9.691255440331871E-081
   79.1943750000000         1.616060050730309E-080
   79.4081250000000         2.262914929039653E-080
   79.6218750000000         2.723595938660142E-080
   79.8356250000000         2.733707427911023E-080
   80.0493750000000         1.971252631143857E-080
   80.2631250000000         1.081602572866274E-081
   80.4768750000000        -3.100774220973536E-080
   80.6906250000000        -7.691058404555884E-080
   80.9043750000000        -1.333369910894854E-079
   81.1181250000000        -1.917694278317604E-079
   81.3318750000000        -2.372660606268047E-079
   81.5456250000000        -2.482453259012731E-079
   81.7593750000000        -1.979725609197639E-079
   81.9731250000000        -5.847785961705246E-080
   82.1868750000000         1.925538385843532E-079
   82.4006250000000         5.618410635877890E-079
   82.6143750000000         1.028219979028154E-078
   82.8281250000000         1.529829666437678E-078
   83.0418750000000         1.953917912443594E-078
   83.2556250000000         2.133759827659148E-078
   83.4693750000000         1.858174061197826E-078
   83.6831250000000         8.992693073873450E-079
   83.8968750000000        -9.372231754210926E-079
   84.1106250000000        -3.737942148485143E-078
   84.3243750000000        -7.388769823290594E-078
   84.5381250000000        -1.147516023476382E-077
   84.7518750000000        -1.519824855521094E-077
   84.9656250000000        -1.733905047450488E-077
   85.1793750000000        -1.631077377125092E-077
   85.3931250000000        -1.034125001779783E-077
   85.6068750000000         2.180337436471671E-078
   85.8206250000000         2.217993973738247E-077
   86.0343750000000         4.922428732233687E-077
   86.2481250000000         8.077710841800170E-077
   86.4618750000000         1.115358704996203E-076
   86.6756250000000         1.330707954103363E-076
   86.8893750000000         1.340463641175713E-076
   87.1031250000000         1.013274290941009E-076
   87.3168750000000         2.222954589007041E-077
   87.5306250000000        -1.119618475159687E-076
   87.7443750000000        -3.013274516420695E-076
   87.9581250000000        -5.319965860240760E-076
   88.1718750000000        -7.711306127030496E-076
   88.3856250000000        -9.636606343001360E-076
   88.5993750000000        -1.032661953789870E-075
   88.8131250000000        -8.854571936898939E-076
   89.0268750000000        -4.273464908818510E-076
   89.2406250000000         4.159226174052743E-076
   89.4543750000000         1.667362783631925E-075
   89.6681250000000         3.262376578661507E-075
   89.8818750000000         5.012563537923727E-075
   90.0956250000000         6.578801043346603E-075
   90.3093750000000         7.465728455840780E-075
   90.5231250000000         7.051555574994625E-075
   90.7368750000000         4.666503557933294E-075
   90.9506250000000        -2.710687667307232E-076
   91.1643750000000        -8.060745605446858E-075
   91.3781250000000        -1.848236057924264E-074
   91.5918750000000        -3.054734960512154E-074
   91.8056250000000        -4.229350722187739E-074
   92.0193750000000        -5.069805728729488E-074
   92.2331250000000        -5.179793974546929E-074
   92.4468750000000        -4.110651209568897E-074
   92.6606250000000        -1.439465898945298E-074
   92.8743750000000         3.114536477026061E-074
   93.0881250000000         9.541710792428433E-074
   93.3018750000000         1.737946327878954E-073
   93.5156250000000         2.556646446522189E-073
   93.7293750000000         3.235791892332073E-073
   93.9431250000000         3.535630990041869E-073
   94.1568750000000         3.171470354860544E-073
   94.3706250000000         1.856018030260593E-073
   94.5843750000000        -6.341171629349854E-074
   94.7981250000000        -4.370189263329617E-073
   95.0118750000000        -9.170251992914635E-073
   95.2256250000000        -1.450210512161545E-072
   95.4393750000000        -1.941534468285928E-072
   95.6531250000000        -2.253442089073491E-072
   95.8668750000000        -2.214757076028906E-072
   96.0806250000000        -1.642283172842764E-072
   96.2943750000000        -3.769357273962073E-073
   96.5081250000000         1.666199682746293E-072
   96.7218750000000         4.438068628874223E-072
   96.9356250000000         7.694814796232326E-072
   97.1493750000000         1.094950812468029E-071
   97.3631250000000         1.345434264240701E-071
   97.5768750000000         1.423363433726300E-071
   97.7906250000000         1.218691732300299E-071
   98.0043750000000         6.275375216196799E-072
   98.2181250000000        -4.207471344652310E-072
   98.4318750000000        -1.929887722709356E-071
   98.6456250000000        -3.800654709083737E-071
   98.8593750000000        -5.799531895029006E-071
   99.0731250000000        -7.541710950752299E-071
   99.2868750000000        -8.499736599348600E-071
   99.5006250000000        -8.049099225716846E-071
   99.7143750000000        -5.559436940254777E-071
   99.9281250000000        -5.340388771793913E-072
   100.141875000000         7.209295523979186E-071
   100.355625000000         1.733594646787750E-070
   100.569375000000         2.880561990677886E-070
   100.783125000000         3.974650382838772E-070
   100.996875000000         4.745275976697708E-070
   101.210625000000         4.856816690161762E-070
   101.424375000000         3.950823452244475E-070
   101.638125000000         1.714549837155229E-070
   101.851875000000        -2.026423586653821E-070
   102.065625000000        -7.200221353199941E-070
   102.279375000000        -1.338190273721821E-069
   102.493125000000        -1.971234550834501E-069
   102.706875000000        -2.487355738562128E-069
   102.920625000000        -2.715370006043688E-069
   103.134375000000        -2.463139006320564E-069
   103.348125000000        -1.549668572897525E-069
   103.561875000000         1.495792742362052E-070
   103.775625000000         2.647776471434489E-069
   103.989375000000         5.789719392513357E-069
   104.203125000000         9.204303616323744E-069
   104.416875000000         1.228154143998124E-068
   104.630625000000         1.419097680811487E-068
   104.844375000000         1.395726919589633E-068
   105.058125000000         1.060362572776962E-068
   105.271875000000         3.363887298020374E-069
   105.485625000000        -8.050653481105588E-069
   105.699375000000        -2.316223579606649E-068
   105.913125000000        -4.046815355406214E-068
   106.126875000000        -5.728363801008187E-068
   106.340625000000        -6.976789847304280E-068
   106.554375000000        -7.321326148117709E-068
   106.768125000000        -6.265709587118812E-068
   106.981875000000        -3.383348795992509E-068
   107.195625000000         1.558456805803950E-068
   107.409375000000         8.458767581971307E-068
   107.623125000000         1.675084581678841E-067
   107.836875000000         2.530967421014109E-067
   108.050625000000         3.243730966044452E-067
   108.264375000000         3.596477397559884E-067
   108.478125000000         3.350156220486205E-067
   108.691875000000         2.284602518927489E-067
   108.905625000000         2.541123383304041E-068
   109.119375000000        -2.747832245817522E-067
   109.333125000000        -6.524472874791955E-067
   109.546875000000        -1.062635801566081E-066
   109.760625000000        -1.433376311820304E-066
   109.974375000000        -1.668892779041431E-066
   110.188125000000        -1.659339412546177E-066
   110.401875000000        -1.297854715881392E-066
   110.615625000000        -5.045353504262806E-067
   110.829375000000         7.447293636958890E-067
   111.043125000000         2.388568484796025E-066
   111.256875000000         4.255534861192981E-066
   111.470625000000         6.052072462871978E-066
   111.684375000000         7.371096534199836E-066
   111.898125000000         7.728352796522700E-066
   112.111875000000         6.630920981984312E-066
   112.325625000000         3.677280101152180E-066
   112.539375000000        -1.318611389635995E-066
   112.753125000000        -8.195128614500400E-066
   112.966875000000        -1.632716782095775E-065
   113.180625000000        -2.455823607985843E-065
   113.394375000000        -3.121533356109886E-065
   113.608125000000        -3.423890754285786E-065
   113.821875000000        -3.144958096998060E-065
   114.035625000000        -2.095367835122114E-065
   114.249375000000        -1.661106354193742E-066
   114.463125000000         2.614578129524245E-065
   114.676875000000         6.029041701102887E-065
   114.890625000000         9.635690183920355E-065
   115.104375000000         1.276684463029207E-064
   115.318125000000         1.457299320212893E-064
   115.531875000000         1.412365201347913E-064
   115.745625000000         1.056739714933371E-064
   115.959375000000         3.342285630488844E-065
   116.173125000000        -7.586345469785115E-065
   116.386875000000        -2.149902091305941E-064
   116.600625000000        -3.675814489974384E-064
   116.814375000000        -5.076719084096690E-064
   117.028125000000        -6.011254467700941E-064
   117.241875000000        -6.093388394965019E-064
   117.455625000000        -4.954018833202614E-064
   117.669375000000        -2.324430165859032E-064
   117.883125000000         1.866765932947836E-064
   118.096875000000         7.397808417386645E-064
   118.310625000000         1.367942247465256E-063
   118.524375000000         1.972609180269069E-063
   118.738125000000         2.419752262514493E-063
   118.951875000000         2.553028547396723E-063
   119.165625000000         2.216905721834270E-063
   119.379375000000         1.289010202058419E-063
   119.593125000000        -2.812399026881486E-064
   119.806875000000        -2.433138014050334E-063
   120.020625000000        -4.962109380420113E-063
   120.234375000000        -7.503530704716818E-063
   120.448125000000        -9.542860505552069E-063
   120.661875000000        -1.046055334212230E-062
   120.875625000000        -9.616479001717972E-063
   121.089375000000        -6.472355211546741E-063
   121.303125000000        -7.423304616362695E-064
   121.516875000000         7.447814939898440E-063
   121.730625000000         1.742187849126049E-062
   121.944375000000         2.787120177374302E-062
   122.158125000000         3.686852758261911E-062
   122.371875000000         4.201280011653905E-062
   122.585625000000         4.072715525068748E-062
   122.799375000000         3.071002212221679E-062
   123.013125000000         1.050823934398144E-062
   123.226875000000        -1.985570776904108E-062
   123.440625000000        -5.830759012933424E-062
   123.654375000000        -1.003323483205153E-061
   123.868125000000        -1.389229594995735E-061