  -1.60312500000000         0.000000000000000E+000
  -1.38937500000000         0.000000000000000E+000
  -1.17562500000000         0.000000000000000E+000
 -0.961875000000000         0.000000000000000E+000
 -0.748125000000000         0.000000000000000E+000
 -0.534375000000000         0.000000000000000E+000
 -0.320625000000000         0.000000000000000E+000
 -0.106875000000000         0.000000000000000E+000
  0.106875000000000         0.000000000000000E+000
  0.320625000000000         0.000000000000000E+000
  0.534375000000000         0.000000000000000E+000
  0.748125000000000         0.000000000000000E+000
  0.961875000000000         0.000000000000000E+000
   1.17562500000000         0.000000000000000E+000
   1.38937500000000         0.000000000000000E+000
   1.60312500000000         0.000000000000000E+000
   1.81687500000000         0.000000000000000E+000
   2.03062500000000         0.000000000000000E+000
   2.24437500000000         0.000000000000000E+000
   2.45812500000000         0.000000000000000E+000
   2.67187500000000         0.000000000000000E+000
   2.88562500000000         0.000000000000000E+000
   3.09937500000000         0.000000000000000E+000
   3.31312500000000         0.000000000000000E+000
   3.52687500000000         0.000000000000000E+000
   3.74062500000000         0.000000000000000E+000
   3.95437500000000         0.000000000000000E+000
   4.16812500000000         0.000000000000000E+000
   4.38187500000000         0.000000000000000E+000
   4.59562500000000         0.000000000000000E+000
   4.80937500000000         0.000000000000000E+000
   5.02312500000000         0.000000000000000E+000
   5.23687500000000         0.000000000000000E+000
   5.45062500000000         0.000000000000000E+000
   5.66437500000000         0.000000000000000E+000
   5.87812500000000         0.000000000000000E+000
   6.09187500000000         0.000000000000000E+000
   6.30562500000000         0.000000000000000E+000
   6.51937500000000         0.000000000000000E+000
   6.73312500000000         0.000000000000000E+000
   6.94687500000000         0.000000000000000E+000
   7.16062500000000         0.000000000000000E+000
   7.37437500000000         0.000000000000000E+000
   7.58812500000000         0.000000000000000E+000
   7.80187500000000         0.000000000000000E+000
   8.01562500000000         0.000000000000000E+000
   8.22937500000000         0.000000000000000E+000
   8.44312500000000         0.000000000000000E+000
   8.65687500000000         0.000000000000000E+000
   8.87062500000000         0.000000000000000E+000
   9.08437500000000         0.000000000000000E+000
   9.29812500000000         0.000000000000000E+000
   9.51187500000000         3.336792437973566E-191
   9.72562500000000        -3.251131904530854E-183
   9.93937500000000         7.678268476708397E-180
   10.1531250000000         9.453343724580134E-178
   10.3668750000000         3.390033552672015E-174
   10.5806250000000         1.236600337313085E-172
   10.7943750000000        -3.016669371227427E-171
   11.0081250000000        -2.734189005160791E-169
   11.2218750000000        -8.091857918329762E-168
   11.4356250000000        -1.497314413276675E-166
   11.6493750000000        -2.115121563042836E-165
   11.8631250000000        -2.721044778964285E-164
   12.0768750000000        -3.693623834391767E-163
   12.2906250000000        -5.284790318256775E-162
   12.5043750000000        -7.194279703545424E-161
   12.7181250000000        -8.679207778379575E-160
   12.9318750000000        -9.051060723475118E-159
   13.1456250000000        -8.141005058623817E-158
   13.3593750000000        -6.385253694238577E-157
   13.5731250000000        -4.473412990598750E-156
   13.7868750000000        -2.907797659329706E-155
   14.0006250000000        -1.836825309988047E-154
   14.2143750000000        -1.169889655717398E-153
   14.4281250000000        -7.576560576721023E-153
   14.6418750000000        -4.902420098288424E-152
   14.8556250000000        -3.093859993759792E-151
   15.0693750000000        -1.872791352635143E-150
   15.2831250000000        -1.079306807166233E-149
   15.4968750000000        -5.913247112808548E-149
   15.7106250000000        -3.083515089178821E-148
   15.9243750000000        -1.533248128688600E-147
   16.1381250000000        -7.282067910973057E-147
   16.3518750000000        -3.307843890573534E-146
   16.5656250000000        -1.438652143263091E-145
   16.7793750000000        -5.997387268677173E-145
   16.9931250000000        -2.399619870774081E-144
   17.2068750000000        -9.231328470150142E-144
   17.4206250000000        -3.422559995544875E-143
   17.6343750000000        -1.226680221497038E-142
   17.8481250000000        -4.266351807096310E-142
   18.0618750000000        -1.446334364315343E-141
   18.2756250000000        -4.802691111595316E-141
   18.4893750000000        -1.569567584213485E-140
   18.7031250000000        -5.068562763443767E-140
   18.9168750000000        -1.621310635351122E-139
   19.1306250000000        -5.139393024488434E-139
   19.3443750000000        -1.611783207151851E-138
   19.5581250000000        -4.984363419058356E-138
   19.7718750000000        -1.513368467025329E-137
   19.9856250000000        -4.490412891074361E-137
   20.1993750000000        -1.296163844249109E-136
   20.4131250000000        -3.624339921492331E-136
   20.6268750000000        -9.778749167608161E-136
   20.8406250000000        -2.536025326006328E-135
   21.0543750000000        -6.295966799888516E-135
   21.2681250000000        -1.489020088470038E-134
   21.4818750000000        -3.333257557128509E-134
   21.6956250000000        -6.995695711010701E-134
   21.9093750000000        -1.355023010733015E-133
   22.1231250000000        -2.350674621503045E-133
   22.3368750000000        -3.401659108060394E-133
   22.5506250000000        -3.144055239789447E-133
   22.7643750000000         2.541540242677836E-133
   22.9781250000000         2.382007449858645E-132
   23.1918750000000         8.248641924252446E-132
   23.4056250000000         2.198605125488176E-131
   23.6193750000000         5.051151510226130E-131
   23.8331250000000         1.039211235287332E-130
   24.0468750000000         1.949094824842679E-130
   24.2606250000000         3.380780368607076E-130
   24.4743750000000         5.555919166593045E-130
   24.6881250000000         9.095743969743374E-130
   24.9018750000000         1.604897260477363E-129
   25.1156250000000         3.218822008009330E-129
   25.3293750000000         7.026751363685581E-129
   25.5431250000000         1.493864814238624E-128
   25.7568750000000         2.709970436972342E-128
   25.9706250000000         3.148371201961468E-128
   26.1843750000000        -2.813190702118760E-128
   26.3981250000000        -3.333847507816925E-127
   26.6118750000000        -1.367494366109700E-126
   26.8256250000000        -4.239594707880784E-126
   27.0393750000000        -1.115845890358125E-125
   27.2531250000000        -2.582592903918812E-125
   27.4668750000000        -5.286949956009691E-125
   27.6806250000000        -9.396369295426972E-125
   27.8943750000000        -1.355134079898569E-124
   28.1081250000000        -1.185011651746542E-124
   28.3218750000000         1.234449778514835E-124
   28.5356250000000         9.714602118383781E-124
   28.7493750000000         3.169710722681488E-123
   28.9631250000000         7.945825025329994E-123
   29.1768750000000         1.687733896144118E-122
   29.3906250000000         3.096302673925381E-122
   29.6043750000000         4.783585607285428E-122
   29.8181250000000         5.538301091801802E-122
   30.0318750000000         1.958911051266567E-122
   30.2456250000000        -1.347564338403311E-121
   30.4593750000000        -5.474890642997181E-121
   30.6731250000000        -1.435776793235452E-120
   30.8868750000000        -3.056299666867629E-120
   31.1006250000000        -5.533826224856036E-120
   31.3143750000000        -8.412748313925501E-120
   31.5281250000000        -9.731808212261220E-120
   31.7418750000000        -4.434826101732499E-120
   31.9556250000000         1.784587391342245E-119
   32.1693750000000         7.490840636286428E-119
   32.3831250000000         1.917619267373831E-118
   32.5968750000000         3.931155580332062E-118
   32.8106250000000         6.796649228847835E-118
   33.0243750000000         9.750499418048181E-118
   33.2381250000000         1.029147066961601E-117
   33.4518750000000         2.724283661090612E-118
   33.6656250000000        -2.351560676655624E-117
   33.8793750000000        -8.474238086076516E-117
   34.0931250000000        -2.007305568340973E-116
   34.3068750000000        -3.848407190048622E-116
   34.5206250000000        -6.198150689581845E-116
   34.7343750000000        -8.112556868363859E-116
   34.9481250000000        -7.137403460400231E-116
   35.1618750000000         1.628361846281862E-116
   35.3756250000000         2.628834494766748E-115
   35.5893750000000         7.778044515568324E-115
   35.8031250000000         1.665803048815141E-114
   36.0168750000000         2.936472826919107E-114
   36.2306250000000         4.320908674906845E-114
   36.4443750000000         4.967910754701127E-114
   36.6581250000000         3.033836281291859E-114
   36.8718750000000        -4.715510356918360E-114
   37.0856250000000        -2.297523296599124E-113
   37.2993750000000        -5.702361552312098E-113
   37.5131250000000        -1.099035507968984E-112
   37.7268750000000        -1.763836151138518E-112
   37.9406250000000        -2.325631394157833E-112
   38.1543750000000        -2.211639320470854E-112
   38.3681250000000        -3.562177716692676E-113
   38.5818750000000         4.880224500247220E-112
   38.7956250000000         1.553263941461377E-111
   39.0093750000000         3.329709657785902E-111
   39.2231250000000         5.784910214307113E-111
   39.4368750000000         8.383729054396304E-111
   39.6506250000000         9.645948843603399E-111
   39.8643750000000         6.630569483967114E-111
   40.0781250000000        -5.433642986145293E-111
   40.2918750000000        -3.291456551378538E-110
   40.5056250000000        -8.218275568517165E-110
   40.7193750000000        -1.556312748444581E-109
   40.9331250000000        -2.442590750322931E-109
   41.1468750000000        -3.163510981933279E-109
   41.3606250000000        -3.034854420676529E-109
   41.5743750000000        -8.845055205393354E-110
   41.7881250000000         4.950330272970658E-109
   42.0018750000000         1.634056762811576E-108
   42.2156250000000         3.456557633633951E-108
   42.4293750000000         5.874649178196894E-108
   42.6431250000000         8.336287265660292E-108
   42.8568750000000         9.502142503256781E-108
   43.0706250000000         6.928856373242771E-108
   43.2843750000000        -3.057018565493409E-108
   43.4981250000000        -2.497504788924997E-107
   43.7118750000000        -6.284349638509970E-107
   43.9256250000000        -1.173552152552666E-106
   44.1393750000000        -1.812018729636713E-106
   44.3531250000000        -2.326782206239674E-106
   44.5668750000000        -2.287563872148065E-106
   44.7806250000000        -1.005474560984956E-106
   44.9943750000000         2.436212523025259E-106
   45.2081250000000         8.998664483365550E-106
   45.4218750000000         1.926049750629979E-105
   45.6356250000000         3.266954962925808E-105
   45.8493750000000         4.646183280808700E-105
   46.0631250000000         5.438195706536066E-105
   46.2768750000000         4.558389367233975E-105
   46.4906250000000         4.427540221380315E-106
   46.7043750000000        -8.774027354713602E-105
   46.9181250000000        -2.474504375493347E-104
   47.1318750000000        -4.792796552051786E-104
   47.3456250000000        -7.606136392891507E-104
   47.5593750000000        -1.021864482920894E-103
   47.7731250000000        -1.125752695622891E-103
   47.9868750000000        -8.532065676554017E-104
   48.2006250000000         9.187843589048578E-105
   48.4143750000000         2.042423377244100E-103
   48.6281250000000         5.273691483834681E-103
   48.8418750000000         9.838130224565028E-103
   49.0556250000000         1.532271476357054E-102
   49.2693750000000         2.054105668740207E-102
   49.4831250000000         2.320219142034354E-102
   49.6968750000000         1.963775978137811E-102
   49.9106250000000         4.717748671929863E-103
   50.1243750000000        -2.785896069795474E-102
   50.3381250000000        -8.464747151770098E-102
   50.5518750000000        -1.705806782634391E-101
   50.7656250000000        -2.856999002661545E-101
   50.9793750000000        -4.199461287868046E-101
   51.1931250000000        -5.454045362432016E-101
   51.4068750000000        -6.055559306864570E-101
   51.6206250000000        -5.018282096011542E-101
   51.8343750000000        -7.966194469307013E-102
   52.0481250000000         8.797589601612714E-101
   52.2618750000000         2.649149377368306E-100
   52.4756250000000         5.503150643938939E-100
   52.6893750000000         9.589726338384684E-100
   52.9031250000000         1.468019750578036E-099
   53.1168750000000         1.975515149940380E-099
   53.3306250000000         2.241308722586358E-099
   53.5443750000000         1.816853853403534E-099
   53.7581250000000        -1.381371026478608E-101
   53.9718750000000        -4.234857517717546E-099
   54.1856250000000        -1.196097057451761E-098
   54.3993750000000        -2.404649448187260E-098
   54.6131250000000        -4.030720304606543E-098
   54.8268750000000        -5.824635139155872E-098
   55.0406250000000        -7.129178323787162E-098
   55.2543750000000        -6.680950774889333E-098
   55.4681250000000        -2.460903140903758E-098
   55.6818750000000         8.269306242607248E-098
   55.8956250000000         2.853105592202009E-097
   56.1093750000000         6.051218276348746E-097
   56.3231250000000         1.034802703177984E-096
   56.5368750000000         1.505561989425122E-096
   56.7506250000000         1.845236802798157E-096
   56.9643750000000         1.735202576906066E-096
   57.1781250000000         6.850973301637921E-097
   57.3918750000000        -1.941765379813684E-096
   57.6056250000000        -6.804881902802752E-096
   57.8193750000000        -1.430832730501505E-095
   58.0331250000000        -2.411762682941550E-095
   58.2468750000000        -3.445828713852258E-095
   58.4606250000000        -4.126677447228106E-095
   58.6743750000000        -3.741115797597603E-095
   58.8881250000000        -1.241017703025792E-095
   59.1018750000000         4.666687288126039E-095
   59.3156250000000         1.522080361479815E-094
   59.5293750000000         3.099865457102783E-094
   59.7431250000000         5.092953597716797E-094
   59.9568750000000         7.094578628192805E-094
   60.1706250000000         8.246415538798367E-094
   60.3843750000000         7.117038731131233E-094
   60.5981250000000         1.695473076305898E-094
   60.8118750000000        -1.037452696497334E-093
   61.0256250000000        -3.116341802164958E-093
   61.2393750000000        -6.127574096438703E-093
   61.4531250000000        -9.804039277888023E-093
   61.6668750000000        -1.331705102974174E-092
   61.8806250000000        -1.503157524029356E-092
   62.0943750000000        -1.234097685906508E-092
   62.3081250000000        -1.731289604711677E-093
   62.5218750000000         2.071620215598235E-092
   62.7356250000000         5.814238317027925E-092
   62.9493750000000         1.108382891156883E-091
   63.1631250000000         1.732233862055101E-091
   63.3768750000000         2.301357444783516E-091
   63.5906250000000         2.532315037652349E-091
   63.8043750000000         1.990369907741194E-091
   64.0181250000000         1.106207117769715E-092
   64.2318750000000        -3.708580948452985E-091
   64.4456250000000        -9.905751589889062E-091
   64.6593750000000        -1.842420206742336E-090
   64.8731250000000        -2.824862614463620E-090
   65.0868750000000        -3.686293157300442E-090
   65.3006250000000        -3.976262443909437E-090
   65.5143750000000        -3.026115997346342E-090
   65.7281250000000         5.560211414297453E-093
   65.9418750000000         5.978498393784670E-090
   66.1556250000000         1.546289643383752E-089
   66.3693750000000         2.825005294310888E-089
   66.5831250000000         4.269537473658008E-089
   66.7968750000000         5.498315852921465E-089
   67.0106250000000         5.851410463431774E-089
   67.2243750000000         4.375551984731018E-089
   67.4381250000000        -9.658721895600019E-091
   67.6518750000000        -8.715826011066144E-089
   67.8656250000000        -2.218128261211415E-088
   68.0793750000000        -4.007363762964043E-088
   68.2931250000000        -5.998969466077244E-088
   68.5068750000000        -7.661208886081715E-088
   68.7206250000000        -8.099022142782844E-088
   68.9343750000000        -6.047712344896627E-088
   69.1481250000000         7.513617691390453E-091
   69.3618750000000         1.151770634989210E-087
   69.5756250000000         2.930248950768703E-087
   69.7893750000000         5.270651391159525E-087
   70.0031250000000         7.853556510246739E-087
   70.2168750000000         9.995239531117433E-087
   70.4306250000000         1.056805333274769E-086
   70.6443750000000         8.005476536959057E-087
   70.8581250000000         4.622749960184919E-088
   71.0718750000000        -1.379342058918605E-086
   71.2856250000000        -3.569386784148185E-086
   71.4993750000000        -6.437688172665941E-086
   71.7131250000000        -9.596039359548270E-086
   71.9268750000000        -1.223067376687103E-085
   72.1406250000000        -1.301823667774467E-085
   72.3543750000000        -1.014200368485154E-085
   72.5681250000000        -1.485365339430608E-086
   72.7818750000000         1.491640136705268E-085
   72.9956250000000         4.010457905289323E-085
   73.2093750000000         7.309961132822873E-085
   73.4231250000000         1.095735465538780E-084
   73.6368750000000         1.405395547258095E-084
   73.8506250000000         1.514970904513226E-084
   74.0643750000000         1.226717093758727E-084
   74.2781250000000         3.114054342210338E-085
   74.4918750000000        -1.443485081595293E-084
   74.7056250000000        -4.152837108840515E-084
   74.9193750000000        -7.720315559699231E-084
   75.1331250000000        -1.170263865340783E-083
   75.3468750000000        -1.517728912566506E-083
   75.5606250000000        -1.665784076535352E-083
   75.7743750000000        -1.411997784170457E-083
   75.9881250000000        -5.214841667271428E-084
   76.2018750000000         1.225368136147937E-083
   76.4156250000000         3.953485862960289E-083
   76.6293750000000         7.582512818394919E-083
   76.8431250000000         1.169545129139177E-082
   77.0568750000000         1.541108590178443E-082
   77.2706250000000         1.730179564759127E-082
   77.4843750000000         1.541534669185622E-082
   77.6981250000000         7.470974746285424E-083
   77.9118750000000        -8.700841931854825E-083
   78.1256250000000        -3.442789606647101E-082
   78.3393750000000        -6.918062833126000E-082
   78.5531250000000        -1.093657438628968E-081
   78.7668750000000        -1.471479121185950E-081
   78.9806250000000        -1.696670719031889E-081
   79.1943750000000        -1.591650963063978E-081
   79.4081250000000        -9.463474573430157E-082
   79.6218750000000         4.440602917351759E-082
   79.8356250000000         2.716035558018654E-081
   80.0493750000000         5.849563601710214E-081
   80.2631250000000         9.562819162775454E-081
   80.4768750000000         1.320780807997803E-080
   80.6906250000000         1.569750812775001E-080
   80.9043750000000         1.550714404566168E-080
   81.1181250000000         1.080050861146443E-080
   81.3318750000000        -2.682634366348561E-082
   81.5456250000000        -1.904214226021798E-080
   81.7593750000000        -4.563776692032276E-080
   81.9731250000000        -7.807001336775410E-080
   82.1868750000000        -1.113655966709723E-079
   82.4006250000000        -1.369045573665360E-079
   82.6143750000000        -1.423252157189331E-079
   82.8281250000000        -1.123963533078751E-079
   83.0418750000000        -3.126242601938192E-080
   83.2556250000000         1.136403619201144E-079
   83.4693750000000         3.259595398203498E-079
   83.6831250000000         5.934963661997466E-079
   83.8968750000000         8.809911661557450E-079
   84.1106250000000         1.124387088014893E-078
   84.3243750000000         1.229081547402564E-078
   84.5381250000000         1.075226477052879E-078
   84.7518750000000         5.332239459230734E-079
   84.9656250000000        -5.081367258563032E-079
   85.1793750000000        -2.100251938714705E-078
   85.3931250000000        -4.182448849693466E-078
   85.6068750000000        -6.525790038049606E-078
   85.8206250000000        -8.685222848872921E-078
   86.0343750000000        -9.977915154974588E-078
   86.2481250000000        -9.509977011238273E-078
   86.4618750000000        -6.275043088889577E-078
   86.6756250000000         6.558548370961401E-079
   86.8893750000000         1.184529111037266E-077
   87.1031250000000         2.711426887995417E-077
   87.3168750000000         4.512402201997910E-077
   87.5306250000000         6.299558714496865E-077
   87.7443750000000         7.608782877016045E-077
   87.9581250000000         7.808790923035390E-077
   88.1718750000000         6.158243573444941E-077
   88.3856250000000         1.925757718055605E-077
   88.5993750000000        -5.419313857020500E-077
   88.8131250000000        -1.595059551278493E-076
   89.0268750000000        -2.898782842549054E-076
   89.2406250000000        -4.280952075878319E-076
   89.4543750000000        -5.445274908690767E-076
   89.6681250000000        -5.970223363286855E-076
   89.8818750000000        -5.338428552932651E-076
   90.0956250000000        -3.007386677552804E-076
   90.3093750000000         1.471556305668615E-076
   90.5231250000000         8.286817804862205E-076
   90.7368750000000         1.716587814009870E-075
   90.9506250000000         2.716945739478031E-075
   91.1643750000000         3.652803939942016E-075
   91.3781250000000         4.258543377994660E-075
   91.5918750000000         4.192540012603044E-075
   91.8056250000000         3.075665291755576E-075
   92.0193750000000         5.612105679723174E-076
   92.2331250000000        -3.562596425885895E-075
   92.4468750000000        -9.243537180636064E-075
   92.6606250000000        -1.602573119015695E-074
   92.8743750000000        -2.292688975853242E-074
   93.0881250000000        -2.837159536276717E-074
   93.3018750000000        -3.022838463401271E-074
   93.5156250000000        -2.600050803838090E-074
   93.7293750000000        -1.321156889787187E-074
   93.9431250000000         9.996117666355400E-075
   94.1568750000000         4.407324450399352E-074
   94.3706250000000         8.716591256383001E-074
   94.5843750000000         1.342600106252333E-073
   94.7981250000000         1.765927807448164E-073
   95.0118750000000         2.016181350445504E-073
   95.2256250000000         1.938397085777175E-073
   95.4393750000000         1.367940935346787E-073
   95.6531250000000         1.635151878305505E-074
   95.8668750000000        -1.747159154403743E-073
   96.0806250000000        -4.312716928410204E-073
   96.2943750000000        -7.302423741462821E-073
   96.5081250000000        -1.026169374164084E-072
   96.7218750000000        -1.249523705708907E-072
   96.9356250000000        -1.309662719353418E-072
   97.1493750000000        -1.104240619301694E-072
   97.3631250000000        -5.363616586181113E-073
   97.5768750000000         4.603340177555580E-073
   97.7906250000000         1.890187148245390E-072
   98.0043750000000         3.661457059872419E-072
   98.2181250000000         5.556105973684431E-072
   98.4318750000000         7.212356693876125E-072
   98.6456250000000         8.130714735075395E-072
   98.8593750000000         7.714384554565361E-072
   99.0731250000000         5.352875490753950E-072
   99.2868750000000         5.523460091360402E-073
   99.5006250000000        -6.892533525633181E-072
   99.7143750000000        -1.670252187938979E-071
   99.9281250000000        -2.792526633544945E-071
   100.141875000000        -3.880057720240025E-071
   100.355625000000        -4.673737490140383E-071
   100.569375000000        -4.846455216771739E-071
   100.783125000000        -4.041057641879195E-071
   100.996875000000        -1.934315124477730E-071
   101.210625000000         1.674214014166622E-071
   101.424375000000         6.755651211472927E-071
   101.638125000000         1.294239956343506E-070
   101.851875000000         1.943872739758142E-070
   102.065625000000         2.498113342350401E-070
   102.279375000000         2.788205654483162E-070
   102.493125000000         2.618865183265450E-070
   102.706875000000         1.797855861175336E-070
   102.920625000000         1.795113326309833E-071
   103.134375000000        -2.280509857349600E-070
   103.348125000000        -5.465746093466167E-070
   103.561875000000        -9.045455900826722E-070
   103.775625000000        -1.244176156328040E-069
   103.989375000000        -1.483459386927060E-069
   104.203125000000        -1.522164068607884E-069
   104.416875000000        -1.254676063867912E-069
   104.630625000000        -5.901840705050334E-070
   104.844375000000         5.206545235463879E-070
   105.058125000000         2.055253721092014E-069
   105.271875000000         3.889631157478387E-069
   105.485625000000         5.776769757206418E-069
   105.699375000000         7.341177032967341E-069
   105.913125000000         8.098443399679744E-069
   106.126875000000         7.507328408031316E-069
   106.340625000000         5.058407118705503E-069
   106.554375000000         3.973133357667584E-070
   106.768125000000        -6.527735723000421E-069
   106.981875000000        -1.531443751974770E-068
   107.195625000000        -2.498144832295267E-068
   107.409375000000        -3.390884505981326E-068
   107.623125000000        -3.988669841497249E-068
   107.836875000000        -4.031085890969597E-068
   108.050625000000        -3.255145530609653E-068
   108.264375000000        -1.449437823444447E-068
   108.478125000000         1.478066607291048E-068
   108.691875000000         5.426739500441378E-068
   108.905625000000         1.003757568946533E-067
   109.119375000000         1.465229344107768E-067
   109.333125000000         1.831697190379094E-067
   109.546875000000         1.984930196533267E-067
   109.760625000000         1.798355383973025E-067
   109.974375000000         1.159720375041487E-067
   110.188125000000         7.687141772547419E-071
   110.401875000000        -1.669209148750201E-067
   110.615625000000        -3.731276463016633E-067
   110.829375000000        -5.933552495884028E-067
   111.043125000000        -7.885421138626012E-067
   111.256875000000        -9.078059854102998E-067
   111.470625000000        -8.938405619274161E-067
   111.684375000000        -6.919748756740990E-067
   111.898125000000        -2.625860344876810E-067
   112.111875000000         4.042774112403832E-067
   112.325625000000         1.274154531160221E-066
   112.539375000000         2.256324021455649E-066
   112.753125000000         3.198537556302064E-066
   112.966875000000         3.892217295968723E-066
   113.180625000000         4.091466003738802E-066
   113.394375000000         3.547779609870232E-066
   113.608125000000         2.059885704360431E-066
   113.821875000000        -4.652495679679252E-067
   114.035625000000        -3.948175440511889E-066
   114.249375000000        -8.081379899136613E-066
   114.463125000000        -1.229745081202101E-065
   114.676875000000        -1.577738377542461E-065
   114.890625000000        -1.751393434413829E-065
   115.104375000000        -1.643968546826588E-065
   115.318125000000        -1.162011494388787E-065
   115.531875000000        -2.498644484425314E-066
   115.745625000000         1.083541020355977E-065
   115.959375000000         2.740168307501688E-065
   116.173125000000         4.516603264147598E-065
   116.386875000000         6.102717669105998E-065
   116.600625000000         7.101603994104826E-065
   116.814375000000         7.075305984501683E-065
   117.028125000000         5.617392429132394E-065
   117.241875000000         2.448324641592951E-065
   117.455625000000        -2.476747009845708E-065
   117.669375000000        -8.864840464920142E-065
   117.883125000000        -1.600963172831064E-064
   118.096875000000        -2.277008202208629E-064
   118.310625000000        -2.762919051243504E-064
   118.524375000000        -2.885279437392892E-064
   118.738125000000        -2.475576233881030E-064
   118.951875000000        -1.406384565666292E-064
   119.165625000000         3.664792949282072E-065
   119.379375000000         2.762081469199451E-064
   119.593125000000         5.541426905056641E-064
   119.806875000000         8.293695645187055E-064
   120.020625000000         1.045202468078384E-063
   120.234375000000         1.134724536875412E-063
   120.448125000000         1.030354260848202E-063
   120.661875000000         6.773005237395511E-064
   120.875625000000         4.969202541533221E-065
   121.089375000000        -8.328537766302856E-064
   121.303125000000        -1.891419559999282E-063
   121.516875000000        -2.980618239455948E-063
   121.730625000000        -3.892109928530822E-063
   121.944375000000        -4.372253731385457E-063
   122.158125000000        -4.155812034087830E-063
   122.371875000000        -3.015112578951703E-063
   122.585625000000        -8.207103110185720E-064
   122.799375000000         2.394268776340662E-063
   123.013125000000         6.377684586963232E-063
   123.226875000000         1.062429518504338E-062
   123.440625000000         1.437953421502288E-062
   123.654375000000         1.669499383676337E-062
   123.868125000000         1.654435487545401E-062