  -1.60312500000000         0.000000000000000E+000
  -1.38937500000000         0.000000000000000E+000
  -1.17562500000000         0.000000000000000E+000
 -0.961875000000000         0.000000000000000E+000
 -0.748125000000000         0.000000000000000E+000
 -0.534375000000000         0.000000000000000E+000
 -0.320625000000000         0.000000000000000E+000
 -0.106875000000000         0.000000000000000E+000
  0.106875000000000         0.000000000000000E+000
  0.320625000000000         0.000000000000000E+000
  0.534375000000000         0.000000000000000E+000
  0.748125000000000         0.000000000000000E+000
  0.961875000000000         0.000000000000000E+000
   1.17562500000000         0.000000000000000E+000
   1.38937500000000         0.000000000000000E+000
   1.60312500000000         0.000000000000000E+000
   1.81687500000000         0.000000000000000E+000
   2.03062500000000         0.000000000000000E+000
   2.24437500000000         0.000000000000000E+000
   2.45812500000000         0.000000000000000E+000
   2.67187500000000         0.000000000000000E+000
   2.88562500000000         0.000000000000000E+000
   3.09937500000000         0.000000000000000E+000
   3.31312500000000         0.000000000000000E+000
   3.52687500000000         0.000000000000000E+000
   3.74062500000000         0.000000000000000E+000
   3.95437500000000         0.000000000000000E+000
   4.16812500000000         0.000000000000000E+000
   4.38187500000000         0.000000000000000E+000
   4.59562500000000         0.000000000000000E+000
   4.80937500000000         0.000000000000000E+000
   5.02312500000000         0.000000000000000E+000
   5.23687500000000         0.000000000000000E+000
   5.45062500000000         0.000000000000000E+000
   5.66437500000000         0.000000000000000E+000
   5.87812500000000         0.000000000000000E+000
   6.09187500000000         0.000000000000000E+000
   6.30562500000000         0.000000000000000E+000
   6.51937500000000         0.000000000000000E+000
   6.73312500000000         0.000000000000000E+000
   6.94687500000000         0.000000000000000E+000
   7.16062500000000         0.000000000000000E+000
   7.37437500000000         0.000000000000000E+000
   7.58812500000000         0.000000000000000E+000
   7.80187500000000         0.000000000000000E+000
   8.01562500000000         0.000000000000000E+000
   8.22937500000000         0.000000000000000E+000
   8.44312500000000         0.000000000000000E+000
   8.65687500000000         0.000000000000000E+000
   8.87062500000000         0.000000000000000E+000
   9.08437500000000         0.000000000000000E+000
   9.29812500000000        -3.725585730474520E-189
   9.51187500000000        -1.505849417568484E-182
   9.72562500000000        -2.008395529833993E-179
   9.93937500000000        -2.407195606803155E-177
   10.1531250000000         7.141772589670197E-175
   10.3668750000000         8.010738982263840E-173
   10.5806250000000        -2.560480936828591E-171
   10.7943750000000        -3.341700596092002E-169
   11.0081250000000        -1.240366179255502E-167
   11.2218750000000        -2.619700193320795E-166
   11.4356250000000        -3.520238543908810E-165
   11.6493750000000        -2.750372479051435E-164
   11.8631250000000        -1.117168693366396E-164
   12.0768750000000         3.069620171559008E-162
   12.2906250000000         4.823655857105198E-161
   12.5043750000000         4.066576697423078E-160
   12.7181250000000         1.448817409722984E-159
   12.9318750000000        -1.162048720828079E-158
   13.1456250000000        -2.336152960309999E-157
   13.3593750000000        -2.275830974939003E-156
   13.5731250000000        -2.135897721357924E-155
   13.7868750000000        -2.536391949300803E-154
   14.0006250000000        -3.143733760801389E-153
   14.2143750000000        -3.367615175230872E-152
   14.4281250000000        -3.006372219646205E-151
   14.6418750000000        -2.272309867942274E-150
   14.8556250000000        -1.488502575254209E-149
   15.0693750000000        -8.630024960703381E-149
   15.2831250000000        -4.506751642540363E-148
   15.4968750000000        -2.151267524969581E-147
   15.7106250000000        -9.507314749372193E-147
   15.9243750000000        -3.935312003409197E-146
   16.1381250000000        -1.542184028980239E-145
   16.3518750000000        -5.779247144433223E-145
   16.5656250000000        -2.089324176866246E-144
   16.7793750000000        -7.336443972197979E-144
   16.9931250000000        -2.511746897120262E-143
   17.2068750000000        -8.386678143750231E-143
   17.4206250000000        -2.721958529201567E-142
   17.6343750000000        -8.532318151012190E-142
   17.8481250000000        -2.560292855163093E-141
   18.0618750000000        -7.272405471299530E-141
   18.2756250000000        -1.927305098459957E-140
   18.4893750000000        -4.668291076041845E-140
   18.7031250000000        -9.985964352382703E-140
   18.9168750000000        -1.756387239237971E-139
   19.1306250000000        -2.034846573967127E-139
   19.3443750000000         5.546114241788139E-140
   19.5581250000000         9.365809817099263E-139
   19.7718750000000         1.217220478736324E-138
   19.9856250000000        -1.116379161776141E-137
   20.1993750000000        -9.727546988737749E-137
   20.4131250000000        -4.993262763292924E-136
   20.6268750000000        -2.043310886081906E-135
   20.8406250000000        -7.236273836250184E-135
   21.0543750000000        -2.293855025510587E-134
   21.2681250000000        -6.607076061149240E-134
   21.4818750000000        -1.736985418377258E-133
   21.6956250000000        -4.148715330741652E-133
   21.9093750000000        -8.845575250957579E-133
   22.1231250000000        -1.607341862252899E-132
   22.3368750000000        -2.143349327997963E-132
   22.5506250000000        -3.915861454711227E-133
   22.7643750000000         1.046420593797803E-131
   22.9781250000000         4.870047577497243E-131
   23.1918750000000         1.567857505141904E-130
   23.4056250000000         4.204813971180991E-130
   23.6193750000000         9.847881767375387E-130
   23.8331250000000         2.026832549224579E-129
   24.0468750000000         3.571961624268564E-129
   24.2606250000000         4.889639459662749E-129
   24.4743750000000         2.958091990740510E-129
   24.6881250000000        -1.080106931531079E-128
   24.9018750000000        -5.633115023284172E-128
   25.1156250000000        -1.729192237170270E-127
   25.3293750000000        -4.244730204485361E-127
   25.5431250000000        -8.854652168032377E-127
   25.7568750000000        -1.566170647642832E-126
   25.9706250000000        -2.193325766077640E-126
   26.1843750000000        -1.707998516427287E-126
   26.3981250000000         2.683271449623922E-126
   26.6118750000000         1.694326329359701E-125
   26.8256250000000         5.161252314070279E-125
   27.0393750000000         1.211935556283469E-124
   27.2531250000000         2.363641821064633E-124
   27.4668750000000         3.784363081540465E-124
   27.6806250000000         4.383217544742054E-124
   27.8943750000000         9.774092950264133E-125
   28.1081250000000        -1.358503499995733E-123
   28.3218750000000        -5.254765208127649E-123
   28.5356250000000        -1.356464157448326E-122
   28.7493750000000        -2.825922276465901E-122
   28.9631250000000        -4.888381622522352E-122
   29.1768750000000        -6.652493437046269E-122
   29.3906250000000        -5.173539047788716E-122
   29.6043750000000         6.535491124469920E-122
   29.8181250000000         4.202037276143218E-121
   30.0318750000000         1.229518827600998E-120
   30.2456250000000         2.756392842635319E-120
   30.4593750000000         5.137889519414936E-120
   30.6731250000000         7.923664064867458E-120
   30.8868750000000         9.114800580656190E-120
   31.1006250000000         3.509680635631306E-120
   31.3143750000000        -1.958324434025682E-119
   31.5281250000000        -7.843616446161673E-119
   31.7418750000000        -1.982783991198123E-118
   31.9556250000000        -4.024345687652994E-118
   32.1693750000000        -6.853577174606579E-118
   32.3831250000000        -9.532011416515314E-118
   32.5968750000000        -9.167687248475408E-118
   32.8106250000000         6.696230563540560E-119
   33.0243750000000         3.170014188500148E-117
   33.2381250000000         1.016326234108615E-116
   33.4518750000000         2.310057455120451E-116
   33.6656250000000         4.310190593931603E-116
   33.8793750000000         6.745764410585279E-116
   34.0931250000000         8.415451693440188E-116
   34.3068750000000         6.331576847075768E-116
   34.5206250000000        -5.338234485747563E-116
   34.7343750000000        -3.605567065447062E-115
   34.9481250000000        -9.826221786934975E-115
   35.1618750000000        -2.030981072668751E-114
   35.3756250000000        -3.490717652382653E-114
   35.5893750000000        -4.994747096335057E-114
   35.8031250000000        -5.453678508263547E-114
   36.0168750000000        -2.562607602141776E-114
   36.2306250000000         7.663224755157108E-114
   36.4443750000000         3.092553880512385E-113
   36.6581250000000         7.347471501426369E-113
   36.8718750000000         1.384943671375886E-112
   37.0856250000000         2.184429263184818E-112
   37.2993750000000         2.819470040100089E-112
   37.5131250000000         2.553419566385522E-112
   37.7268750000000         2.858625443501394E-114
   37.9406250000000        -6.830502612705747E-112
   38.1543750000000        -2.058044536602060E-111
   38.3681250000000        -4.331030557559929E-111
   38.5818750000000        -7.447811196635831E-111
   38.7956250000000        -1.070451160182723E-110
   39.0093750000000        -1.217800541579394E-110
   39.2231250000000        -8.059938662210850E-111
   39.4368750000000         7.824754780194678E-111
   39.6506250000000         4.372706927951043E-110
   39.8643750000000         1.079311592587747E-109
   40.0781250000000         2.036235253280365E-109
   40.2918750000000         3.192892456480924E-109
   40.5056250000000         4.139789867504458E-109
   40.7193750000000         3.989561770012869E-109
   40.9331250000000         1.215509896715105E-109
   41.1468750000000        -6.360636410042966E-109
   41.3606250000000        -2.121520753254361E-108
   41.5743750000000        -4.510112521754538E-108
   41.7881250000000        -7.702867611338155E-108
   42.0018750000000        -1.100421622086057E-107
   42.2156250000000        -1.269895128227366E-107
   42.4293750000000        -9.630426834247954E-108
   42.6431250000000         2.985521103808463E-108
   42.8568750000000         3.110209891019916E-107
   43.0706250000000         8.015533352466612E-107
   43.2843750000000         1.514858661827145E-106
   43.4981250000000         2.363742839577851E-106
   43.7118750000000         3.078314308064616E-106
   43.9256250000000         3.116164596001532E-106
   44.1393750000000         1.601233309002515E-106
   44.3531250000000        -2.643385753574463E-106
   44.5668750000000        -1.087357035703542E-105
   44.7806250000000        -2.390076505659560E-105
   44.9943750000000        -4.117219226773444E-105
   45.2081250000000        -5.944229307785101E-105
   45.4218750000000        -7.120134886162241E-105
   45.6356250000000        -6.332000086512207E-105
   45.8493750000000        -1.676035332573385E-105
   46.0631250000000         9.138006037922388E-105
   46.2768750000000         2.819460224867148E-104
   46.4906250000000         5.624884208237328E-104
   46.7043750000000         9.100946571801977E-104
   46.9181250000000         1.249490223259147E-103
   47.1318750000000         1.430588110450376E-103
   47.3456250000000         1.213570617297891E-103
   47.5593750000000         2.736833773078868E-104
   47.7731250000000        -1.759151117274902E-103
   47.9868750000000        -5.210815102073054E-103
   48.2006250000000        -1.021311237511780E-102
   48.4143750000000        -1.649288366009208E-102
   48.6281250000000        -2.311297653728678E-102
   48.8418750000000        -2.819089956301072E-102
   49.0556250000000        -2.862768052649464E-102
   49.2693750000000        -1.987658407158483E-102
   49.4831250000000         4.223818329121176E-103
   49.6968750000000         5.150599334418139E-102
   49.9106250000000         1.312623510774431E-101
   50.1243750000000         2.533145670590242E-101
   50.3381250000000         4.253260418958443E-101
   50.5518750000000         6.464009576010203E-101
   50.7656250000000         8.939114338283122E-101
   50.9793750000000         1.099758662854425E-100
   51.1931250000000         1.113083463555654E-100
   51.4068750000000         6.507620323202168E-101
   51.6206250000000        -7.525142914491406E-101
   51.8343750000000        -3.763574680505231E-100
   52.0481250000000        -9.179665588510153E-100
   52.2618750000000        -1.767219733503701E-099
   52.4756250000000        -2.922204862648704E-099
   52.6893750000000        -4.212623809958750E-099
   52.9031250000000        -5.153204578523903E-099
   53.1168750000000        -4.765955406327422E-099
   53.3306250000000        -1.426401259368670E-099
   53.5443750000000         7.150503560501276E-099
   53.7581250000000         2.359183289125815E-098
   53.9718750000000         4.994827452120872E-098
   54.1856250000000         8.587990841329804E-098
   54.3993750000000         1.257387292853511E-097
   54.6131250000000         1.546452045070713E-097
   54.8268750000000         1.442866290131481E-097
   55.0406250000000         5.019880032532061E-098
   55.2543750000000        -1.863007456720001E-097
   55.4681250000000        -6.268293954964898E-097
   55.6818750000000        -1.309554592638357E-096
   55.8956250000000        -2.202447854472446E-096
   56.1093750000000        -3.134510057466256E-096
   56.3231250000000        -3.711851152279631E-096
   56.5368750000000        -3.240644495860957E-096
   56.7506250000000        -7.010753117353158E-097
   56.9643750000000         5.156977000071959E-096
   57.1781250000000         1.550188703817263E-095
   57.3918750000000         3.079005750548753E-095
   57.6056250000000         4.974703258532416E-095
   57.8193750000000         6.798735675232180E-095
   58.0331250000000         7.649366855986150E-095
   58.2468750000000         6.048071856971377E-095
   58.4606250000000        -4.274246733710968E-097
   58.6743750000000        -1.293522371081588E-094
   58.8881250000000        -3.450044154980725E-094
   59.1018750000000        -6.486949134087680E-094
   59.3156250000000        -1.004903862837723E-093
   59.5293750000000        -1.316935127912008E-093
   59.7431250000000        -1.402907259067324E-093
   59.9568750000000        -9.826962111235218E-094
   60.1706250000000         3.071325139784013E-094
   60.3843750000000         2.847511400332072E-093
   60.5981250000000         6.895043525397866E-093
   60.8118750000000         1.234499701676503E-092
   61.0256250000000         1.839996694824536E-092
   61.2393750000000         2.318493965469260E-092
   61.4531250000000         2.341274534357371E-092
   61.6668750000000         1.428786344568672E-092
   61.8806250000000        -1.007242079853373E-092
   62.0943750000000        -5.535236153641036E-092
   62.3081250000000        -1.245451227295831E-091
   62.5218750000000        -2.140573923825553E-091
   62.7356250000000        -3.085835515808580E-091
   62.9493750000000        -3.755789215205010E-091
   63.1631250000000        -3.611261335034086E-091
   63.3768750000000        -1.901750495593847E-091
   63.5906250000000         2.247084569654940E-091
   63.8043750000000         9.613062647228886E-091
   64.0181250000000         2.048246323881013E-090
   64.2318750000000         3.406638137025468E-090
   64.4456250000000         4.777377070898777E-090
   64.6593750000000         5.648386715111080E-090
   64.8731250000000         5.209431835550963E-090
   65.0868750000000         2.377398666773274E-090
   65.3006250000000        -4.051911910577802E-090
   65.5143750000000        -1.506526830252353E-089
   65.7281250000000        -3.086109689186609E-089
   65.9418750000000        -5.004524071967105E-089
   66.1556250000000        -6.867799204896969E-089
   66.3693750000000        -7.938833874797912E-089
   66.5831250000000        -7.094110568773660E-089
   66.7968750000000        -2.882285693711369E-089
   67.0106250000000         6.245328564519336E-089
   67.2243750000000         2.146243464694835E-088
   67.4381250000000         4.280894516718406E-088
   67.6518750000000         6.816458991941554E-088
   67.8656250000000         9.208591991350723E-088
   68.0793750000000         1.048004134024089E-087
   68.2931250000000         9.185055749785370E-088
   68.5068750000000         3.507730434436222E-088
   68.7206250000000        -8.424508950113080E-088
   68.9343750000000        -2.793676354663805E-087
   69.1481250000000        -5.487311392871515E-087
   69.3618750000000        -8.637614668746916E-087
   69.5756250000000        -1.155568170979118E-086
   69.7893750000000        -1.304184848577344E-086
   70.0031250000000        -1.136163672236770E-086
   70.2168750000000        -4.383322991716664E-087
   70.4306250000000         1.003484672638122E-086
   70.6443750000000         3.333139584539738E-086
   70.8581250000000         6.517271371910610E-086
   71.0718750000000         1.020937115286583E-085
   71.2856250000000         1.360630857041644E-085
   71.4993750000000         1.533875271735585E-085
   71.7131250000000         1.345915202567176E-085
   71.9268750000000         5.609976882998235E-086
   72.1406250000000        -1.053799527659677E-085
   72.3543750000000        -3.650420138476031E-085
   72.5681250000000        -7.185399512601146E-085
   72.7818750000000        -1.127738119808836E-084
   72.9956250000000        -1.506031199303660E-084
   73.2093750000000        -1.707599831982643E-084
   73.4231250000000        -1.527114717650946E-084
   73.6368750000000        -7.181256121628680E-085
   73.8506250000000         9.611923745248328E-085
   74.0643750000000         3.668233125294071E-084
   74.2781250000000         7.360971989011562E-084
   74.4918750000000         1.165683583683114E-083
   74.7056250000000         1.568948295988232E-083
   74.9193750000000         1.800636671469173E-083
   75.1331250000000         1.656959221817840E-083
   75.3468750000000         8.937568191191664E-084
   75.5606250000000        -7.292730782972672E-084
   75.7743750000000        -3.372347455093912E-083
   75.9881250000000        -7.006776119650204E-083
   76.2018750000000        -1.128241033555445E-082
   76.4156250000000        -1.539389553984329E-082
   76.6293750000000        -1.798508005303448E-082
   76.8431250000000        -1.714811298895354E-082
   77.0568750000000        -1.058643043397069E-082
   77.2706250000000         3.988019000687539E-083
   77.4843750000000         2.817184993311528E-082
   77.6981250000000         6.189770303739359E-082
   77.9118750000000         1.022505838898816E-081
   78.1256250000000         1.422691326267419E-081
   78.3393750000000         1.700708367402845E-081
   78.5531250000000         1.687846022922332E-081
   78.7668750000000         1.178790456116689E-081
   78.9806250000000        -3.517259316125733E-083
   79.1943750000000        -2.108656501765271E-081
   79.4081250000000        -5.059924597504920E-081
   79.6218750000000        -8.670201091201436E-081
   79.8356250000000        -1.238043208497864E-080
   80.0493750000000        -1.521298830606376E-080
   80.2631250000000        -1.575750436379599E-080
   80.4768750000000        -1.226862339899008E-080
   80.6906250000000        -2.924356021833552E-081
   80.9043750000000         1.371829067545895E-080
   81.1181250000000         3.806408344814075E-080
   81.3318750000000         6.866267642429848E-080
   81.5456250000000         1.013542440211308E-079
   81.7593750000000         1.285879487713104E-079
   81.9731250000000         1.392152306903418E-079
   82.1868750000000         1.191289732674426E-079
   82.4006250000000         5.313249012984937E-080
   82.6143750000000        -7.166093771014996E-080
   82.8281250000000        -2.608160399111984E-079
   83.0418750000000        -5.062515477130144E-079
   83.2556250000000        -7.794525599491786E-079
   83.4693750000000        -1.025739379000488E-078
   83.6831250000000        -1.161807381415436E-078
   83.8968750000000        -1.079298598550576E-078
   84.1106250000000        -6.573241520309431E-079
   84.3243750000000         2.136589248631446E-079
   84.5381250000000         1.595689685924986E-078
   84.7518750000000         3.456587314103535E-078
   84.9656250000000         5.618258780757728E-078
   85.1793750000000         7.710417919128818E-078
   85.3931250000000         9.145188418760417E-078
   85.6068750000000         9.132272417203049E-078
   85.8206250000000         6.756065885035515E-078
   86.0343750000000         1.133309789267085E-078
   86.2481250000000        -8.339445781125858E-078
   86.4618750000000        -2.165669618397391E-077
   86.6756250000000        -3.782724178507940E-077
   86.8893750000000        -5.451696486250805E-077
   87.1031250000000        -6.781416027855024E-077
   87.3168750000000        -7.225185857888127E-077
   87.5306250000000        -6.123775021037464E-077
   87.7443750000000        -2.803002433132505E-077
   87.9581250000000         3.265721810758218E-077
   88.1718750000000         1.224437561455867E-076
   88.3856250000000         2.366598669800910E-076
   88.5993750000000         3.617192813656812E-076
   88.8131250000000         4.731424187824104E-076
   89.0268750000000         5.351092860856448E-076
   89.2406250000000         5.025604473017253E-076
   89.4543750000000         3.268318670754463E-076
   89.6681250000000        -3.448687794348721E-077
   89.8818750000000        -6.034215417526609E-076
   90.0956250000000        -1.364184669571532E-075
   90.3093750000000        -2.244804284055653E-075
   90.5231250000000        -3.101763097099662E-075
   90.7368750000000        -3.713152538837560E-075
   90.9506250000000        -3.786941460072622E-075
   91.1643750000000        -2.991070697481315E-075
   91.3781250000000        -1.010623057159609E-075
   91.5918750000000         2.366254785902051E-075
   91.8056250000000         7.138014688107326E-075
   92.0193750000000         1.296766194513671E-074
   92.2331250000000         1.907174341438800E-074
   92.4468750000000         2.415330905090352E-074
   92.6606250000000         2.641978393665803E-074
   92.8743750000000         2.372932256451741E-074
   93.0881250000000         1.390286527209493E-074
   93.3018750000000        -4.779693468014036E-075
   93.5156250000000        -3.291448229158755E-074
   93.7293750000000        -6.920371480565428E-074
   93.9431250000000        -1.097051201308996E-073
   94.1568750000000        -1.472890563574777E-073
   94.3706250000000        -1.715461150251266E-073
   94.5843750000000        -1.694148217559390E-073
   94.7981250000000        -1.267766892607699E-073
   95.0118750000000        -3.117297419865475E-074
   95.2256250000000         1.243822307993085E-073
   95.4393750000000         3.367889525055113E-073
   95.6531250000000         5.880923440382212E-073
   95.8668750000000         8.415853480413382E-073
   96.0806250000000         1.040159386710085E-072
   96.2943750000000         1.108493029284790E-072
   96.5081250000000         9.606250590235175E-073
   96.7218750000000         5.140314904761173E-073
   96.9356250000000        -2.895873104483748E-073
   97.1493750000000        -1.458047011705549E-072
   97.3631250000000        -2.920102062200906E-072
   97.5768750000000        -4.499899481926564E-072
   97.7906250000000        -5.901918823492905E-072
   98.0043750000000        -6.715339541234013E-072
   98.2181250000000        -6.446977261261659E-072
   98.4318750000000        -4.590132929747085E-072
   98.6456250000000        -7.322863944615908E-073
   98.8593750000000         5.302792179197505E-072
   99.0731250000000         1.329306514342832E-071
   99.2868750000000         2.246292327254313E-071
   99.5006250000000         3.137314670451942E-071
   99.7143750000000         3.790412159547898E-071
   99.9281250000000         3.938355799865851E-071
   100.141875000000         3.290322108707298E-071
   100.355625000000         1.584896961421968E-071
   100.569375000000        -1.336748232435119E-071
   100.783125000000        -5.443789812464541E-071
   100.996875000000        -1.042734088287022E-070
   101.210625000000        -1.562979848271796E-070
   101.424375000000        -2.001656318392664E-070
   101.638125000000        -2.221745411558671E-070
   101.851875000000        -2.066305754205545E-070
   102.065625000000        -1.383248394445196E-070
   102.279375000000        -6.122660723741638E-072
   102.493125000000         1.925873065327838E-070
   102.706875000000         4.471487616135915E-070
   102.920625000000         7.295031630293116E-070
   103.134375000000         9.918730931605643E-070
   103.348125000000         1.167653039590397E-069
   103.561875000000         1.176857222516205E-069
   103.775625000000         9.371162230559988E-070
   103.989375000000         3.804658945581879E-070
   104.203125000000        -5.249864725719268E-070
   104.416875000000        -1.750940551892625E-069
   104.630625000000        -3.186434268936592E-069
   104.844375000000        -4.622714688684069E-069
   105.058125000000        -5.752206445674444E-069
   105.271875000000        -6.188426017395846E-069
   105.485625000000        -5.512321470035409E-069
   105.699375000000        -3.347310834225953E-069
   105.913125000000         5.399015326918754E-070
   106.126875000000         6.122613664096133E-069
   106.340625000000         1.299942549654298E-068
   106.554375000000         2.030727079375483E-068
   106.768125000000         2.669370967727535E-068
   106.981875000000         3.038162070158090E-068
   107.195625000000         2.935458118177228E-068
   107.409375000000         2.167803071324140E-068
   107.623125000000         5.948861293857458E-069
   107.836875000000        -1.816494029133763E-068
   108.050625000000        -4.936968691033983E-068
   108.264375000000        -8.428852497347371E-068
   108.478125000000        -1.172426406887294E-067
   108.691875000000        -1.404247612658749E-067
   108.905625000000        -1.446029788701056E-067
   109.119375000000        -1.204407045191821E-067
   109.333125000000        -6.042473717227594E-068
   109.546875000000         3.874016835704984E-068
   109.760625000000         1.735740143044751E-067
   109.974375000000         3.315737453584383E-067
   110.188125000000         4.898883173280780E-067
   110.401875000000         6.156018797313264E-067
   110.615625000000         6.682670455813005E-067
   110.829375000000         6.051310802085227E-067
   111.043125000000         3.891177850246869E-067
   111.256875000000        -9.301613570961250E-070
   111.470625000000        -5.589372321375417E-067
   111.684375000000        -1.241137782317438E-066
   111.898125000000        -1.959051234900831E-066
   112.111875000000        -2.578843401946688E-066
   112.325625000000        -2.929940360071136E-066
   112.539375000000        -2.825029020446082E-066
   112.753125000000        -2.092082425544236E-066
   112.966875000000        -6.167813460262023E-067
   113.180625000000         1.609178414108990E-066
   113.394375000000         4.441550625190739E-066
   113.608125000000         7.549289771702338E-066
   113.821875000000         1.040494375692882E-065
   114.035625000000         1.231205136746272E-065
   114.249375000000         1.247931482338150E-065
   114.463125000000         1.014558462738527E-065
   114.676875000000         4.750720754828977E-066
   114.890625000000        -3.864275871510023E-066
   115.104375000000        -1.525749722206312E-065
   115.318125000000        -2.822857448457443E-065
   115.531875000000        -4.075367368044495E-065
   115.745625000000        -5.006482824466282E-065
   115.959375000000        -5.291660799710537E-065
   116.173125000000        -4.606173417982104E-065
   116.386875000000        -2.692257372409027E-065
   116.600625000000         5.600697558849756E-066
   116.814375000000         5.029712128799908E-065
   117.028125000000         1.029498429194214E-064
   117.241875000000         1.559791638831295E-064
   117.455625000000         1.986353401931626E-064
   117.669375000000         2.179246102218553E-064
   117.883125000000         2.003744031480353E-064
   118.096875000000         1.346128913583503E-064
   118.310625000000         1.455971185722837E-065
   118.524375000000        -1.571833443466307E-064
   118.738125000000        -3.663594330137583E-064
   118.951875000000        -5.852811128184054E-064
   119.165625000000        -7.730975247076492E-064
   119.379375000000        -8.788676776425891E-064
   119.593125000000        -8.479316319650203E-064
   119.806875000000        -6.315908764438425E-064
   120.020625000000        -1.994358675605514E-064
   120.234375000000         4.471454399345004E-064
   120.448125000000         1.262565966863275E-063
   120.661875000000         2.148710781723607E-063
   120.875625000000         2.953986867795846E-063
   121.089375000000         3.482856352227466E-063
   121.303125000000         3.518047261318549E-063
   121.516875000000         2.855923325765607E-063
   121.730625000000         1.353016507932906E-063
   121.944375000000        -1.021311398710859E-063
   122.158125000000        -4.134309830790531E-063
   122.371875000000        -7.652389087863620E-063
   122.585625000000        -1.102941137971569E-062
   122.799375000000        -1.353306716144535E-062
   123.013125000000        -1.431879974565582E-062
   123.226875000000        -1.255485646630278E-062
   123.440625000000        -7.593191225907084E-063
   123.654375000000         8.302349974054496E-064
   123.868125000000         1.239435926952646E-062