  -1.60312500000000         0.000000000000000E+000
  -1.38937500000000         0.000000000000000E+000
  -1.17562500000000         0.000000000000000E+000
 -0.961875000000000         0.000000000000000E+000
 -0.748125000000000         0.000000000000000E+000
 -0.534375000000000         0.000000000000000E+000
 -0.320625000000000         0.000000000000000E+000
 -0.106875000000000         0.000000000000000E+000
  0.106875000000000         0.000000000000000E+000
  0.320625000000000         0.000000000000000E+000
  0.534375000000000         0.000000000000000E+000
  0.748125000000000         0.000000000000000E+000
  0.961875000000000         0.000000000000000E+000
   1.17562500000000         0.000000000000000E+000
   1.38937500000000         0.000000000000000E+000
   1.60312500000000         0.000000000000000E+000
   1.81687500000000         0.000000000000000E+000
   2.03062500000000         0.000000000000000E+000
   2.24437500000000         0.000000000000000E+000
   2.45812500000000         0.000000000000000E+000
   2.67187500000000         0.000000000000000E+000
   2.88562500000000         0.000000000000000E+000
   3.09937500000000         0.000000000000000E+000
   3.31312500000000         0.000000000000000E+000
   3.52687500000000         0.000000000000000E+000
   3.74062500000000         0.000000000000000E+000
   3.95437500000000         0.000000000000000E+000
   4.16812500000000         0.000000000000000E+000
   4.38187500000000         0.000000000000000E+000
   4.59562500000000         0.000000000000000E+000
   4.80937500000000         0.000000000000000E+000
   5.02312500000000         0.000000000000000E+000
   5.23687500000000         0.000000000000000E+000
   5.45062500000000         0.000000000000000E+000
   5.66437500000000         0.000000000000000E+000
   5.87812500000000         0.000000000000000E+000
   6.09187500000000         0.000000000000000E+000
   6.30562500000000         0.000000000000000E+000
   6.51937500000000         0.000000000000000E+000
   6.73312500000000         0.000000000000000E+000
   6.94687500000000         0.000000000000000E+000
   7.16062500000000         0.000000000000000E+000
   7.37437500000000         0.000000000000000E+000
   7.58812500000000         0.000000000000000E+000
   7.80187500000000         0.000000000000000E+000
   8.01562500000000         0.000000000000000E+000
   8.22937500000000         0.000000000000000E+000
   8.44312500000000         0.000000000000000E+000
   8.65687500000000         0.000000000000000E+000
   8.87062500000000         0.000000000000000E+000
   9.08437500000000         0.000000000000000E+000
   9.29812500000000         7.303263090534120E-190
   9.51187500000000        -7.115777372903420E-182
   9.72562500000000         1.681971640488537E-178
   9.93937500000000         2.035442474602522E-176
   10.1531250000000         7.415671009217089E-173
   10.3668750000000         2.558181445730845E-171
   10.5806250000000        -7.136498817714575E-170
   10.7943750000000        -5.849581652937025E-168
   11.0081250000000        -1.652044575584985E-166
   11.2218750000000        -2.928953606599481E-165
   11.4356250000000        -3.991656730329784E-164
   11.6493750000000        -5.062466778539144E-163
   11.8631250000000        -6.939442222587385E-162
   12.0768750000000        -1.000956410337390E-160
   12.2906250000000        -1.351364536805278E-159
   12.5043750000000        -1.596268196760014E-158
   12.7181250000000        -1.616833780477474E-157
   12.9318750000000        -1.404621727949133E-156
   13.1456250000000        -1.060989879087268E-155
   13.3593750000000        -7.174085268957474E-155
   13.5731250000000        -4.545874842917474E-154
   13.7868750000000        -2.845319726199444E-153
   14.0006250000000        -1.820134896208663E-152
   14.2143750000000        -1.186381050450539E-151
   14.4281250000000        -7.669443750385468E-151
   14.6418750000000        -4.791390893322264E-150
   14.8556250000000        -2.851981379276647E-149
   15.0693750000000        -1.610204053928230E-148
   15.2831250000000        -8.627694284030445E-148
   15.4968750000000        -4.396667905658460E-147
   15.7106250000000        -2.135472974480317E-146
   15.9243750000000        -9.901545172903780E-146
   16.1381250000000        -4.387822843263159E-145
   16.3518750000000        -1.860191471992043E-144
   16.5656250000000        -7.552939768042614E-144
   16.7793750000000        -2.941639766333477E-143
   16.9931250000000        -1.101319917752678E-142
   17.2068750000000        -3.975254008751559E-142
   17.4206250000000        -1.388694519808902E-141
   17.6343750000000        -4.717206363463296E-141
   17.8481250000000        -1.566528148932329E-140
   18.0618750000000        -5.114260253587523E-140
   18.2756250000000        -1.649547522070422E-139
   18.4893750000000        -5.274121582547967E-139
   18.7031250000000        -1.673387019231828E-138
   18.9168750000000        -5.260839024942935E-138
   19.1306250000000        -1.632853958842506E-137
   19.3443750000000        -4.978732726685948E-137
   19.5581250000000        -1.483230486352928E-136
   19.7718750000000        -4.294490172411696E-136
   19.9856250000000        -1.202515618999120E-135
   20.1993750000000        -3.241593153944777E-135
   20.4131250000000        -8.374505755885461E-135
   20.6268750000000        -2.063315448054837E-134
   20.8406250000000        -4.819076917230851E-134
   21.0543750000000        -1.058085315479974E-133
   21.2681250000000        -2.155470054079758E-133
   21.4818750000000        -3.979509724507316E-133
   21.6956250000000        -6.329953131424513E-133
   21.9093750000000        -7.445943351060998E-133
   22.1231250000000        -1.211074877873003E-133
   22.3368750000000         2.864117325297050E-132
   22.5506250000000         1.188028669705433E-131
   22.7643750000000         3.412838416949642E-131
   22.9781250000000         8.183098632857578E-131
   23.1918750000000         1.722682503331190E-130
   23.4056250000000         3.236672785034761E-130
   23.6193750000000         5.446411726896838E-130
   23.8331250000000         8.224889825450658E-130
   24.0468750000000         1.142071921937663E-129
   24.2606250000000         1.627201814923591E-129
   24.4743750000000         2.986898680979415E-129
   24.6881250000000         7.470943033422753E-129
   24.9018750000000         2.010550958512100E-128
   25.1156250000000         4.802034640444380E-128
   25.3293750000000         8.982384838875638E-128
   25.5431250000000         9.300167734097209E-128
   25.7568750000000        -1.702168561118094E-127
   25.9706250000000        -1.400764716734852E-126
   26.1843750000000        -5.376280695619498E-126
   26.3981250000000        -1.595254381872034E-125
   26.6118750000000        -4.022824338851509E-125
   26.8256250000000        -8.857182950360133E-125
   27.0393750000000        -1.695943299319482E-124
   27.2531250000000        -2.708766542386796E-124
   27.4668750000000        -3.075270558082481E-124
   27.6806250000000        -9.970036951718474E-126
   27.8943750000000         1.281750043586251E-123
   28.1081250000000         4.923145451078912E-123
   28.3218750000000         1.326508047655294E-122
   28.5356250000000         2.955270261577847E-122
   28.7493750000000         5.642190167078598E-122
   28.9631250000000         9.094954910625900E-122
   29.1768750000000         1.128097964737498E-121
   29.3906250000000         6.100238007264539E-122
   29.6043750000000        -2.041117496870666E-121
   29.8181250000000        -9.486089860240857E-121
   30.0318750000000        -2.594748884323123E-120
   30.2456250000000        -5.655337885437906E-120
   30.4593750000000        -1.040851075629638E-119
   30.6731250000000        -1.602648652938420E-119
   30.8868750000000        -1.875730508491457E-119
   31.1006250000000        -8.785374641492340E-120
   31.3143750000000         3.414082288805441E-119
   31.5281250000000         1.448058166845607E-118
   31.7418750000000         3.717239307465816E-118
   31.9556250000000         7.612726226169964E-118
   32.1693750000000         1.308649918677519E-117
   32.3831250000000         1.849460380617447E-117
   32.5968750000000         1.864685526339130E-117
   32.8106250000000         1.933866353343864E-118
   33.0243750000000        -5.281086556837346E-117
   33.2381250000000        -1.774638790212260E-116
   33.4518750000000        -4.086908856823549E-116
   33.6656250000000        -7.657605945966190E-116
   33.8793750000000        -1.198566984803488E-115
   34.0931250000000        -1.490991114064400E-115
   34.3068750000000        -1.113268362259726E-115
   34.5206250000000         9.528261183980434E-116
   34.7343750000000         6.324401133741029E-115
   34.9481250000000         1.705137175602688E-114
   35.1618750000000         3.478779586406160E-114
   35.3756250000000         5.872765961575632E-114
   35.5893750000000         8.165577815875534E-114
   35.8031250000000         8.375553357998051E-114
   36.0168750000000         2.490006659334976E-114
   36.2306250000000        -1.614026919885820E-113
   36.4443750000000        -5.649221962485105E-113
   36.6581250000000        -1.272793059564520E-112
   36.8718750000000        -2.300414015030984E-112
   37.0856250000000        -3.455676059900958E-112
   37.2993750000000        -4.121676323878973E-112
   37.5131250000000        -2.976670629469810E-112
   37.7268750000000         2.254487059134112E-112
   37.9406250000000         1.479100860750411E-111
   38.1543750000000         3.811479990675248E-111
   38.3681250000000         7.400065875973937E-111
   38.5818750000000         1.185398068180994E-110
   38.7956250000000         1.556618118149981E-110
   39.0093750000000         1.485595902075440E-110
   39.2231250000000         3.143384339916847E-111
   39.4368750000000        -2.925424549654751E-110
   39.6506250000000        -9.362413923120823E-110
   39.8643750000000        -1.980525013065464E-109
   40.0781250000000        -3.374267103319901E-109
   40.2918750000000        -4.768595907115879E-109
   40.5056250000000        -5.292367070981196E-109
   40.7193750000000        -3.322300830433664E-109
   40.9331250000000         3.619198145464267E-109
   41.1468750000000         1.859475214373460E-108
   41.3606250000000         4.424893460837465E-108
   41.5743750000000         8.064264600248258E-108
   41.7881250000000         1.215914982198445E-107
   42.0018750000000         1.495931625447259E-107
   42.2156250000000         1.303573855866639E-107
   42.4293750000000         9.531065099104414E-109
   42.6431250000000        -2.836089818798334E-107
   42.8568750000000        -8.183887265383268E-107
   43.0706250000000        -1.622398973216439E-106
   43.2843750000000        -2.611599742284140E-106
   43.4981250000000        -3.491080424793824E-106
   43.7118750000000        -3.642725296523031E-106
   43.9256250000000        -2.043145192186377E-106
   44.1393750000000         2.707499206863472E-106
   44.3531250000000         1.212504219570210E-105
   44.5668750000000         2.720281198747514E-105
   44.7806250000000         4.726728137280349E-105
   44.9943750000000         6.830441916662397E-105
   45.2081250000000         8.096863582162476E-105
   45.4218750000000         6.888342478080040E-105
   45.6356250000000         8.387807385424758E-106
   45.8493750000000        -1.285243907457124E-104
   46.0631250000000        -3.659122497927058E-104
   46.2768750000000        -7.082283655511330E-104
   46.4906250000000        -1.116491727479787E-103
   46.7043750000000        -1.478304577461669E-103
   46.9181250000000        -1.578475234716081E-103
   47.1318750000000        -1.083514603262615E-103
   47.3456250000000         4.395612287345253E-104
   47.5593750000000         3.444207920216076E-103
   47.7731250000000         8.239047160783515E-103
   47.9868750000000         1.471990972846944E-102
   48.2006250000000         2.200657844112531E-102
   48.4143750000000         2.803128572044937E-102
   48.6281250000000         2.917920747749563E-102
   48.8418750000000         2.013930135412952E-102
   49.0556250000000        -5.827272450030382E-103
   49.2693750000000        -5.596978906910305E-102
   49.4831250000000        -1.362594465996519E-101
   49.6968750000000        -2.485404350435688E-101
   49.9106250000000        -3.864535031865968E-101
   50.1243750000000        -5.299255472764765E-101
   50.3381250000000        -6.378921853778870E-101
   50.5518750000000        -6.387965447305316E-101
   50.7656250000000        -4.186342522991079E-101
   50.9793750000000         1.923397107185793E-101
   51.1931250000000         1.429379581013322E-100
   51.4068750000000         3.586834716264063E-100
   51.6206250000000         6.969688726328784E-100
   51.8343750000000         1.175893333215707E-099
   52.0481250000000         1.772786457049085E-099
   52.2618750000000         2.373896048673794E-099
   52.4756250000000         2.697745062891386E-099
   52.6893750000000         2.197233687931178E-099
   52.9031250000000        -3.396255673277151E-101
   53.1168750000000        -5.290146338992322E-099
   53.3306250000000        -1.510752035738971E-098
   53.5443750000000        -3.077788463016716E-098
   53.7581250000000        -5.231834738969405E-098
   53.9718750000000        -7.671571832640045E-098
   54.1856250000000        -9.541475819415037E-098
   54.3993750000000        -9.138258542376197E-098
   54.6131250000000        -3.673613966801045E-098
   54.8268750000000         1.071091467280688E-097
   55.0406250000000         3.836302689575032E-097
   55.2543750000000         8.255411423877978E-097
   55.4681250000000         1.424884073628220E-096
   55.6818750000000         2.086175503360751E-096
   55.8956250000000         2.565029029005470E-096
   56.1093750000000         2.404724481454091E-096
   56.3231250000000         8.990863120474135E-097
   56.5368750000000        -2.869055868110749E-096
   56.7506250000000        -9.842816084596299E-096
   56.9643750000000        -2.057540622222624E-095
   57.1781250000000        -3.451061100750763E-095
   57.3918750000000        -4.894505797775104E-095
   57.6056250000000        -5.778907980927012E-095
   57.8193750000000        -5.046840525975217E-095
   58.0331250000000        -1.162993407244139E-095
   58.2468750000000         7.730893964717765E-095
   58.4606250000000         2.334060548969129E-094
   58.6743750000000         4.628102064780409E-094
   58.8881250000000         7.458255236863346E-094
   59.1018750000000         1.016963597254876E-093
   59.3156250000000         1.143322787495925E-093
   59.5293750000000         9.089769460492809E-094
   59.7431250000000         1.868475603323184E-095
   59.9568750000000        -1.859937747399503E-093
   60.1706250000000        -4.992909885758089E-093
   60.3843750000000        -9.394346507237264E-093
   60.5981250000000        -1.455147911265176E-092
   60.8118750000000        -1.908310334753968E-092
   61.0256250000000        -2.040626656776156E-092
   61.2393750000000        -1.456000300237241E-092
   61.4531250000000         3.577517695741888E-093
   61.6668750000000         3.936363415865430E-092
   61.8806250000000         9.641525456514480E-092
   62.0943750000000         1.733257029102954E-091
   62.3081250000000         2.590949312286858E-091
   62.5218750000000         3.278397155468634E-091
   62.7356250000000         3.342096356455596E-091
   62.9493750000000         2.120680664964984E-091
   63.1631250000000        -1.197822524150109E-091
   63.3768750000000        -7.401464844230113E-091
   63.5906250000000        -1.691658091649371E-090
   63.8043750000000        -2.928061975561586E-090
   64.0181250000000        -4.244894419240343E-090
   64.2318750000000        -5.204678868615712E-090
   64.4456250000000        -5.080602903809235E-090
   64.6593750000000        -2.858394390733117E-090
   64.8731250000000         2.648595927842969E-090
   65.0868750000000         1.250761615491292E-089
   65.3006250000000         2.714250775384352E-089
   65.5143750000000         4.555860086202349E-089
   65.7281250000000         6.437562542697686E-089
   65.9418750000000         7.685559005905351E-089
   66.1556250000000         7.228772683218237E-089
   66.3693750000000         3.629239020169983E-089
   66.5831250000000        -4.722219898551484E-089
   66.7968750000000        -1.916615751862169E-088
   67.0106250000000        -4.003043593225541E-088
   67.2243750000000        -6.557982503988263E-088
   67.4381250000000        -9.076788538664213E-088
   67.6518750000000        -1.060695392674748E-087
   67.8656250000000        -9.689186370322834E-088
   68.0793750000000        -4.429292051255696E-088
   68.2931250000000         7.208864990581356E-088
   68.5068750000000         2.679910893998627E-087
   68.7206250000000         5.447962637857469E-087
   68.9343750000000         8.763401885739722E-087
   69.1481250000000         1.193932742571090E-086
   69.3618750000000         1.373324398064465E-086
   69.5756250000000         1.229887622691600E-086
   69.7893750000000         5.307674647436494E-087
   70.0031250000000        -9.657061757757018E-087
   70.2168750000000        -3.433796040880537E-086
   70.4306250000000        -6.862453344099357E-086
   70.6443750000000        -1.090113141444285E-085
   70.8581250000000        -1.469168697489465E-085
   71.0718750000000        -1.673212635319724E-085
   71.2856250000000        -1.484505538471441E-085
   71.4993750000000        -6.348342086567689E-086
   71.7131250000000         1.146262914804975E-085
   71.9268750000000         4.042699489509381E-085
   72.1406250000000         8.018978073290035E-085
   72.3543750000000         1.265161733736120E-084
   72.5681250000000         1.695182158982221E-084
   72.7818750000000         1.923088480827828E-084
   72.9956250000000         1.708692225736722E-084
   73.2093750000000         7.614301454125361E-085
   73.4231250000000        -1.205524200396474E-084
   73.6368750000000        -4.379269643893082E-084
   73.8506250000000        -8.707317380601341E-084
   74.0643750000000        -1.372446302182702E-083
   74.2781250000000        -1.837592654212666E-083
   74.4918750000000        -2.089037198845778E-083
   74.7056250000000        -1.878187856477675E-083
   74.9193750000000        -9.079736377822876E-084
   75.1331250000000         1.111146943431705E-083
   75.3468750000000         4.364499342854285E-083
   75.5606250000000         8.795134641551039E-083
   75.7743750000000         1.393609958791384E-082
   75.9881250000000         1.874275020267193E-082
   76.2018750000000         2.147703126841950E-082
   76.4156250000000         1.971826908512897E-082
   76.6293750000000         1.059140833897008E-082
   76.8431250000000        -8.695819981077396E-083
   77.0568750000000        -3.994226987226577E-082
   77.2706250000000        -8.267096094479719E-082
   77.4843750000000        -1.325902230941102E-081
   77.6981250000000        -1.800747111536695E-081
   77.9118750000000        -2.091362118992029E-081
   78.1256250000000        -1.975457064844088E-081
   78.3393750000000        -1.188989874074978E-081
   78.5531250000000         5.259349053044710E-082
   78.7668750000000         3.340626319724594E-081
   78.9806250000000         7.227361117638381E-081
   79.1943750000000         1.182523168981749E-080
   79.4081250000000         1.630815347452641E-080
   79.6218750000000         1.929493557030825E-080
   79.8356250000000         1.885687143193365E-080
   80.0493750000000         1.268854044386841E-080
   80.2631250000000        -1.494157247430146E-081
   80.4768750000000        -2.528589570929803E-080
   80.6906250000000        -5.865876827436123E-080
   80.9043750000000        -9.884797597037409E-080
   81.1181250000000        -1.392485699154374E-079
   81.3318750000000        -1.686422603984015E-079
   81.5456250000000        -1.711951484345221E-079
   81.7593750000000        -1.277465867750412E-079
   81.9731250000000        -1.889591969165413E-080
   82.1868750000000         1.697697913511504E-079
   82.4006250000000         4.403308197266355E-079
   82.6143750000000         7.736976604292364E-079
   82.8281250000000         1.120729165266526E-078
   83.0418750000000         1.395713922801615E-078
   83.2556250000000         1.475547675348758E-078
   83.4693750000000         1.208552888979971E-078
   83.6831250000000         4.368216917692604E-079
   83.8968750000000        -9.651955125332290E-079
   84.1106250000000        -3.035769501102741E-078
   84.3243750000000        -5.658893301593942E-078
   84.5381250000000        -8.495413115121799E-078
   84.7518750000000        -1.092948975807003E-077
   84.9656250000000        -1.205440669917500E-077
   85.1793750000000        -1.072645555203414E-077
   85.3931250000000        -5.715684741339970E-078
   85.6068750000000         4.025216703293560E-078
   85.8206250000000         1.897041561580856E-077
   86.0343750000000         3.853505310681253E-077
   86.2481250000000         6.056144790916610E-077
   86.4618750000000         8.089384639128936E-077
   86.6756250000000         9.320695401204168E-077
   86.8893750000000         8.928923626535371E-077
   87.1031250000000         5.998755983324013E-077
   87.3168750000000        -3.024531637858884E-078
   87.5306250000000        -1.046054184149166E-076
   87.7443750000000        -2.427749784753917E-076
   87.9581250000000        -4.050324726207274E-076
   88.1718750000000        -5.651108524712862E-076
   88.3856250000000        -6.812540134056748E-076
   88.5993750000000        -6.973682335216052E-076
   88.8131250000000        -5.484794652858523E-076
   89.0268750000000        -1.716952324392832E-076
   89.2406250000000         4.768020804034197E-076
   89.4543750000000         1.399403584208715E-075
   89.6681250000000         2.531772817510296E-075
   89.8818750000000         3.719155027585972E-075
   90.0956250000000         4.701127557260715E-075
   90.3093750000000         5.113518177292802E-075
   90.5231250000000         4.517052272724805E-075
   90.7368750000000         2.461243146420700E-075
   90.9506250000000        -1.411710406712245E-075
   91.1643750000000        -7.225334562540926E-075
   91.3781250000000        -1.470248603687718E-074
   91.5918750000000        -2.300050160704989E-074
   91.8056250000000        -3.058894025097998E-074
   92.0193750000000        -3.522401603392398E-074
   92.2331250000000        -3.408110553574954E-074
   92.4468750000000        -2.410321408478702E-074
   92.6606250000000        -2.603786384423781E-075
   92.8743750000000         3.187749724872802E-074
   93.0881250000000         7.852899877272002E-074
   93.3018750000000         1.331755464861496E-073
   93.5156250000000         1.873766296884998E-073
   93.7293750000000         2.280359204944999E-073
   93.9431250000000         2.379002693130519E-073
   94.1568750000000         1.973238392054620E-073
   94.3706250000000         8.757960401500679E-074
   94.5843750000000        -1.042115482632259E-073
   94.7981250000000        -3.788087317363750E-073
   95.0118750000000        -7.179788547109502E-073
   95.2256250000000        -1.078314718674866E-072
   95.4393750000000        -1.387574098474549E-072
   95.6531250000000        -1.545771692553458E-072
   95.8668750000000        -1.433348368161792E-072
   96.0806250000000        -9.283382407904552E-073
   96.2943750000000         6.661728477050352E-074
   96.5081250000000         1.588403536907302E-072
   96.7218750000000         3.572306126883480E-072
   96.9356250000000         5.812356375144136E-072
   97.1493750000000         7.933120987804470E-072
   97.3631250000000         9.385544203059234E-072
   97.5768750000000         9.480550276472898E-072
   97.7906250000000         7.472615161171217E-072
   98.0043750000000         2.700405642706732E-072
   98.2181250000000        -5.217839469135857E-072
   98.4318750000000        -1.615031341456019E-071
   98.6456250000000        -2.921242303252123E-071
   98.8593750000000        -4.257427876313679E-071
   99.0731250000000        -5.338302614124550E-071
   99.2868750000000        -5.787709155011248E-071
   99.5006250000000        -5.176531733360443E-071
   99.7143750000000        -3.092110069676008E-071
   99.9281250000000         7.604305496723015E-072
   100.141875000000         6.431546210752794E-071
   100.355625000000         1.359104366102942E-070
   100.569375000000         2.140808429859772E-070
   100.783125000000         2.848263613439039E-070
   100.996875000000         3.286971846364513E-070
   101.210625000000         3.223765115911394E-070
   101.424375000000         2.419202964945562E-070
   101.638125000000         6.775789767719849E-071
   101.851875000000        -2.087855946319208E-070
   102.065625000000        -5.781433805070939E-070
   102.279375000000        -1.005564041394970E-069
   102.493125000000        -1.426312590398198E-069
   102.706875000000        -1.745133655246785E-069
   102.920625000000        -1.842184136381068E-069
   103.134375000000        -1.587283709609896E-069
   103.348125000000        -8.633873177940310E-070
   103.561875000000         4.014180525303480E-070
   103.775625000000         2.196309798353774E-069
   103.989375000000         4.390078017429156E-069
   104.203125000000         6.701662710212011E-069
   104.416875000000         8.689256616348957E-069
   104.630625000000         9.769222134696746E-069
   104.844375000000         9.274880689316068E-069
   105.058125000000         6.561269206185749E-069
   105.271875000000         1.154787611185043E-069
   105.485625000000        -7.063645133167467E-069
   105.699375000000        -1.766595471396503E-068
   105.913125000000        -2.951212576009483E-068
   106.126875000000        -4.066194830934398E-068
   106.340625000000        -4.841798830109351E-068
   106.554375000000        -4.955136200985600E-068
   106.768125000000        -4.074613564198426E-068
   106.981875000000        -1.926739044946886E-068
   107.195625000000         1.618798955098635E-068
   107.409375000000         6.455688123829127E-068
   107.623125000000         1.215540997462085E-067
   107.836875000000         1.791142923609548E-067
   108.050625000000         2.253859655809881E-067
   108.264375000000         2.455285055521305E-067
   108.478125000000         2.235039211878849E-067
   108.691875000000         1.449281862313594E-067
   108.905625000000         8.495605678943927E-070
   109.119375000000        -2.079358246624356E-067
   109.333125000000        -4.667087229403139E-067
   109.546875000000        -7.437399677754723E-067
   109.760625000000        -9.894276039726062E-067
   109.974375000000        -1.138821029502834E-066
   110.188125000000        -1.118486950926655E-066
   110.401875000000        -8.581691763515116E-067
   110.615625000000        -3.068758931110985E-067
   110.829375000000         5.480685670129732E-067
   111.043125000000         1.661732339692893E-066
   111.256875000000         2.915999754439755E-066
   111.470625000000         4.112587400330942E-066
   111.684375000000         4.979816666912374E-066
   111.898125000000         5.197624804440807E-066
   112.111875000000         4.443375790251200E-066
   112.325625000000         2.457751685659763E-066
   112.539375000000        -8.745190481641514E-067
   112.753125000000        -5.439678154476356E-066
   112.966875000000        -1.082164975253283E-065
   113.180625000000        -1.626067730408454E-065
   113.394375000000        -2.066594191205452E-065
   113.608125000000        -2.270218100488619E-065
   113.821875000000        -2.096323600895962E-065
   114.035625000000        -1.423269707231924E-065
   114.249375000000        -1.813704412509550E-066
   114.463125000000         1.611190751573871E-065
   114.676875000000         3.815754360663235E-065
   114.890625000000         6.152018209141654E-065
   115.104375000000         8.197414093374287E-065
   115.318125000000         9.415601239540767E-065
   115.531875000000         9.220115270525669E-065
   115.745625000000         7.074380621121378E-065
   115.959375000000         2.622239611508739E-065
   116.173125000000        -4.165560448685226E-065
   116.386875000000        -1.285270582996918E-064
   116.600625000000        -2.243828782002189E-064
   116.814375000000        -3.133387877604506E-064
   117.028125000000        -3.745216335244686E-064
   117.241875000000        -3.843379066705991E-064
   117.455625000000        -3.202126994038835E-064
   117.669375000000        -1.656190271612747E-064
   117.883125000000         8.412100152303525E-065
   118.096875000000         4.161481324828864E-064
   118.310625000000         7.957056743842964E-064
   118.524375000000         1.164531641815261E-063
   118.738125000000         1.443427438903732E-063
   118.951875000000         1.540132701080837E-063
   119.165625000000         1.362992102708926E-063
   119.379375000000         8.399018071030597E-064
   119.593125000000        -5.926297070940853E-065
   119.806875000000        -1.299960366955705E-063
   120.020625000000        -2.764574886224727E-063
   120.234375000000        -4.243736557830149E-063
   120.448125000000        -5.442953903495878E-063
   120.661875000000        -6.009201025203082E-063
   120.875625000000        -5.579832234933671E-063
   121.089375000000        -3.852562773057093E-063
   121.303125000000        -6.704645359634535E-064
   121.516875000000         3.889486469147603E-063
   121.730625000000         9.440944125746547E-063
   121.944375000000         1.524622003684710E-062
   122.158125000000         2.022930012710378E-062
   122.371875000000         2.306247393010097E-062
   122.585625000000         2.233744278351306E-062
   122.799375000000         1.681883324402503E-062
   123.013125000000         5.760564412053328E-063
   123.226875000000        -1.075468703479414E-062
   123.440625000000        -3.151256185742499E-062
   123.654375000000        -5.397568801176112E-062
   123.868125000000        -7.428514691031912E-062