  -1.60312500000000         0.000000000000000E+000
  -1.38937500000000        -8.834421745667209E-015
  -1.17562500000000        -5.553341277953378E-014
 -0.961875000000000        -2.330790322122092E-013
 -0.748125000000000        -7.434686869832983E-013
 -0.534375000000000        -1.923520451881386E-012
 -0.320625000000000        -3.480910797770040E-012
 -0.106875000000000        -2.672814722070288E-012
  0.106875000000000         9.080683963607620E-012
  0.320625000000000         5.481241789334945E-011
  0.534375000000000         1.761684944055605E-010
  0.748125000000000         4.337802175936475E-010
  0.961875000000000         9.485399433844734E-010
   1.17562500000000         1.836923282439537E-009
   1.38937500000000         3.161805428847696E-009
   1.60312500000000         5.079656758796781E-009
   1.81687500000000         7.726511533126180E-009
   2.03062500000000         1.120465286601907E-008
   2.24437500000000         1.649127792837464E-008
   2.45812500000000         2.171943315880217E-008
   2.67187500000000         2.828280287408405E-008
   2.88562500000000         3.374396948267404E-008
   3.09937500000000         3.846236521360592E-008
   3.31312500000000         4.278121502929308E-008
   3.52687500000000         4.595561937525207E-008
   3.74062500000000         4.740056780465357E-008
   3.95437500000000         4.674948966703590E-008
   4.16812500000000         4.379678634596788E-008
   4.38187500000000         3.914015657184392E-008
   4.59562500000000         3.302926892219225E-008
   4.80937500000000         2.571207255950490E-008
   5.02312500000000         1.813170230389601E-008
   5.23687500000000         1.143615984547616E-008
   5.45062500000000         6.699278197114660E-009
   5.66437500000000         4.933172156305209E-009
   5.87812500000000         6.987359686022909E-009
   6.09187500000000         1.350219389690450E-008
   6.30562500000000         2.505590179118511E-008
   6.51937500000000         4.218132369934773E-008
   6.73312500000000         6.312772493282722E-008
   6.94687500000000         8.881196134595697E-008
   7.16062500000000         1.158027200333397E-007
   7.37437500000000         1.433818358825703E-007
   7.58812500000000         1.703672277689261E-007
   7.80187500000000         1.953801932106212E-007
   8.01562500000000         2.172053163320546E-007
   8.22937500000000         2.348623494520366E-007
   8.44312500000000         2.476943912596846E-007
   8.65687500000000         2.553698041225688E-007
   8.87062500000000         2.578287470974838E-007
   9.08437500000000         2.552555115251180E-007
   9.29812500000000         2.482978452276775E-007
   9.51187500000000         2.376587677485837E-007
   9.72562500000000         2.245361483039480E-007
   9.93937500000000         2.091010513597228E-007
   10.1531250000000         1.917285116059784E-007
   10.3668750000000         1.728963856856581E-007
   10.5806250000000         1.527980221366811E-007
   10.7943750000000         1.315691081924480E-007
   11.0081250000000         1.091937469086882E-007
   11.2218750000000         8.289558081863514E-008
   11.4356250000000         5.861744927142584E-008
   11.6493750000000         2.958614841652364E-008
   11.8631250000000         6.164416248490416E-009
   12.0768750000000        -2.297865380044222E-008
   12.2906250000000        -4.363703009002208E-008
   12.5043750000000        -6.753933551445217E-008
   12.7181250000000        -8.102592941269575E-008
   12.9318750000000        -9.329579372808282E-008
   13.1456250000000        -9.537959974114544E-008
   13.3593750000000        -9.409491261905921E-008
   13.5731250000000        -8.753601563682414E-008
   13.7868750000000        -7.624272671021495E-008
   14.0006250000000        -6.131413282690934E-008
   14.2143750000000        -4.429035272703099E-008
   14.4281250000000        -2.700474783574519E-008
   14.6418750000000        -1.145933614001313E-008
   14.8556250000000         5.020389704701639E-010
   15.0693750000000         7.582609199779343E-009
   15.2831250000000         9.089309020685928E-009
   15.4968750000000         3.725958155094113E-009
   15.7106250000000        -7.612679394328974E-009
   15.9243750000000        -2.236898164909911E-008
   16.1381250000000        -3.924336988670462E-008
   16.3518750000000        -5.613779424746188E-008
   16.5656250000000        -7.102322371319997E-008
   16.7793750000000        -8.195537727352438E-008
   16.9931250000000        -8.738881132055305E-008
   17.2068750000000        -8.567736995077043E-008
   17.4206250000000        -7.349062583370186E-008
   17.6343750000000        -5.395111331052926E-008
   17.8481250000000        -3.818711657192479E-008
   18.0618750000000        -1.278089786015412E-008
   18.2756250000000         4.028626495728778E-009
   18.4893750000000         2.700702206961811E-008
   18.7031250000000         4.273752517475668E-008
   18.9168750000000         5.949253114001283E-008
   19.1306250000000         7.401669903958766E-008
   19.3443750000000         8.843370328190801E-008
   19.5581250000000         1.037574019681013E-007
   19.7718750000000         1.209137321369656E-007
   19.9856250000000         1.405383455372649E-007
   20.1993750000000         1.630578702969301E-007
   20.4131250000000         1.882112541849718E-007
   20.6268750000000         2.152142308324922E-007
   20.8406250000000         2.421434845796575E-007
   21.0543750000000         2.666798758010175E-007
   21.2681250000000         2.869253909470967E-007
   21.4818750000000         3.009704519113891E-007
   21.6956250000000         3.061263811407281E-007
   21.9093750000000         3.015763527920219E-007
   22.1231250000000         2.870882544568568E-007
   22.3368750000000         2.634793687791800E-007
   22.5506250000000         2.325649563106342E-007
   22.7643750000000         1.967492003961755E-007
   22.9781250000000         1.593576563577568E-007
   23.1918750000000         1.235020621707158E-007
   23.4056250000000         9.167818460672674E-008
   23.6193750000000         6.601938341047188E-008
   23.8331250000000         4.750759473262800E-008
   24.0468750000000         3.649647183515784E-008
   24.2606250000000         3.249198363735464E-008
   24.4743750000000         3.455733324433531E-008
   24.6881250000000         4.112178979571314E-008
   24.9018750000000         5.024550102366162E-008
   25.1156250000000         6.007156913573761E-008
   25.3293750000000         6.887604397886952E-008
   25.5431250000000         7.697848208998755E-008
   25.7568750000000         8.155082962356198E-008
   25.9706250000000         8.205905911928188E-008
   26.1843750000000         7.533749717280457E-008
   26.3981250000000         7.305656690184181E-008
   26.6118750000000         6.159457268471954E-008
   26.8256250000000         5.657522839306367E-008
   27.0393750000000         4.369845561996243E-008
   27.2531250000000         3.597065695945739E-008
   27.4668750000000         2.552899889842295E-008
   27.6806250000000         1.306688243965057E-008
   27.8943750000000        -9.691836293351517E-010
   28.1081250000000        -1.581174403011263E-008
   28.3218750000000        -3.215427942519117E-008
   28.5356250000000        -4.853011727190700E-008
   28.7493750000000        -6.369176591387686E-008
   28.9631250000000        -7.604158807356317E-008
   29.1768750000000        -8.425977881269748E-008
   29.3906250000000        -8.692730814370785E-008
   29.6043750000000        -8.316816433486417E-008
   29.8181250000000        -7.297236127267380E-008
   30.0318750000000        -5.681258324039857E-008
   30.2456250000000        -3.425463375354164E-008
   30.4593750000000        -9.177310120913202E-009
   30.6731250000000         1.751362396890357E-008
   30.8868750000000         4.366322113562609E-008
   31.1006250000000         6.713837691998411E-008
   31.3143750000000         8.625839560460577E-008
   31.5281250000000         9.989978196079221E-008
   31.7418750000000         1.077908253604960E-007
   31.9556250000000         1.104459509785756E-007
   32.1693750000000         1.091845831552618E-007
   32.3831250000000         1.059257729895171E-007
   32.5968750000000         1.028115531182612E-007
   32.8106250000000         1.022516231221025E-007
   33.0243750000000         1.062225569068682E-007
   33.2381250000000         1.158633494402784E-007
   33.4518750000000         1.315290622850614E-007
   33.6656250000000         1.525813132752813E-007
   33.8793750000000         1.774308577841711E-007
   34.0931250000000         2.037351650518576E-007
   34.3068750000000         2.286651433241239E-007
   34.5206250000000         2.491570174576678E-007
   34.7343750000000         2.625303806826247E-007
   34.9481250000000         2.669808584366837E-007
   35.1618750000000         2.610066758058729E-007
   35.3756250000000         2.444039369942282E-007
   35.5893750000000         2.180302835076031E-007
   35.8031250000000         1.838553771493459E-007
   36.0168750000000         1.444978751894057E-007
   36.2306250000000         1.028388270800405E-007
   36.4443750000000         6.166988379361578E-008
   36.6581250000000         2.354734131046113E-008
   36.8718750000000        -1.336317671128468E-008
   37.0856250000000        -3.667339003612429E-008
   37.2993750000000        -5.702032641975387E-008
   37.5131250000000        -6.730514164788199E-008
   37.7268750000000        -8.040158329663393E-008
   37.9406250000000        -7.969024200216069E-008
   38.1543750000000        -7.851768972726237E-008
   38.3681250000000        -7.472723719947150E-008
   38.5818750000000        -6.833389103648638E-008
   38.7956250000000        -5.875753239536658E-008
   39.0093750000000        -4.497045996388609E-008
   39.2231250000000        -2.534971371092619E-008
   39.4368750000000         1.879016431798094E-009
   39.6506250000000         4.091132875089402E-008
   39.8643750000000         8.335788592732070E-008
   40.0781250000000         1.323683532317664E-007
   40.2918750000000         1.855402129722979E-007
   40.5056250000000         2.389485966863618E-007
   40.7193750000000         2.891972057237523E-007
   40.9331250000000         3.294174854004515E-007
   41.1468750000000         3.659862251931035E-007
   41.3606250000000         3.843400584677849E-007
   41.5743750000000         3.887633313504227E-007
   41.7881250000000         3.792505303298152E-007
   42.0018750000000         3.564428492283878E-007
   42.2156250000000         3.224776917795875E-007
   42.4293750000000         2.805703432699648E-007
   42.6431250000000         2.342180270587201E-007
   42.8568750000000         1.855742423089427E-007
   43.0706250000000         1.486727593035616E-007
   43.2843750000000         1.153468306263706E-007
   43.4981250000000         9.700764215978904E-008
   43.7118750000000         8.828042632704089E-008
   43.9256250000000         8.856546025636144E-008
   44.1393750000000         9.610928730411400E-008
   44.3531250000000         1.081323854678619E-007
   44.5668750000000         1.214974199706917E-007
   44.7806250000000         1.331075231962459E-007
   44.9943750000000         1.404402771212241E-007
   45.2081250000000         1.417186462072250E-007
   45.4218750000000         1.362829898089342E-007
   45.6356250000000         1.244458499495008E-007
   45.8493750000000         1.073812521801120E-007
   46.0631250000000         8.691889250373533E-008
   46.2768750000000         6.511147922234560E-008
   46.4906250000000         4.388761037499096E-008
   46.7043750000000         2.484572241689559E-008
   46.9181250000000         8.937360615252774E-009
   47.1318750000000        -3.438498057931360E-009
   47.3456250000000        -1.365932523089288E-008
   47.5593750000000        -2.466187337272439E-008
   47.7731250000000        -3.369032993463536E-008
   47.9868750000000        -4.607362307279786E-008
   48.2006250000000        -5.521048245810392E-008
   48.4143750000000        -7.077077114203513E-008
   48.6281250000000        -8.438757819402304E-008
   48.8418750000000        -9.833311058629630E-008
   49.0556250000000        -1.084599715637975E-007
   49.2693750000000        -1.171279485724973E-007
   49.4831250000000        -1.213345426320885E-007
   49.6968750000000        -1.192759014000375E-007
   49.9106250000000        -1.098707612648851E-007
   50.1243750000000        -9.250308927578744E-008
   50.3381250000000        -6.728769186430724E-008
   50.5518750000000        -3.471761897590716E-008
   50.7656250000000         7.695077036202178E-009
   50.9793750000000         4.846699252582357E-008
   51.1931250000000         9.576821613820780E-008
   51.4068750000000         1.364568632245328E-007
   51.6206250000000         1.803801575373261E-007
   51.8343750000000         2.134824141119355E-007
   52.0481250000000         2.478100344466592E-007
   52.2618750000000         2.694492425084053E-007
   52.4756250000000         2.895512680507638E-007
   52.6893750000000         3.028063470460258E-007
   52.9031250000000         3.100971360143033E-007
   53.1168750000000         3.145810226393631E-007
   53.3306250000000         3.154750545713748E-007
   53.5443750000000         3.136554470202854E-007
   53.7581250000000         3.095248903689040E-007
   53.9718750000000         3.034022112471536E-007
   54.1856250000000         2.956061736505907E-007
   54.3993750000000         2.865628681871100E-007
   54.6131250000000         2.768620584313003E-007
   54.8268750000000         2.672534569836390E-007
   55.0406250000000         2.586454371075950E-007
   55.2543750000000         2.520353353061719E-007
   55.4681250000000         2.483872834050548E-007
   55.6818750000000         2.485250447933646E-007
   55.8956250000000         2.529540548570075E-007
   56.1093750000000         2.617958899437454E-007
   56.3231250000000         2.748571956489788E-007
   56.5368750000000         2.907062646025022E-007
   56.7506250000000         3.068125435428613E-007
   56.9643750000000         3.239244488556535E-007
   57.1781250000000         3.394851281503254E-007
   57.3918750000000         3.514052364795358E-007
   57.6056250000000         3.578053307957517E-007
   57.8193750000000         3.572652711375348E-007
   58.0331250000000         3.487943398957037E-007
   58.2468750000000         3.320236200190592E-007
   58.4606250000000         3.072469361027535E-007
   58.6743750000000         2.753168608474172E-007
   58.8881250000000         2.346287863934502E-007
   59.1018750000000         1.930614838423687E-007
   59.3156250000000         1.438148988086682E-007
   59.5293750000000         9.877936579532168E-008
   59.7431250000000         5.415437850911802E-008
   59.9568750000000         1.313923303599467E-008
   60.1706250000000        -2.231303952020927E-008
   60.3843750000000        -5.238315741768005E-008
   60.5981250000000        -7.627433162603982E-008
   60.8118750000000        -9.391743858632071E-008
   61.0256250000000        -1.022447608377971E-007
   61.2393750000000        -1.124129898822006E-007
   61.4531250000000        -1.094716237203995E-007
   61.6668750000000        -1.053975183995179E-007
   61.8806250000000        -9.875276244983607E-008
   62.0943750000000        -8.826124542068165E-008
   62.3081250000000        -7.404110542641796E-008
   62.5218750000000        -5.539186008699569E-008
   62.7356250000000        -3.346282572039082E-008
   62.9493750000000        -5.253573961318062E-009
   63.1631250000000         1.887153802843154E-008
   63.3768750000000         4.634541112227120E-008
   63.5906250000000         6.821000053186481E-008
   63.8043750000000         8.686539429418805E-008
   64.0181250000000         1.053732792186737E-007
   64.2318750000000         1.130601063207238E-007
   64.4456250000000         1.141970671585409E-007
   64.6593750000000         1.099825076858283E-007
   64.8731250000000         1.010248675124312E-007
   65.0868750000000         8.886745113999232E-008
   65.3006250000000         7.578385569307440E-008
   65.5143750000000         6.427629015394838E-008
   65.7281250000000         5.817587523943736E-008
   65.9418750000000         5.751531164075594E-008
   66.1556250000000         6.635314271071564E-008
   66.3693750000000         8.477772893884913E-008
   66.5831250000000         1.122998926409417E-007
   66.7968750000000         1.476927798753578E-007
   67.0106250000000         1.888307081676937E-007
   67.2243750000000         2.328975801047331E-007
   67.4381250000000         2.769294008342688E-007
   67.6518750000000         3.221456451012741E-007
   67.8656250000000         3.541076046314138E-007
   68.0793750000000         3.863347828125916E-007
   68.2931250000000         4.031893438513190E-007
   68.5068750000000         4.161220593179562E-007
   68.7206250000000         4.179699906767672E-007
   68.9343750000000         4.179671640060498E-007
   69.1481250000000         4.163655797815469E-007
   69.3618750000000         4.154039717126352E-007
   69.5756250000000         4.167875047820617E-007
   69.7893750000000         4.213952325302090E-007
   70.0031250000000         4.291008423786359E-007
   70.2168750000000         4.387758224121645E-007
   70.4306250000000         4.484801395380729E-007
   70.6443750000000         4.562042508132248E-007
   70.8581250000000         4.584669869002395E-007
   71.0718750000000         4.525581742381141E-007
   71.2856250000000         4.362376140732240E-007
   71.4993750000000         4.068330356978852E-007
   71.7131250000000         3.750107458968357E-007
   71.9268750000000         3.311137491233014E-007
   72.1406250000000         2.870914767709288E-007
   72.3543750000000         2.374339980275248E-007
   72.5681250000000         1.945222460984435E-007
   72.7818750000000         1.574671168205116E-007
   72.9956250000000         1.255811986064452E-007
   73.2093750000000         1.045747565337420E-007
   73.4231250000000         9.442430010637958E-008
   73.6368750000000         9.227538326938973E-008
   73.8506250000000         9.616592420616711E-008
   74.0643750000000         1.033391476946575E-007
   74.2781250000000         1.106650187288458E-007
   74.4918750000000         1.153112996830526E-007
   74.7056250000000         1.151217538316866E-007
   74.9193750000000         1.091615589910418E-007
   75.1331250000000         9.626523777050283E-008
   75.3468750000000         7.284385086391873E-008
   75.5606250000000         5.347403149311404E-008
   75.7743750000000         2.783403725285573E-008
   75.9881250000000         9.472754927238471E-009
   76.2018750000000        -2.280878236630187E-009
   76.4156250000000        -3.192782480816678E-009
   76.6293750000000         4.581256524967690E-009
   76.8431250000000         2.245907303455624E-008
   77.0568750000000         4.979351485196621E-008
   77.2706250000000         8.485176907816977E-008
   77.4843750000000         1.252885121642527E-007
   77.6981250000000         1.734614182176677E-007
   77.9118750000000         2.140544020267005E-007
   78.1256250000000         2.579999325999917E-007
   78.3393750000000         2.871923246145386E-007
   78.5531250000000         3.168680165834689E-007
   78.7668750000000         3.294391014313306E-007
   78.9806250000000         3.417994111658440E-007
   79.1943750000000         3.399382623124410E-007
   79.4081250000000         3.348205258765146E-007
   79.6218750000000         3.257861138418725E-007
   79.8356250000000         3.163311163771598E-007
   80.0493750000000         3.063120205850824E-007
   80.2631250000000         2.963276697889845E-007
   80.4768750000000         2.865171066973479E-007
   80.6906250000000         2.764311329256674E-007
   80.9043750000000         2.653196870306366E-007
   81.1181250000000         2.483346183036691E-007
   81.3318750000000         2.344784725260714E-007
   81.5456250000000         2.145372649732811E-007
   81.7593750000000         1.956777571240688E-007
   81.9731250000000         1.740559608313073E-007
   82.1868750000000         1.471147971939054E-007
   82.4006250000000         1.271025648099211E-007
   82.6143750000000         1.067669623357549E-007
   82.8281250000000         9.302823819931855E-008
   83.0418750000000         8.564485398942615E-008
   83.2556250000000         8.683106881200267E-008
   83.4693750000000         9.705078626700301E-008
   83.6831250000000         1.173641695200562E-007
   83.8968750000000         1.484027455689570E-007
   84.1106250000000         1.921363679844681E-007
   84.3243750000000         2.381247092013908E-007
   84.5381250000000         2.944756976689080E-007
   84.7518750000000         3.466817568411659E-007
   84.9656250000000         3.974317247189968E-007
   85.1793750000000         4.416025335034621E-007
   85.3931250000000         4.768808396793469E-007
   85.6068750000000         4.980117761866589E-007
   85.8206250000000         5.112914658947809E-007
   86.0343750000000         5.087063418484960E-007
   86.2481250000000         4.982895428311786E-007
   86.4618750000000         4.799656339443416E-007
   86.6756250000000         4.561550509602921E-007
   86.8893750000000         4.296925901704389E-007
   87.1031250000000         3.972479376922046E-007
   87.3168750000000         3.779185074585724E-007
   87.5306250000000         3.573534782939135E-007
   87.7443750000000         3.540348263109961E-007
   87.9581250000000         3.523877230343187E-007
   88.1718750000000         3.647955605022073E-007
   88.3856250000000         3.820868864485709E-007
   88.5993750000000         4.009497644659942E-007
   88.8131250000000         4.181948084964823E-007
   89.0268750000000         4.304683693361886E-007
   89.2406250000000         4.344255429512805E-007
   89.4543750000000         4.277345912778550E-007
   89.6681250000000         4.094430631494038E-007
   89.8818750000000         3.800160874582515E-007
   90.0956250000000         3.412319234187555E-007
   90.3093750000000         2.955477831261942E-007
   90.5231250000000         2.468629962256895E-007
   90.7368750000000         1.994300983124385E-007
   90.9506250000000         1.573902315023896E-007
   91.1643750000000         1.244765363186671E-007
   91.3781250000000         1.030106145430855E-007
   91.5918750000000         9.397948152958531E-008
   91.8056250000000         9.691574024888839E-008
   92.0193750000000         1.096765322631061E-007
   92.2331250000000         1.291225095484292E-007
   92.4468750000000         1.514134727464990E-007
   92.6606250000000         1.726181971716024E-007
   92.8743750000000         1.893656122314959E-007
   93.0881250000000         1.992867303888578E-007
   93.3018750000000         2.015198821249055E-007
   93.5156250000000         1.970765055653750E-007
   93.7293750000000         1.870242882217330E-007
   93.9431250000000         1.759881565607268E-007
   94.1568750000000         1.658365051766691E-007
   94.3706250000000         1.610181909346954E-007
   94.5843750000000         1.648383026972971E-007
   94.7981250000000         1.789552980597392E-007
   95.0118750000000         2.041365745389023E-007
   95.2256250000000         2.387687813092957E-007
   95.4393750000000         2.800443212996828E-007
   95.6531250000000         3.237397942592813E-007
   95.8668750000000         3.675069256582146E-007
   96.0806250000000         3.971764720515496E-007
   96.2943750000000         4.164612725390146E-007
   96.5081250000000         4.220199952654950E-007
   96.7218750000000         4.134111880903374E-007
   96.9356250000000         3.917694350641467E-007
   97.1493750000000         3.600065639572949E-007
   97.3631250000000         3.230648752347188E-007
   97.5768750000000         2.850100200272200E-007
   97.7906250000000         2.539860695485552E-007
   98.0043750000000         2.353291982947715E-007
   98.2181250000000         2.332256942108960E-007
   98.4318750000000         2.492086821400581E-007
   98.6456250000000         2.829206926160486E-007
   98.8593750000000         3.321094219838714E-007
   99.0731250000000         3.921773239696617E-007
   99.2868750000000         4.577170318183481E-007
   99.5006250000000         5.267452076618507E-007
   99.7143750000000         5.809603169448771E-007
   99.9281250000000         6.282823474588866E-007
   100.141875000000         6.508577438117195E-007
   100.355625000000         6.568531172808341E-007
   100.569375000000         6.423133189723037E-007
   100.783125000000         6.108163938454426E-007
   100.996875000000         5.683799176840478E-007
   101.210625000000         5.199156155248806E-007
   101.424375000000         4.711257455225227E-007
   101.638125000000         4.271791771329608E-007
   101.851875000000         3.920649711464144E-007
   102.065625000000         3.649317315943999E-007
   102.279375000000         3.537879650587897E-007
   102.493125000000         3.493293640976317E-007
   102.706875000000         3.587068513856587E-007
   102.920625000000         3.710668940983235E-007
   103.134375000000         3.826799209088403E-007
   103.348125000000         3.904000789095272E-007
   103.561875000000         3.928635888345687E-007
   103.775625000000         3.875409403912788E-007
   103.989375000000         3.747437082114781E-007
   104.203125000000         3.562736066076621E-007
   104.416875000000         3.356818578016332E-007
   104.630625000000         3.169176107636429E-007
   104.844375000000         3.039101904878492E-007
   105.058125000000         2.998748183807498E-007
   105.271875000000         3.070078248791887E-007
   105.485625000000         3.242834358722974E-007
   105.699375000000         3.507274144408387E-007
   105.913125000000         3.824811270937322E-007
   106.126875000000         4.146134235328727E-007
   106.340625000000         4.419121814577686E-007
   106.554375000000         4.594908799091594E-007
   106.768125000000         4.633333308302683E-007
   106.981875000000         4.517954933143932E-007
   107.195625000000         4.250448000502204E-007
   107.409375000000         3.855452442698713E-007
   107.623125000000         3.379870721492317E-007
   107.836875000000         2.882563966851124E-007
   108.050625000000         2.429208526983395E-007
   108.264375000000         2.079694049443274E-007
   108.478125000000         1.896761784677105E-007
   108.691875000000         1.924715972963858E-007
   108.905625000000         2.122636291707140E-007
   109.119375000000         2.498864642628217E-007
   109.333125000000         3.000453021113727E-007
   109.546875000000         3.565217788033518E-007
   109.760625000000         4.126702510602129E-007
   109.974375000000         4.608339010695836E-007
   110.188125000000         4.954223873583042E-007
   110.401875000000         5.131768793328372E-007
   110.615625000000         5.129762220717260E-007
   110.829375000000         4.962414672036635E-007
   111.043125000000         4.667642206111456E-007
   111.256875000000         4.355828641404624E-007
   111.470625000000         3.949119243889052E-007
   111.684375000000         3.620457345138974E-007
   111.898125000000         3.461780480757830E-007
   112.111875000000         3.361656142414998E-007
   112.325625000000         3.442877187232602E-007
   112.539375000000         3.676636915576153E-007
   112.753125000000         4.011448229999111E-007
   112.966875000000         4.413986028694288E-007
   113.180625000000         4.821302600269541E-007
   113.394375000000         5.176825842760086E-007
   113.608125000000         5.434916266434525E-007
   113.821875000000         5.566923327932824E-007
   114.035625000000         5.560334766818168E-007
   114.249375000000         5.431764430884516E-007
   114.463125000000         5.216354815583269E-007
   114.676875000000         4.962083672965522E-007
   114.890625000000         4.722032433387504E-007
   115.104375000000         4.546010603115122E-007
   115.318125000000         4.472506225956751E-007
   115.531875000000         4.521842962138536E-007
   115.745625000000         4.693655369608035E-007
   115.959375000000         4.966172314187916E-007
   116.173125000000         5.300092597582681E-007
   116.386875000000         5.644027203949849E-007
   116.600625000000         5.943150177756404E-007
   116.814375000000         6.147558516564650E-007
   117.028125000000         6.220620279755318E-007
   117.241875000000         6.151773630839391E-007
   117.455625000000         5.937652009518363E-007
   117.669375000000         5.598112108237321E-007
   117.883125000000         5.177205308333118E-007
   118.096875000000         4.737317911047567E-007
   118.310625000000         4.335290575024065E-007
   118.524375000000         4.026482547141929E-007
   118.738125000000         3.853998518376711E-007
   118.951875000000         3.842654471341250E-007
   119.165625000000         3.991324403197630E-007
   119.379375000000         4.300725454630433E-007
   119.593125000000         4.728858571361728E-007
   119.806875000000         5.227590355409806E-007
   120.020625000000         5.739069223611998E-007
   120.234375000000         6.206712184721714E-007
   120.448125000000         6.585920491571572E-007
   120.661875000000         6.847207496034560E-007
   120.875625000000         6.979488567471759E-007
   121.089375000000         6.980069409955260E-007
   121.303125000000         6.822880342915533E-007
   121.516875000000         6.544291250779281E-007
   121.730625000000         6.172236022938609E-007
   121.944375000000         5.755738379154820E-007
   122.158125000000         5.326228707855751E-007
   122.371875000000         4.914360644777558E-007
   122.585625000000         4.540186979569223E-007
   122.799375000000         4.217754577695091E-007
   123.013125000000         3.953487033864556E-007
   123.226875000000         3.750060595632531E-007
   123.440625000000         3.601320603031248E-007
   123.654375000000         3.497986827523535E-007
   123.868125000000         3.432224349802222E-007