  -1.60312500000000         0.000000000000000E+000
  -1.38937500000000         0.000000000000000E+000
  -1.17562500000000         0.000000000000000E+000
 -0.961875000000000         0.000000000000000E+000
 -0.748125000000000         0.000000000000000E+000
 -0.534375000000000         0.000000000000000E+000
 -0.320625000000000         0.000000000000000E+000
 -0.106875000000000         0.000000000000000E+000
  0.106875000000000         0.000000000000000E+000
  0.320625000000000         0.000000000000000E+000
  0.534375000000000         0.000000000000000E+000
  0.748125000000000         0.000000000000000E+000
  0.961875000000000         0.000000000000000E+000
   1.17562500000000         0.000000000000000E+000
   1.38937500000000         0.000000000000000E+000
   1.60312500000000         0.000000000000000E+000
   1.81687500000000         0.000000000000000E+000
   2.03062500000000         0.000000000000000E+000
   2.24437500000000         0.000000000000000E+000
   2.45812500000000         0.000000000000000E+000
   2.67187500000000         0.000000000000000E+000
   2.88562500000000         0.000000000000000E+000
   3.09937500000000         0.000000000000000E+000
   3.31312500000000         0.000000000000000E+000
   3.52687500000000         0.000000000000000E+000
   3.74062500000000         0.000000000000000E+000
   3.95437500000000         0.000000000000000E+000
   4.16812500000000         0.000000000000000E+000
   4.38187500000000         0.000000000000000E+000
   4.59562500000000         0.000000000000000E+000
   4.80937500000000         0.000000000000000E+000
   5.02312500000000         0.000000000000000E+000
   5.23687500000000         0.000000000000000E+000
   5.45062500000000         0.000000000000000E+000
   5.66437500000000         0.000000000000000E+000
   5.87812500000000         0.000000000000000E+000
   6.09187500000000         0.000000000000000E+000
   6.30562500000000         0.000000000000000E+000
   6.51937500000000         0.000000000000000E+000
   6.73312500000000         0.000000000000000E+000
   6.94687500000000         0.000000000000000E+000
   7.16062500000000         0.000000000000000E+000
   7.37437500000000         0.000000000000000E+000
   7.58812500000000         0.000000000000000E+000
   7.80187500000000         0.000000000000000E+000
   8.01562500000000         0.000000000000000E+000
   8.22937500000000         0.000000000000000E+000
   8.44312500000000         0.000000000000000E+000
   8.65687500000000         0.000000000000000E+000
   8.87062500000000         0.000000000000000E+000
   9.08437500000000         0.000000000000000E+000
   9.29812500000000         2.636231627276974E-203
   9.51187500000000        -1.106834829832260E-190
   9.72562500000000         7.523190354153174E-190
   9.93937500000000        -9.920458062325425E-186
   10.1531250000000        -5.397920285888849E-183
   10.3668750000000        -1.704915139541893E-181
   10.5806250000000         1.574089897319926E-179
   10.7943750000000         9.050288773398589E-178
   11.0081250000000         1.952616144555426E-176
   11.2218750000000         1.676618267101636E-175
   11.4356250000000        -1.477765935913850E-174
   11.6493750000000        -6.379156849743054E-173
   11.8631250000000        -8.991321261456279E-172
   12.0768750000000        -5.720414204446930E-171
   12.2906250000000         3.081146997611815E-170
   12.5043750000000         1.321243357652523E-168
   12.7181250000000         2.000261959501776E-167
   12.9318750000000         2.150291751630929E-166
   13.1456250000000         1.896018808635547E-165
   13.3593750000000         1.501699518102184E-164
   13.5731250000000         1.169934675787635E-163
   13.7868750000000         9.619347973786846E-163
   14.0006250000000         8.371740612956581E-162
   14.2143750000000         7.318792689937035E-161
   14.4281250000000         6.100254350015485E-160
   14.6418750000000         4.712356356484747E-159
   14.8556250000000         3.340052142509618E-158
   15.0693750000000         2.169750916327832E-157
   15.2831250000000         1.294666051827670E-156
   15.4968750000000         7.115844370370525E-156
   15.7106250000000         3.610792332412797E-155
   15.9243750000000         1.693366999034066E-154
   16.1381250000000         7.334582096368307E-154
   16.3518750000000         2.924560270125834E-153
   16.5656250000000         1.065555658635836E-152
   16.7793750000000         3.493640293202487E-152
   16.9931250000000         9.971069016737367E-152
   17.2068750000000         2.268456673642713E-151
   17.4206250000000         2.734022846562297E-151
   17.6343750000000        -9.105092702014010E-151
   17.8481250000000        -8.855639184717275E-150
   18.0618750000000        -4.489472706867833E-149
   18.2756250000000        -1.794848965555014E-148
   18.4893750000000        -6.147687661301714E-148
   18.7031250000000        -1.846887088517865E-147
   18.9168750000000        -4.855043442583770E-147
   19.1306250000000        -1.085715280522343E-146
   19.3443750000000        -1.894907427035548E-146
   19.5581250000000        -1.761476001517575E-146
   19.7718750000000         3.403537171903023E-146
   19.9856250000000         2.161422626508985E-145
   20.1993750000000         4.967891049774397E-145
   20.4131250000000        -2.577915767877130E-145
   20.6268750000000        -8.484212203416655E-144
   20.8406250000000        -5.039369151271184E-143
   21.0543750000000        -2.148759758582112E-142
   21.2681250000000        -7.645773987964194E-142
   21.4818750000000        -2.383634538047274E-141
   21.6956250000000        -6.625169368429244E-141
   21.9093750000000        -1.641408781883093E-140
   22.1231250000000        -3.554214844548305E-140
   22.3368750000000        -6.318622661039585E-140
   22.5506250000000        -7.189365169422735E-140
   22.7643750000000         5.934984996535077E-140
   22.9781250000000         7.163164460276312E-139
   23.1918750000000         2.926034338319097E-138
   23.4056250000000         9.052910902549743E-138
   23.6193750000000         2.377092184924408E-137
   23.8331250000000         5.455509034594482E-137
   24.0468750000000         1.088209474479086E-136
   24.2606250000000         1.798011369567567E-136
   24.4743750000000         2.032650165504202E-136
   24.6881250000000        -4.856081464508737E-137
   24.9018750000000        -1.184979774290631E-135
   25.1156250000000        -4.564051253341965E-135
   25.3293750000000        -1.273123722681625E-134
   25.5431250000000        -2.946259823825306E-134
   25.7568750000000        -5.796962815779105E-134
   25.9706250000000        -9.381623898500779E-134
   26.1843750000000        -1.057310111327544E-133
   26.3981250000000         6.608755668335155E-135
   26.6118750000000         4.899663214954759E-133
   26.8256250000000         1.849937180908445E-132
   27.0393750000000         4.948339360899007E-132
   27.2531250000000         1.090428389733751E-131
   27.4668750000000         2.034164902296886E-131
   27.6806250000000         3.105093776434664E-131
   27.8943750000000         3.251042066530105E-131
   28.1081250000000        -4.678440996441901E-132
   28.3218750000000        -1.454019616405275E-130
   28.5356250000000        -5.087506504545268E-130
   28.7493750000000        -1.271495715833103E-129
   28.9631250000000        -2.610575933644978E-129
   29.1768750000000        -4.489756176568015E-129
   29.3906250000000        -6.129680891988636E-129
   29.6043750000000        -4.950763841556695E-129
   29.8181250000000         5.157754379476276E-129
   30.0318750000000         3.599985503373511E-128
   30.2456250000000         1.063378943257670E-127
   30.4593750000000         2.386453108746262E-127
   30.6731250000000         4.438204280648230E-127
   30.8868750000000         6.811101162946065E-127
   31.1006250000000         7.763562525976714E-127
   31.3143750000000         2.854187749615220E-127
   31.5281250000000        -1.684626724093082E-126
   31.7418750000000        -6.612604664804593E-126
   31.9556250000000        -1.642755154467950E-125
   32.1693750000000        -3.262403026352739E-125
   32.3831250000000        -5.383475199841269E-125
   32.5968750000000        -7.082551191952217E-125
   32.8106250000000        -5.810033990282108E-125
   33.0243750000000         3.725067427352706E-125
   33.2381250000000         3.049838772849219E-124
   33.4518750000000         8.673250873785886E-124
   33.6656250000000         1.836611640907035E-123
   33.8793750000000         3.196125042490909E-123
   34.0931250000000         4.555869422459500E-123
   34.3068750000000         4.749049045406283E-123
   34.5206250000000         1.304673239063143E-123
   34.7343750000000        -9.998108803383526E-123
   34.9481250000000        -3.497537513667674E-122
   35.1618750000000        -7.930961906184476E-122
   35.3756250000000        -1.437942979441535E-121
   35.5893750000000        -2.149452865009730E-121
   35.8031250000000        -2.502306803305729E-121
   36.0168750000000        -1.600847038957816E-121
   36.2306250000000         2.050085053848759E-121
   36.4443750000000         1.044270337687585E-120
   36.6581250000000         2.543364903254853E-120
   36.8718750000000         4.720732207509229E-120
   37.0856250000000         7.155821793131173E-120
   37.2993750000000         8.618551345630528E-120
   37.5131250000000         6.725560471631485E-120
   37.7268750000000        -2.078299803050063E-120
   37.9406250000000        -2.171425913644573E-119
   38.1543750000000        -5.424393059130190E-119
   38.3681250000000        -9.590226212535492E-119
   38.5818750000000        -1.321126134738908E-118
   38.7956250000000        -1.344178507293958E-118
   39.0093750000000        -6.564432567776444E-119
   39.2231250000000         9.694543236224411E-119
   39.4368750000000         3.105595177782135E-118
   39.6506250000000         3.874302970313237E-118
   39.8643750000000        -8.448310842352777E-119
   40.0781250000000        -1.734066889463465E-117
   40.2918750000000        -5.137872852280771E-117
   40.5056250000000        -1.001985471631540E-116
   40.7193750000000        -1.362678727794659E-116
   40.9331250000000        -8.189102916272931E-117
   41.1468750000000         2.194537022792729E-116
   41.3606250000000         1.014710431848847E-115
   41.5743750000000         2.591540056368231E-115
   41.7881250000000         5.092729670666860E-115
   42.0018750000000         8.096951427755397E-115
   42.2156250000000         9.883868242726844E-115
   42.4293750000000         6.412335971377874E-115
   42.6431250000000        -9.675929924413432E-115
   42.8568750000000        -4.918179223761353E-114
   43.0706250000000        -1.239602183764836E-113
   43.2843750000000        -2.394716621265627E-113
   43.4981250000000        -3.792169691443862E-113
   43.7118750000000        -4.789049649770433E-113
   43.9256250000000        -3.921677782354006E-113
   44.1393750000000         1.412558563040879E-113
   44.3531250000000         1.497975328645470E-112
   44.5668750000000         4.094667467609822E-112
   44.7806250000000         8.160109629147028E-112
   44.9943750000000         1.327232394957111E-111
   45.2081250000000         1.760797577751843E-111
   45.4218750000000         1.696318480112254E-111
   45.6356250000000         3.846733730351854E-112
   45.8493750000000        -3.264757959730569E-111
   46.0631250000000        -1.049352068473178E-110
   46.2768750000000        -2.212032917251691E-110
   46.4906250000000        -3.738522969475315E-110
   46.7043750000000        -5.209155290189869E-110
   46.9181250000000        -5.619139583031592E-110
   47.1318750000000        -3.151140688404230E-110
   47.3456250000000         4.878926113033698E-110
   47.5593750000000         2.162671867740604E-109
   47.7731250000000         4.948720237866272E-109
   47.9868750000000         8.760545641972585E-109
   48.2006250000000         1.278837455291057E-108
   48.4143750000000         1.497879651953040E-108
   48.6281250000000         1.153607562393787E-108
   48.8418750000000        -3.240565255340060E-109
   49.0556250000000        -3.624660204547884E-108
   49.2693750000000        -9.324858480517876E-108
   49.4831250000000        -1.741619433110999E-107
   49.6968750000000        -2.654849844066905E-107
   49.9106250000000        -3.304656631090510E-107
   50.1243750000000        -2.995679899004031E-107
   50.3381250000000        -6.686768100301613E-108
   50.5518750000000         4.982206898361142E-107
   50.7656250000000         1.511202493193125E-106
   50.9793750000000         2.991683692950050E-106
   51.1931250000000         4.734680454832275E-106
   51.4068750000000         6.144867395532921E-106
   51.6206250000000         6.077670564022193E-106
   51.8343750000000         2.780456664677105E-106
   52.0481250000000        -5.914488098097371E-106
   52.2618750000000        -2.194659850612972E-105
   52.4756250000000        -4.573839034363303E-105
   52.6893750000000        -7.417916915982031E-105
   52.9031250000000        -9.808891364926261E-105
   53.1168750000000        -9.989290070102404E-105
   53.3306250000000        -5.298783664029396E-105
   53.5443750000000         7.487521423835822E-105
   53.7581250000000         3.112677154606434E-104
   53.9718750000000         6.591557605051450E-104
   54.1856250000000         1.066689517436059E-103
   54.3993750000000         1.390719685401243E-103
   54.6131250000000         1.366114782332269E-103
   54.8268750000000         6.040644952742247E-104
   55.0406250000000        -1.345624576266772E-103
   55.2543750000000        -4.826162184729328E-103
   55.4681250000000        -9.764278856650291E-103
   55.6818750000000        -1.521849948911475E-102
   55.8956250000000        -1.885864282996265E-102
   56.1093750000000        -1.657345241532592E-102
   56.3231250000000        -2.567914897792604E-103
   56.5368750000000         2.952055132460412E-102
   56.7506250000000         8.387159027718475E-102
   56.9643750000000         1.576169627696556E-101
   57.1781250000000         2.339263949546383E-101
   57.3918750000000         2.742604253452226E-101
   57.6056250000000         2.128740904600021E-101
   57.8193750000000        -4.088724070113134E-102
   58.0331250000000        -5.844837454293296E-101
   58.2468750000000        -1.478998194698974E-100
   58.4606250000000        -2.673608457687446E-100
   58.6743750000000        -3.898444590248299E-100
   58.8881250000000        -4.543394326072708E-100
   59.1018750000000        -3.567793629200401E-100
   59.3156250000000         4.777239043042766E-101
   59.5293750000000         9.198368269608669E-100
   59.7431250000000         2.373061416113640E-099
   59.9568750000000         4.362726236605810E-099
   60.1706250000000         6.523784257622649E-099
   60.3843750000000         7.979795352710413E-099
   60.5981250000000         7.182048019404849E-099
   60.8118750000000         1.889928243657143E-099
   61.0256250000000        -1.054003748537167E-098
   61.2393750000000        -3.234941616859835E-098
   61.4531250000000        -6.386399338927635E-098
   61.6668750000000        -1.011954281558317E-097
   61.8806250000000        -1.333631059904289E-097
   62.0943750000000        -1.395278259348667E-097
   62.3081250000000        -8.772149615994076E-098
   62.5218750000000         6.274009656790522E-098
   62.7356250000000         3.523048448080139E-097
   62.9493750000000         8.027363397394110E-097
   63.1631250000000         1.387320660365018E-096
   63.3768750000000         1.990946613355196E-096
   63.5906250000000         2.366980161518842E-096
   63.8043750000000         2.106398764923667E-096
   64.0181250000000         6.452331272555427E-097
   64.2318750000000        -2.653504977020151E-096
   64.4456250000000        -8.302323337352577E-096
   64.6593750000000        -1.634270003211212E-095
   64.8731250000000        -2.584532440138622E-095
   65.0868750000000        -3.431310850950671E-095
   65.3006250000000        -3.713905228736174E-095
   65.5143750000000        -2.739832951557624E-095
   65.7281250000000         3.609814019426431E-096
   65.9418750000000         6.455681053085438E-095
   66.1556250000000         1.605195588642648E-094
   66.3693750000000         2.873930625034579E-094
   66.5831250000000         4.245822371614974E-094
   66.7968750000000         5.272509878325962E-094
   67.0106250000000         5.207944570669369E-094
   67.2243750000000         3.018317268002645E-094
   67.4381250000000        -2.485267045706148E-094
   67.6518750000000        -1.232832153399614E-093
   67.8656250000000        -2.681969745018091E-093
   68.0793750000000        -4.476037675533227E-093
   68.2931250000000        -6.250016533652057E-093
   68.5068750000000        -7.306470366419460E-093
   68.7206250000000        -6.574992356816174E-093
   68.9343750000000        -2.676142132271653E-093
   69.1481250000000         5.840110923542458E-093
   69.3618750000000         2.001463320846904E-092
   69.5756250000000         3.972231862098301E-092
   69.7893750000000         6.267411836860062E-092
   70.0031250000000         8.333462810614245E-092
   70.2168750000000         9.207979625870436E-092
   70.4306250000000         7.511282676140082E-092
   70.6443750000000         1.582660409520371E-092
   70.8581250000000        -1.016338508169576E-091
   71.0718750000000        -2.860077918802237E-091
   71.2856250000000        -5.296509594652349E-091
   71.4993750000000        -7.972144692138438E-091
   71.7131250000000        -1.014569381485402E-090
   71.9268750000000        -1.062111733884161E-090
   72.1406250000000        -7.784745194421410E-091
   72.3543750000000         1.800175106821490E-092
   72.5681250000000         1.482858412490063E-090
   72.7818750000000         3.669807168636799E-090
   72.9956250000000         6.427987241126955E-090
   73.2093750000000         9.285661807490865E-090
   73.4231250000000         1.134938053776575E-089
   73.6368750000000         1.126565480808351E-089
   73.8506250000000         7.308442590711358E-090
   74.0643750000000        -2.336734498709739E-090
   74.2781250000000        -1.903184139118399E-089
   74.4918750000000        -4.286770941185966E-089
   74.7056250000000        -7.162408648038080E-089
   74.9193750000000        -9.968300721763888E-089
   75.1331250000000        -1.172215979429676E-088
   75.3468750000000        -1.101698540012833E-088
   75.5606250000000        -6.153922748877005E-089
   75.7743750000000         4.526076562864392E-089
   75.9881250000000         2.206847207049505E-088
   76.2018750000000         4.609254259733836E-088
   76.4156250000000         7.382406428249140E-088
   76.6293750000000         9.917132940991487E-088
   76.8431250000000         1.121773125014344E-087
   77.0568750000000         9.930774857754940E-088
   77.2706250000000         4.510700644000925E-088
   77.4843750000000        -6.429297260228175E-088
   77.6981250000000        -2.355630161763759E-087
   77.9118750000000        -4.607106621825188E-087
   78.1256250000000        -7.087758355824525E-087
   78.3393750000000        -9.187188303081528E-087
   78.5531250000000        -9.966311446459288E-087
   78.7668750000000        -8.212991697031482E-087
   78.9806250000000        -2.624184960320475E-087
   79.1943750000000         7.851462286413318E-087
   79.4081250000000         2.350286198059941E-086
   79.6218750000000         4.321734521941962E-086
   79.8356250000000         6.382166880548989E-086
   80.0493750000000         7.959521772501964E-086
   80.2631250000000         8.222986731596727E-086
   80.4768750000000         6.156561342924061E-086
   80.6906250000000         7.421276560764583E-087
   80.9043750000000        -8.727683189022339E-086
   81.1181250000000        -2.221266923390044E-085
   81.3318750000000        -3.841270668809909E-085
   81.5456250000000        -5.428553529393503E-085
   81.7593750000000        -6.476462686666489E-085
   81.9731250000000        -6.290333075485701E-085
   82.1868750000000        -4.069670770534972E-085
   82.4006250000000         9.202572561018301E-086
   82.6143750000000         9.078385698767570E-085
   82.8281250000000         2.011437502118507E-084
   83.0418750000000         3.266265489648620E-084
   83.2556250000000         4.395987131455335E-084
   83.4693750000000         4.972785083249131E-084
   83.6831250000000         4.443842565799373E-084
   83.8968750000000         2.214003605445165E-084
   84.1106250000000        -2.202297757447440E-084
   84.3243750000000        -8.958973296862887E-084
   84.5381250000000        -1.760599158634222E-083
   84.7518750000000        -2.681554570371158E-083
   84.9656250000000        -3.418876116854345E-083
   85.1793750000000        -3.625602611452555E-083
   85.3931250000000        -2.880159893453737E-083
   85.6068750000000        -7.632966195801880E-084
   85.8206250000000         3.013802022347639E-083
   86.0343750000000         8.434467929079881E-083
   86.2481250000000         1.497580610956898E-082
   86.4618750000000         2.142542956840053E-082
   86.6756250000000         2.578244123924233E-082
   86.8893750000000         2.532869238929118E-082
   87.1031250000000         1.696264298958083E-082
   87.3168750000000        -2.128971444832918E-083
   87.5306250000000        -3.343734383961507E-082
   87.7443750000000        -7.580307656845710E-082
   87.9581250000000        -1.239925192878241E-081
   88.1718750000000        -1.675385117291714E-081
   88.3856250000000        -1.903637256698796E-081
   88.5993750000000        -1.718144530473717E-081
   88.8131250000000        -8.972915016905066E-082
   89.0268750000000         7.402321503787942E-082
   89.2406250000000         3.255399543575787E-081
   89.4543750000000         6.491458809268572E-081
   89.6681250000000         9.976293553781166E-081
   89.8818750000000         1.285281468452278E-080
   90.0956250000000         1.387585112867715E-080
   90.3093750000000         1.151961435766533E-080
   90.5231250000000         4.236301084711020E-081
   90.7368750000000        -9.111029262546089E-081
   90.9506250000000        -2.865335496975533E-080
   91.1643750000000        -5.282456449116287E-080
   91.3781250000000        -7.771012539625611E-080
   91.5918750000000        -9.664645671468891E-080
   91.8056250000000        -1.003445914052742E-079
   92.0193750000000        -7.783651753504766E-080
   92.2331250000000        -1.849888122496941E-080
   92.4468750000000         8.473383475896293E-080
   92.6606250000000         2.311173908988978E-079
   92.8743750000000         4.073420133775520E-079
   93.0881250000000         5.832810006515049E-079
   93.3018750000000         7.097380759971457E-079
   93.5156250000000         7.200602013348183E-079
   93.7293750000000         5.375691736602220E-079
   93.9431250000000         9.036865714742306E-080
   94.1568750000000        -6.659809304564410E-079
   94.3706250000000        -1.719271896200729E-078
   94.5843750000000        -2.968888510071690E-078
   94.7981250000000        -4.198509346090367E-078
   95.0118750000000        -5.063350565525011E-078
   95.2256250000000        -5.104183847008584E-078
   95.4393750000000        -3.800524654614009E-078
   95.6531250000000        -6.723331452119631E-079
   95.8668750000000         4.567778306586020E-078
   96.0806250000000         1.182204844377820E-077
   96.2943750000000         2.040168407352260E-077
   96.5081250000000         2.885385711353735E-077
   96.7218750000000         3.488635516195300E-077
   96.9356250000000         3.546696734508354E-077
   97.1493750000000         2.717401721470270E-077
   97.3631250000000         6.853540286281176E-078
   97.5768750000000        -2.740869377029654E-077
   97.7906250000000        -7.506858442822674E-077
   98.0043750000000        -1.318292839582430E-076
   98.2181250000000        -1.885586027769505E-076
   98.4318750000000        -2.308153738667730E-076
   98.6456250000000        -2.394519773017358E-076
   98.8593750000000        -1.927510696360569E-076
   99.0731250000000        -7.042449453771855E-077
   99.2868750000000         1.404827236464244E-076
   99.5006250000000         4.381942431120175E-076
   99.7143750000000         7.983226028913076E-076
   99.9281250000000         1.167200014212362E-075
   100.141875000000         1.458743458948068E-075
   100.355625000000         1.557578121506120E-075
   100.569375000000         1.331088551116815E-075
   100.783125000000         6.523261082941175E-076
   100.996875000000        -5.659115500216135E-076
   101.210625000000        -2.328068534334418E-075
   101.424375000000        -4.509501447338942E-075
   101.638125000000        -6.816257131674357E-075
   101.851875000000        -8.763930511060569E-075
   102.065625000000        -9.690870110233082E-075
   102.279375000000        -8.820831326659127E-075
   102.493125000000        -5.386306451054680E-075
   102.706875000000         1.184808827917589E-075
   102.920625000000         1.103020390447944E-074
   103.134375000000         2.359089213812812E-074
   103.348125000000         3.737534666003473E-074
   103.561875000000         4.981907690604597E-074
   103.775625000000         5.732178574582441E-074
   103.989375000000         5.554478616391898E-074
   104.203125000000         4.003288985179537E-074
   104.416875000000         7.182278200842746E-075
   104.630625000000        -4.449326079485901E-074
   104.844375000000        -1.129380453118179E-073
   105.058125000000        -1.912190451213581E-073
   105.271875000000        -2.666289240496794E-073
   105.485625000000        -3.206508374007669E-073
   105.699375000000        -3.302215794446494E-073
   105.913125000000        -2.706503966322285E-073
   106.126875000000        -1.203519879095726E-073
   106.340625000000         1.327788184733336E-073
   106.554375000000         4.839754284385541E-073
   106.768125000000         9.043453843389171E-073
   106.981875000000         1.335434019777551E-072
   107.195625000000         1.687688518682338E-072
   107.409375000000         1.845036519701329E-072
   107.623125000000         1.677497482983378E-072
   107.836875000000         1.062887100032116E-072
   108.050625000000        -8.281782240443530E-074
   108.264375000000        -1.768981212702001E-072
   108.478125000000        -3.892719754564108E-072
   108.691875000000        -6.207851776201136E-072
   108.905625000000        -8.310129744038013E-072
   109.119375000000        -9.649490277792499E-072
   109.333125000000        -9.579183723227610E-072
   109.546875000000        -7.448263238591553E-072
   109.760625000000        -2.737618375398370E-072
   109.974375000000         4.769428137224794E-072
   110.188125000000         1.480230740908028E-071
   110.401875000000         2.643665327040386E-071
   110.615625000000         3.798916440166299E-071
   110.829375000000         4.702336358333565E-071
   111.043125000000         5.051450984096412E-071
   111.256875000000         4.521010547331600E-071
   111.470625000000         2.819792470174045E-071
   111.684375000000        -2.344107683741556E-072
   111.898125000000        -4.629037983190310E-071
   112.111875000000        -1.007307121910218E-070
   112.325625000000        -1.593334667167404E-070
   112.539375000000        -2.121241979041288E-070
   112.753125000000        -2.459032643760068E-070
   112.966875000000        -2.454919314804858E-070
   113.180625000000        -1.959103592044389E-070
   113.394375000000        -8.544818947515402E-071
   113.608125000000         9.060552815267286E-071
   113.821875000000         3.260340421508201E-070
   114.035625000000         6.002573675296177E-070
   114.249375000000         8.762690170653380E-070
   114.463125000000         1.100917449104228E-069
   114.676875000000         1.208446032827116E-069
   114.890625000000         1.127946205266727E-069
   115.104375000000         7.948895874742698E-070
   115.318125000000         1.661894776335715E-070
   115.531875000000        -7.626519212926468E-070
   115.745625000000        -1.940727121707283E-069
   115.959375000000        -3.248553541328072E-069
   116.173125000000        -4.492494626099659E-069
   116.386875000000        -5.410853867317350E-069
   116.600625000000        -5.695157634576620E-069
   116.814375000000        -5.028710108786464E-069
   117.028125000000        -3.142138518884232E-069
   117.241875000000         1.175725712047058E-070
   117.455625000000         4.711873390093455E-069
   117.669375000000         1.034053188057008E-068
   117.883125000000         1.639130430162852E-068
   118.096875000000         2.192620961991885E-068
   118.310625000000         2.572117245497206E-068
   118.524375000000         2.637278403162943E-068
   118.738125000000         2.247937735587359E-068
   118.951875000000         1.289333909914224E-068
   119.165625000000        -2.972038159253528E-069
   119.379375000000        -2.481375652393178E-068
   119.593125000000        -5.113730523729233E-068
   119.806875000000        -7.904501204961775E-068
   120.020625000000        -1.041866715405182E-067
   120.234375000000        -1.209447759335621E-067
   120.448125000000        -1.229147954241000E-067
   120.661875000000        -1.037143376017059E-067
   120.875625000000        -5.811236438730673E-068
   121.089375000000         1.658826213901263E-068
   121.303125000000         1.190512686543635E-067
   121.516875000000         2.425014135174782E-067
   121.730625000000         3.736929479005846E-067
   121.944375000000         4.925822349215229E-067
   122.158125000000         5.730494876705186E-067
   122.371875000000         5.849769948553159E-067
   122.585625000000         4.978854693915922E-067
   122.799375000000         2.861452461268013E-067
   123.013125000000        -6.448739088033037E-068
   123.226875000000        -5.495957879118345E-067
   123.440625000000        -1.139057812693758E-066
   123.654375000000        -1.771572880312913E-066
   123.868125000000        -2.352405421210249E-066