  -1.60312500000000         0.000000000000000E+000
  -1.38937500000000         0.000000000000000E+000
  -1.17562500000000         0.000000000000000E+000
 -0.961875000000000         0.000000000000000E+000
 -0.748125000000000         0.000000000000000E+000
 -0.534375000000000         0.000000000000000E+000
 -0.320625000000000         0.000000000000000E+000
 -0.106875000000000         0.000000000000000E+000
  0.106875000000000         0.000000000000000E+000
  0.320625000000000         0.000000000000000E+000
  0.534375000000000         0.000000000000000E+000
  0.748125000000000         0.000000000000000E+000
  0.961875000000000         0.000000000000000E+000
   1.17562500000000         0.000000000000000E+000
   1.38937500000000         0.000000000000000E+000
   1.60312500000000         0.000000000000000E+000
   1.81687500000000         0.000000000000000E+000
   2.03062500000000         0.000000000000000E+000
   2.24437500000000         0.000000000000000E+000
   2.45812500000000         0.000000000000000E+000
   2.67187500000000         0.000000000000000E+000
   2.88562500000000         0.000000000000000E+000
   3.09937500000000         0.000000000000000E+000
   3.31312500000000         0.000000000000000E+000
   3.52687500000000         0.000000000000000E+000
   3.74062500000000         0.000000000000000E+000
   3.95437500000000         0.000000000000000E+000
   4.16812500000000         0.000000000000000E+000
   4.38187500000000         0.000000000000000E+000
   4.59562500000000         0.000000000000000E+000
   4.80937500000000         0.000000000000000E+000
   5.02312500000000         0.000000000000000E+000
   5.23687500000000         0.000000000000000E+000
   5.45062500000000         0.000000000000000E+000
   5.66437500000000         0.000000000000000E+000
   5.87812500000000         0.000000000000000E+000
   6.09187500000000         0.000000000000000E+000
   6.30562500000000         0.000000000000000E+000
   6.51937500000000         0.000000000000000E+000
   6.73312500000000         0.000000000000000E+000
   6.94687500000000         0.000000000000000E+000
   7.16062500000000         0.000000000000000E+000
   7.37437500000000         0.000000000000000E+000
   7.58812500000000         0.000000000000000E+000
   7.80187500000000         0.000000000000000E+000
   8.01562500000000         0.000000000000000E+000
   8.22937500000000         0.000000000000000E+000
   8.44312500000000         0.000000000000000E+000
   8.65687500000000         0.000000000000000E+000
   8.87062500000000         0.000000000000000E+000
   9.08437500000000         0.000000000000000E+000
   9.29812500000000         1.320487771312579E-202
   9.51187500000000         9.326934439714417E-189
   9.72562500000000         6.195351497891607E-186
   9.93937500000000         3.741443347932846E-184
   10.1531250000000         9.599629713491108E-182
   10.3668750000000         5.594210190548937E-180
   10.5806250000000         1.059796490118006E-178
   10.7943750000000        -1.704300806961245E-178
   11.0081250000000        -4.123727931344466E-176
   11.2218750000000        -7.800304400243529E-175
   11.4356250000000        -6.615359615567300E-174
   11.6493750000000        -1.617606011965129E-173
   11.8631250000000        -1.427079719743370E-172
   12.0768750000000        -1.420828511693545E-170
   12.2906250000000        -3.831808936463578E-169
   12.5043750000000        -6.237011324062506E-168
   12.7181250000000        -7.434599922688369E-167
   12.9318750000000        -7.022721776099948E-166
   13.1456250000000        -5.500159650830381E-165
   13.3593750000000        -3.729353277354986E-164
   13.5731250000000        -2.349392167307552E-163
   13.7868750000000        -1.546658951583928E-162
   14.0006250000000        -1.176146192441134E-161
   14.2143750000000        -1.000645651421118E-160
   14.4281250000000        -8.540505564532194E-160
   14.6418750000000        -6.792953148514592E-159
   14.8556250000000        -4.898112597190676E-158
   15.0693750000000        -3.183205383139768E-157
   15.2831250000000        -1.865848139195562E-156
   15.4968750000000        -9.871241606726893E-156
   15.7106250000000        -4.701375833911464E-155
   15.9243750000000        -1.996958999706662E-154
   16.1381250000000        -7.387811412110404E-154
   16.3518750000000        -2.235832644545710E-153
   16.5656250000000        -4.364601021815333E-153
   16.7793750000000         5.117996255728310E-153
   16.9931250000000         1.131230480999576E-151
   17.2068750000000         7.701115923459394E-151
   17.4206250000000         3.937076682293600E-150
   17.6343750000000         1.708595630687486E-149
   17.8481250000000         6.537899632053115E-149
   18.0618750000000         2.227940102295913E-148
   18.2756250000000         6.701342905652941E-148
   18.4893750000000         1.713503851102316E-147
   18.7031250000000         3.282880383388327E-147
   18.9168750000000         1.733253551792091E-147
   19.1306250000000        -2.410947386435951E-146
   19.3443750000000        -1.636687498504627E-145
   19.5581250000000        -7.370215103942864E-145
   19.7718750000000        -2.762201188316574E-144
   19.9856250000000        -9.168063591558669E-144
   20.1993750000000        -2.760677866140057E-143
   20.4131250000000        -7.610594549785056E-143
   20.6268750000000        -1.920863870991276E-142
   20.8406250000000        -4.398894943497336E-142
   21.0543750000000        -8.925844543534176E-142
   21.2681250000000        -1.510537172320140E-141
   21.4818750000000        -1.718839740895740E-141
   21.6956250000000         7.338016630064219E-142
   21.9093750000000         1.233049833470507E-140
   22.1231250000000         4.846871360893825E-140
   22.3368750000000         1.396837257235772E-139
   22.5506250000000         3.337053415430098E-139
   22.7643750000000         6.742749654376360E-139
   22.9781250000000         1.111679925917823E-138
   23.1918750000000         1.267586191089154E-138
   23.4056250000000        -1.302259527085021E-140
   23.6193750000000        -5.169354181346432E-138
   23.8331250000000        -1.747928710847458E-137
   24.0468750000000        -3.627771577910145E-137
   24.2606250000000        -3.921359962131078E-137
   24.4743750000000         6.631655464452270E-137
   24.6881250000000         5.515392511470900E-136
   24.9018750000000         2.062881482153804E-135
   25.1156250000000         5.880026692726851E-135
   25.3293750000000         1.399602964918362E-134
   25.5431250000000         2.820872453426449E-134
   25.7568750000000         4.617511116144578E-134
   25.9706250000000         5.019288147045714E-134
   26.1843750000000        -1.841061106172495E-134
   26.3981250000000        -3.078541421021876E-133
   26.6118750000000        -1.129282377365212E-132
   26.8256250000000        -3.025953498922690E-132
   27.0393750000000        -6.723919464661564E-132
   27.2531250000000        -1.266417085211628E-131
   27.4668750000000        -1.948544815299213E-131
   27.6806250000000        -2.037063590333030E-131
   27.8943750000000         4.172164432543309E-132
   28.1081250000000         9.798330060256336E-131
   28.3218750000000         3.430762778295716E-130
   28.5356250000000         8.641662134375558E-130
   28.7493750000000         1.792504995179046E-129
   28.9631250000000         3.122206342825319E-129
   29.1768750000000         4.342922885730073E-129
   29.3906250000000         3.691459712049838E-129
   29.6043750000000        -3.099779265364573E-129
   29.8181250000000        -2.441420509079991E-128
   30.0318750000000        -7.380790174468345E-128
   30.2456250000000        -1.679311080188374E-127
   30.4593750000000        -3.158201835136392E-127
   30.6731250000000        -4.900621665973164E-127
   30.8868750000000        -5.669310562397380E-127
   31.1006250000000        -2.247995997034287E-127
   31.3143750000000         1.191338381549467E-126
   31.5281250000000         4.778177946592490E-126
   31.7418750000000         1.198178177081190E-125
   31.9556250000000         2.393995280019534E-125
   32.1693750000000         3.963998710844995E-125
   32.3831250000000         5.206548993297311E-125
   32.5968750000000         4.165048007786012E-125
   32.8106250000000        -3.253124189606743E-125
   33.0243750000000        -2.403483923975012E-124
   33.2381250000000        -6.772348775493382E-124
   33.4518750000000        -1.429927670868735E-123
   33.6656250000000        -2.478496309289883E-123
   33.8793750000000        -3.492457452348956E-123
   34.0931250000000        -3.488341853332871E-123
   34.3068750000000        -3.736120435210952E-124
   34.5206250000000         9.449364096967299E-123
   34.7343750000000         3.095812950414413E-122
   34.9481250000000         6.895821707761165E-122
   35.1618750000000         1.236785562996655E-121
   35.3756250000000         1.817873422951922E-121
   35.5893750000000         2.016764526850541E-121
   35.8031250000000         9.444115754585031E-122
   36.0168750000000        -2.919166263696614E-121
   36.2306250000000        -1.166539647424268E-120
   36.4443750000000        -2.733760624873370E-120
   36.6581250000000        -5.024575779947096E-120
   36.8718750000000        -7.565933296925217E-120
   37.0856250000000        -8.861606142952817E-120
   37.2993750000000        -5.757772212515759E-120
   37.5131250000000         7.023256623815079E-120
   37.7268750000000         3.655248951038167E-119
   37.9406250000000         8.949728059837799E-119
   38.1543750000000         1.666261672752883E-118
   38.3681250000000         2.526952156995383E-118
   38.5818750000000         3.016486267366888E-118
   38.7956250000000         2.203329549181139E-118
   39.0093750000000        -1.400500359511875E-118
   39.2231250000000        -9.668698039871959E-118
   39.4368750000000        -2.416446333294411E-117
   39.6506250000000        -4.461450976641485E-117
   39.8643750000000        -6.637748495850236E-117
   40.0781250000000        -7.717414580930344E-117
   40.2918750000000        -5.425163858388639E-117
   40.5056250000000         3.544926189811118E-117
   40.7193750000000         2.279507801450427E-116
   40.9331250000000         5.425837321062289E-116
   41.1468750000000         9.461922024424184E-116
   41.3606250000000         1.303273845507668E-115
   41.5743750000000         1.326999117499558E-115
   41.7881250000000         5.665489376230509E-116
   42.0018750000000        -1.509655746240738E-115
   42.2156250000000        -5.259983865552830E-115
   42.4293750000000        -1.038772765143189E-114
   42.6431250000000        -1.525950318046439E-114
   42.8568750000000        -1.623965783594558E-114
   43.0706250000000        -7.554720029958533E-115
   43.2843750000000         1.745163945125529E-114
   43.4981250000000         6.260902322785984E-114
   43.7118750000000         1.219951085229850E-113
   43.9256250000000         1.703602811875077E-113
   44.1393750000000         1.543199444671885E-113
   44.3531250000000        -7.803419559540782E-115
   44.5668750000000        -4.045457126020554E-113
   44.7806250000000        -1.072657715442893E-112
   44.9943750000000        -1.890964166813091E-112
   45.2081250000000        -2.437671499214659E-112
   45.4218750000000        -1.866817705916998E-112
   45.6356250000000         1.071109996814185E-112
   45.8493750000000         7.661558587391552E-112
   46.0631250000000         1.826916315910583E-111
   46.2768750000000         3.063784869767924E-111
   46.4906250000000         3.763639003714871E-111
   46.7043750000000         2.536277425174687E-111
   46.9181250000000        -2.633927406681097E-111
   47.1318750000000        -1.375718771513789E-110
   47.3456250000000        -3.121085398977903E-110
   47.5593750000000        -5.081360059137593E-110
   47.7731250000000        -5.982429537338372E-110
   47.9868750000000        -3.326227967225609E-110
   48.2006250000000         6.610026340080322E-110
   48.4143750000000         2.782216630993417E-109
   48.6281250000000         6.188242466965993E-109
   48.8418750000000         1.027546575923767E-108
   49.0556250000000         1.290386426678859E-108
   49.2693750000000         9.528955734488534E-109
   49.4831250000000        -7.274198341005654E-109
   49.6968750000000        -4.694397760814143E-108
   49.9106250000000        -1.172581551213666E-107
   50.1243750000000        -2.161053105810161E-107
   50.3381250000000        -3.174250821118124E-107
   50.5518750000000        -3.520539272123047E-107
   50.7656250000000        -1.886887026832588E-107
   50.9793750000000         3.722259631624963E-107
   51.1931250000000         1.568555608951202E-106
   51.4068750000000         3.576924731840115E-106
   51.6206250000000         6.305832637178984E-106
   51.8343750000000         9.057096075751009E-106
   52.0481250000000         1.007837811161904E-105
   52.2618750000000         6.128339409076580E-106
   52.4756250000000        -7.662028675556295E-106
   52.6893750000000        -3.713315010250889E-105
   52.9031250000000        -8.693315270101926E-105
   53.1168750000000        -1.560478052181757E-104
   53.3306250000000        -2.304854592841321E-104
   53.5443750000000        -2.734945540647983E-104
   53.7581250000000        -2.156059981996982E-104
   53.9718750000000         5.006566273091743E-105
   54.1856250000000         6.576172557599123E-104
   54.3993750000000         1.729267330170447E-103
   54.6131250000000         3.291151346454781E-103
   54.8268750000000         5.131477831375442E-103
   55.0406250000000         6.603709888073414E-103
   55.2543750000000         6.410403262205566E-103
   55.4681250000000         2.458780079831699E-103
   55.6818750000000        -8.044249904699940E-103
   55.8956250000000        -2.800599835763881E-102
   56.1093750000000        -5.906260537288767E-102
   56.3231250000000        -9.911916828682511E-102
   56.5368750000000        -1.387545556919452E-101
   56.7506250000000        -1.569350042663668E-101
   56.9643750000000        -1.173691532458478E-101
   57.1781250000000         3.187941862624655E-102
   57.3918750000000         3.513994666003458E-101
   57.6056250000000         8.906889474814646E-101
   57.8193750000000         1.650218422806755E-100
   58.0331250000000         2.522360728317515E-100
   58.2468750000000         3.215088027743206E-100
   58.4606250000000         3.175205789765816E-100
   58.6743750000000         1.547511133966009E-100
   58.8881250000000        -2.769042017979065E-100
   59.1018750000000        -1.088326975103519E-099
   59.3156250000000        -2.339612772309019E-099
   59.5293750000000        -3.953383413589923E-099
   59.7431250000000        -5.593686096129779E-099
   59.9568750000000        -6.527922149858220E-099
   60.1706250000000        -5.516444459324367E-099
   60.3843750000000        -8.111258341612020E-100
   60.5981250000000         9.616050175202049E-099
   60.8118750000000         2.746512786071148E-098
   61.0256250000000         5.298025420905017E-098
   61.2393750000000         8.324140580053410E-098
   61.4531250000000         1.100088428802674E-097
   61.6668750000000         1.175933559206602E-097
   61.8806250000000         8.171657836795552E-098
   62.0943750000000        -2.908877309288360E-098
   62.3081250000000        -2.474656501571433E-097
   62.5218750000000        -5.943635075031140E-097
   62.7356250000000        -1.057690427211064E-096
   62.9493750000000        -1.562816005958394E-096
   63.1631250000000        -1.939061775441325E-096
   63.3768750000000        -1.892240451192148E-096
   63.5906250000000        -1.000978136887114E-096
   63.8043750000000         1.237495451920579E-096
   64.0181250000000         5.281216342708662E-096
   64.2318750000000         1.130860655442536E-095
   64.4456250000000         1.886305985113920E-095
   64.6593750000000         2.640301024700880E-095
   64.8731250000000         3.084762936186934E-095
   65.0868750000000         2.729813421753709E-095
   65.3006250000000         9.218598795060673E-096
   65.5143750000000        -3.055023094559446E-095
   65.7281250000000        -9.754483745521110E-095
   65.9418750000000        -1.919099845520754E-094
   66.1556250000000        -3.031430121521626E-094
   66.3693750000000        -4.040070375120375E-094
   66.5831250000000        -4.452104389019834E-094
   66.7968750000000        -3.536438444450186E-094
   67.0106250000000        -3.817945090761742E-095
   67.2243750000000         5.921809433773521E-094
   67.4381250000000         1.593367809831554E-093
   67.6518750000000         2.932433669727014E-093
   67.8656250000000         4.418076214815929E-093
   68.0793750000000         5.627529863588816E-093
   68.2931250000000         5.854050111869936E-093
   68.5068750000000         4.113153752613091E-093
   68.7206250000000        -7.422128989176743E-094
   68.9343750000000        -9.743494867837829E-093
   69.1481250000000        -2.332395451122713E-092
   69.3618750000000        -4.062933882424533E-092
   69.5756250000000        -5.869311777446266E-092
   69.7893750000000        -7.165875730881221E-092
   70.0031250000000        -7.037150928552051E-092
   70.2168750000000        -4.280481369039858E-092
   70.4306250000000         2.411771842178383E-092
   70.6443750000000         1.407683907024793E-091
   70.8581250000000         3.088302045487394E-091
   71.0718750000000         5.133223267138360E-091
   71.2856250000000         7.137834299602331E-091
   71.4993750000000         8.370083523809115E-091
   71.7131250000000         7.751659902448386E-091
   71.9268750000000         3.943905500861371E-091
   72.1406250000000        -4.405438100486926E-091
   72.3543750000000        -1.820865312005706E-090
   72.5681250000000        -3.726578847051546E-090
   72.7818750000000        -5.942746453539483E-090
   72.9956250000000        -7.974594087538378E-090
   73.2093750000000        -8.989366407960017E-090
   73.4231250000000        -7.825895638732282E-090
   73.6368750000000        -3.122246684589015E-090
   73.8506250000000         6.388480001935555E-090
   74.0643750000000         2.138147589868565E-089
   74.2781250000000         4.125177741442116E-089
   74.4918750000000         6.331414180689000E-089
   74.7056250000000         8.207013736803291E-089
   74.9193750000000         8.883616514996708E-089
   75.1331250000000         7.213099070721712E-089
   75.3468750000000         1.927399538177206E-089
   75.5606250000000        -8.041090652143636E-089
   75.7743750000000        -2.306189177826768E-088
   75.9881250000000        -4.216021865869823E-088
   76.2018750000000        -6.232057897608255E-088
   76.4156250000000        -7.792799162364430E-088
   76.6293750000000        -8.062907127381143E-088
   76.8431250000000        -5.996769879266795E-088
   77.0568750000000        -5.160925571395516E-089
   77.2706250000000         9.171826085191836E-088
   77.4843750000000         2.311415571498636E-087
   77.6981250000000         4.005458479038408E-087
   77.9118750000000         5.688388710025858E-087
   78.1256250000000         6.827961084629048E-087
   78.3393750000000         6.678507122411503E-087
   78.5531250000000         4.361742034565951E-087
   78.7668750000000        -9.529845434610915E-088
   78.9806250000000        -9.755073236397635E-087
   79.1943750000000        -2.179776155974007E-086
   79.4081250000000        -3.565453402594357E-086
   79.6218750000000        -4.833199884342830E-086
   79.8356250000000        -5.510062366668457E-086
   80.0493750000000        -4.974948858414694E-086
   80.2631250000000        -2.548226439407921E-086
   80.4768750000000         2.337814374835029E-086
   80.6906250000000         9.884620573432807E-086
   80.9043750000000         1.961042244511911E-085
   81.1181250000000         3.002640075662303E-085
   81.3318750000000         3.840262568209253E-085
   81.5456250000000         4.075934377221582E-085
   81.7593750000000         3.224248466226606E-085
   81.9731250000000         8.031753935534970E-086
   82.1868750000000        -3.513473074120517E-085
   82.4006250000000        -9.687065941526337E-085
   82.6143750000000        -1.707508184150067E-084
   82.8281250000000        -2.421606018247706E-084
   83.0418750000000        -2.872253186639776E-084
   83.2556250000000        -2.738999919465959E-084
   83.4693750000000        -1.663691206110435E-084
   83.6831250000000         6.633795291931229E-085
   83.8968750000000         4.373057761168310E-084
   84.1106250000000         9.252955060694965E-084
   84.3243750000000         1.457713890739448E-083
   84.5381250000000         1.897908305283516E-083
   84.7518750000000         2.043747660055536E-083
   84.9656250000000         1.645723729498672E-083
   85.1793750000000         4.523962303730855E-084
   85.3931250000000        -1.712119528062685E-083
   85.6068750000000        -4.840650710885175E-083
   85.8206250000000        -8.618192184387836E-083
   86.0343750000000        -1.230671594516863E-082
   86.2481250000000        -1.468191331147932E-082
   86.4618750000000        -1.407726137528181E-082
   86.6756250000000        -8.595732235491238E-083
   86.8893750000000         3.460749051111623E-083
   87.1031250000000         2.292649922588492E-082
   87.3168750000000         4.891433038328531E-082
   87.5306250000000         7.789513556484063E-082
   87.7443750000000         1.029529904698262E-081
   87.9581250000000         1.135627994418231E-081
   88.1718750000000         9.631511037150751E-082
   88.3856250000000         3.701477853903909E-082
   88.5993750000000        -7.554452609552155E-082
   88.8131250000000        -2.441268163784963E-081
   89.0268750000000        -4.564181865228833E-081
   89.2406250000000        -6.783925272084819E-081
   89.4543750000000        -8.496553823145284E-081
   89.6681250000000        -8.834796474945004E-081
   89.8818750000000        -6.746731496453644E-081
   90.0956250000000        -1.182047726710713E-081
   90.3093750000000         8.596943815986404E-081
   90.5231250000000         2.258744517628741E-080
   90.7368750000000         3.954854675621781E-080
   90.9506250000000         5.653211317396843E-080
   91.1643750000000         6.859661982502547E-080
   91.3781250000000         6.890663549005994E-080
   91.5918750000000         4.944208957553828E-080
   91.8056250000000         2.512794018849163E-081
   92.0193750000000        -7.682895523518458E-080
   92.2331250000000        -1.875795238537785E-079
   92.4468750000000        -3.191707658095183E-079
   92.6606250000000        -4.482088159238322E-079
   92.8743750000000        -5.367044422425827E-079
   93.0881250000000        -5.332417621482516E-079
   93.3018750000000        -3.786302756170137E-079
   93.5156250000000        -1.731692311242574E-080
   93.7293750000000         5.849529531832432E-079
   93.9431250000000         1.418148608687466E-078
   94.1568750000000         2.402596496668358E-078
   94.3706250000000         3.366687631190317E-078
   94.5843750000000         4.035609435128680E-078
   94.7981250000000         4.040974567884809E-078
   95.0118750000000         2.961633143441118E-078
   95.2256250000000         4.038542857478372E-079
   95.4393750000000        -3.876499366305605E-078
   95.6531250000000        -9.816790351342146E-078
   95.8668750000000        -1.687591569824954E-077
   96.0806250000000        -2.388474914591647E-077
   96.2943750000000        -2.897142704417282E-077
   96.5081250000000        -2.962590470294060E-077
   96.7218750000000        -2.296994807504043E-077
   96.9356250000000        -6.284206941506311E-078
   97.1493750000000         2.219242777818633E-077
   97.3631250000000         6.223757991705801E-077
   97.5768750000000         1.105259782621306E-076
   97.7906250000000         1.596482749409689E-076
   98.0043750000000         1.975994225951075E-076
   98.2181250000000         2.081388285806172E-076
   98.4318750000000         1.724333605358451E-076
   98.6456250000000         7.230383387425117E-077
   98.8593750000000        -1.048270415906705E-076
   99.0731250000000        -3.595599435921776E-076
   99.2868750000000        -6.735046823101675E-076
   99.5006250000000        -1.003015220986559E-075
   99.7143750000000        -1.275652309312426E-075
   99.9281250000000        -1.391776122598380E-075
   100.141875000000        -1.233733979392820E-075
   100.355625000000        -6.845967948204441E-076
   100.569375000000         3.428735301904074E-076
   100.783125000000         1.868474080797976E-075
   100.996875000000         3.802407469692690E-075
   101.210625000000         5.906549920746491E-075
   101.424375000000         7.770363740621525E-075
   101.638125000000         8.815178099713232E-075
   101.851875000000         8.341087123982479E-075
   102.065625000000         5.628094541416598E-075
   102.279375000000         9.634603032683859E-077
   102.493125000000        -8.481223214140731E-075
   102.706875000000        -1.973645460587949E-074
   102.920625000000        -3.247528792927205E-074
   103.134375000000        -4.451929918222720E-074
   103.348125000000        -5.269437696467852E-074
   103.561875000000        -5.304578131712435E-074
   103.775625000000        -4.134682546047011E-074
   103.989375000000        -1.393460821233862E-074
   104.203125000000         3.115254827710439E-074
   104.416875000000         9.284395584188386E-074
   104.630625000000         1.657190948213084E-073
   104.844375000000         2.390127422865692E-073
   105.058125000000         2.963330224637724E-073
   105.271875000000         3.165153798158327E-073
   105.485625000000         2.759879218513980E-073
   105.699375000000         1.528672565776158E-073
   105.913125000000        -6.727881371282958E-074
   106.126875000000        -3.844721396716611E-073
   106.340625000000        -7.771381191620730E-073
   106.554375000000        -1.196185973368898E-072
   106.768125000000        -1.562291808467650E-072
   106.981875000000        -1.768545611763384E-072
   107.195625000000        -1.690475762186048E-072
   107.409375000000        -1.204800957556749E-072
   107.623125000000        -2.169827794837236E-073
   107.836875000000         1.304244324193793E-072
   108.050625000000         3.289578496436740E-072
   108.264375000000         5.535893635481415E-072
   108.478125000000         7.686139293309452E-072
   108.691875000000         9.232930569935541E-072
   108.905625000000         9.556151330233882E-072
   109.119375000000         8.002361689006268E-072
   109.333125000000         4.008432560059846E-072
   109.546875000000        -2.736508684575601E-072
   109.760625000000        -1.210760531616937E-071
   109.974375000000        -2.336827307861404E-071
   110.188125000000        -3.504225612502698E-071
   110.401875000000        -4.488251670322484E-071
   110.615625000000        -4.998733271543573E-071
   110.829375000000        -4.710571242910286E-071
   111.043125000000        -3.315350657793917E-071
   111.256875000000        -5.927274588322062E-072
   111.470625000000         3.504374275490979E-071
   111.684375000000         8.762197070454149E-071
   111.898125000000         1.463316254598591E-070
   112.111875000000         2.019881463497781E-070
   112.325625000000         2.419198581680814E-070
   112.539375000000         2.509950291471308E-070
   112.753125000000         2.135959996238786E-070
   112.966875000000         1.165514794660140E-070
   113.180625000000        -4.715002947433371E-071
   113.394375000000        -2.742747012498431E-070
   113.608125000000        -5.475423785386098E-070
   113.821875000000        -8.329871186524137E-070
   114.035625000000        -1.079494512447342E-069
   114.249375000000        -1.221525914795663E-069
   114.463125000000        -1.185833806378511E-069
   114.676875000000        -9.025243717659534E-070
   114.890625000000        -3.201223265279185E-070
   115.104375000000         5.766267994378046E-070
   115.318125000000         1.748530335466882E-069
   115.531875000000         3.086638625998460E-069
   115.745625000000         4.403992490222141E-069
   115.959375000000         5.438899765935943E-069
   116.173125000000         5.873826163977078E-069
   116.386875000000         5.372672264445042E-069
   116.600625000000         3.636851698141584E-069
   116.814375000000         4.772184352927570E-070
   117.028125000000        -4.105253312455811E-069
   117.241875000000        -9.841589367399366E-069
   117.455625000000        -1.613535710902724E-068
   117.669375000000        -2.204003458791221E-068
   117.883125000000        -2.629211440672234E-068
   118.096875000000        -2.741609782039691E-068
   118.310625000000        -2.391077988501183E-068
   118.524375000000        -1.451514938484404E-068
   118.738125000000         1.462846171195263E-069
   118.951875000000         2.378933702163819E-068
   119.165625000000         5.097271122334586E-068
   119.379375000000         8.002671402927356E-068
   119.593125000000         1.064086924876892E-067
   119.806875000000         1.242135591793204E-067
   120.020625000000         1.266903563018320E-067
   120.234375000000         1.071175413534263E-067
   120.448125000000         6.002402421553548E-068
   120.661875000000        -1.732306322529627E-068
   120.875625000000        -1.233211045840457E-067
   121.089375000000        -2.505641732891162E-067
   121.303125000000        -3.848160500762438E-067
   121.516875000000        -5.047826554382733E-067
   121.730625000000        -5.830461530589290E-067
   121.944375000000        -5.884651586563057E-067
   122.158125000000        -4.902113666768716E-067
   122.371875000000        -2.633947281199306E-067
   122.585625000000         1.040694370541971E-067
   122.799375000000         6.040585276850370E-067
   123.013125000000         1.201398057793290E-066
   123.226875000000         1.829018689647152E-066
   123.440625000000         2.386803057306555E-066
   123.654375000000         2.745857239625387E-066
   123.868125000000         2.759699541408119E-066