  -1.60312500000000         0.000000000000000E+000
  -1.38937500000000         0.000000000000000E+000
  -1.17562500000000         0.000000000000000E+000
 -0.961875000000000         0.000000000000000E+000
 -0.748125000000000         0.000000000000000E+000
 -0.534375000000000         0.000000000000000E+000
 -0.320625000000000         0.000000000000000E+000
 -0.106875000000000         0.000000000000000E+000
  0.106875000000000         0.000000000000000E+000
  0.320625000000000         0.000000000000000E+000
  0.534375000000000         0.000000000000000E+000
  0.748125000000000         0.000000000000000E+000
  0.961875000000000         0.000000000000000E+000
   1.17562500000000         0.000000000000000E+000
   1.38937500000000         0.000000000000000E+000
   1.60312500000000         0.000000000000000E+000
   1.81687500000000         0.000000000000000E+000
   2.03062500000000         0.000000000000000E+000
   2.24437500000000         0.000000000000000E+000
   2.45812500000000         0.000000000000000E+000
   2.67187500000000         0.000000000000000E+000
   2.88562500000000         0.000000000000000E+000
   3.09937500000000         0.000000000000000E+000
   3.31312500000000         0.000000000000000E+000
   3.52687500000000         0.000000000000000E+000
   3.74062500000000         0.000000000000000E+000
   3.95437500000000         0.000000000000000E+000
   4.16812500000000         0.000000000000000E+000
   4.38187500000000         0.000000000000000E+000
   4.59562500000000         0.000000000000000E+000
   4.80937500000000         0.000000000000000E+000
   5.02312500000000         0.000000000000000E+000
   5.23687500000000         0.000000000000000E+000
   5.45062500000000         0.000000000000000E+000
   5.66437500000000         0.000000000000000E+000
   5.87812500000000         0.000000000000000E+000
   6.09187500000000         0.000000000000000E+000
   6.30562500000000         0.000000000000000E+000
   6.51937500000000         0.000000000000000E+000
   6.73312500000000         0.000000000000000E+000
   6.94687500000000         0.000000000000000E+000
   7.16062500000000         0.000000000000000E+000
   7.37437500000000         0.000000000000000E+000
   7.58812500000000         0.000000000000000E+000
   7.80187500000000         0.000000000000000E+000
   8.01562500000000         0.000000000000000E+000
   8.22937500000000         0.000000000000000E+000
   8.44312500000000         0.000000000000000E+000
   8.65687500000000         0.000000000000000E+000
   8.87062500000000         0.000000000000000E+000
   9.08437500000000         0.000000000000000E+000
   9.29812500000000         0.000000000000000E+000
   9.51187500000000         6.033184831398613E-204
   9.72562500000000         4.261388905495265E-190
   9.93937500000000         2.839120795777371E-187
   10.1531250000000         1.766170191665622E-185
   10.3668750000000         4.421020311319257E-183
   10.5806250000000         2.644185979548491E-181
   10.7943750000000         5.366526983026598E-180
   11.0081250000000         2.681844759293072E-180
   11.2218750000000        -1.884095469346370E-177
   11.4356250000000        -3.940973230962718E-176
   11.6493750000000        -3.791849480855383E-175
   11.8631250000000        -1.458029185671955E-174
   12.0768750000000        -9.057066874042099E-174
   12.2906250000000        -6.658193312878955E-172
   12.5043750000000        -1.882975739431603E-170
   12.7181250000000        -3.219568956556437E-169
   12.9318750000000        -4.021883039219012E-168
   13.1456250000000        -3.980796659761653E-167
   13.3593750000000        -3.268911882027815E-166
   13.5731250000000        -2.317880959544463E-165
   13.7868750000000        -1.504302328779867E-164
   14.0006250000000        -9.843356312115539E-164
   14.2143750000000        -7.191942719103119E-163
   14.4281250000000        -5.911811151512733E-162
   14.6418750000000        -5.012519728306607E-161
   14.8556250000000        -4.047022443766743E-160
   15.0693750000000        -2.997181017321103E-159
   15.2831250000000        -2.013342676032646E-158
   15.4968750000000        -1.225185247505464E-157
   15.7106250000000        -6.759113974631119E-157
   15.9243750000000        -3.377318813291382E-156
   16.1381250000000        -1.520264468387316E-155
   16.3518750000000        -6.078218828906749E-155
   16.5656250000000        -2.085148293304510E-154
   16.7793750000000        -5.556619992451191E-154
   16.9931250000000        -6.689727183570503E-154
   17.2068750000000         4.386202577360485E-153
   17.4206250000000         4.462705454774617E-152
   17.6343750000000         2.647492491227367E-151
   17.8481250000000         1.265512769274802E-150
   18.0618750000000         5.253381338502883E-150
   18.2756250000000         1.942049936573640E-149
   18.4893750000000         6.420542487800079E-149
   18.7031250000000         1.872787349372695E-148
   18.9168750000000         4.603437720131915E-148
   19.1306250000000         8.125995389452894E-148
   19.3443750000000         6.331604764654889E-149
   19.5581250000000        -8.163839184866844E-147
   19.7718750000000        -5.006481626962917E-146
   19.9856250000000        -2.181681760849618E-145
   20.1993750000000        -8.051517663389927E-145
   20.4131250000000        -2.653463192277420E-144
   20.6268750000000        -7.978983918688737E-144
   20.8406250000000        -2.208075159067128E-143
   21.0543750000000        -5.628065786309219E-143
   21.2681250000000        -1.312619110569948E-142
   21.4818750000000        -2.752581915256054E-142
   21.6956250000000        -4.977866483434854E-142
   21.9093750000000        -6.867883951176610E-142
   22.1231250000000        -3.124212328213510E-142
   22.3368750000000         2.276436014848338E-141
   22.5506250000000         1.124731173733541E-140
   22.7643750000000         3.546487166616489E-140
   22.9781250000000         9.048942263305985E-140
   23.1918750000000         1.963055872152096E-139
   23.4056250000000         3.600365765061686E-139
   23.6193750000000         5.231725756278855E-139
   23.8331250000000         4.501256284734291E-139
   24.0468750000000        -4.215335598355667E-139
   24.2606250000000        -2.950687571733165E-138
   24.4743750000000        -7.271474187578805E-138
   24.6881250000000        -8.562319593486181E-138
   24.9018750000000         1.534614631746902E-137
   25.1156250000000         1.335057331966419E-136
   25.3293750000000         5.203182271414802E-136
   25.5431250000000         1.546596194479721E-135
   25.7568750000000         3.861704340109256E-135
   25.9706250000000         8.286510025538534E-135
   26.1843750000000         1.500458140952662E-134
   26.3981250000000         2.088148923405236E-134
   26.6118750000000         1.269282991918738E-134
   26.8256250000000        -4.709168251526534E-134
   27.0393750000000        -2.451291734840905E-133
   27.2531250000000        -7.503762411188042E-133
   27.4668750000000        -1.834237402326537E-132
   27.6806250000000        -3.808370422036837E-132
   27.8943750000000        -6.713218698699139E-132
   28.1081250000000        -9.427444693842696E-132
   28.3218750000000        -7.664905543799443E-132
   28.5356250000000         9.772467106266464E-132
   28.7493750000000         6.669278389246919E-131
   28.9631250000000         2.055109734349695E-130
   29.1768750000000         4.869798437127122E-130
   29.3906250000000         9.668727891492567E-130
   29.6043750000000         1.615425068085878E-129
   29.8181250000000         2.122351338431053E-129
   30.0318750000000         1.513815466494853E-129
   30.2456250000000        -2.466934241248047E-129
   30.4593750000000        -1.412029883895786E-128
   30.6731250000000        -4.020319153998380E-128
   30.8868750000000        -8.867656519955995E-128
   31.1006250000000        -1.630524873208644E-127
   31.3143750000000        -2.476992924029939E-127
   31.5281250000000        -2.779149637118609E-127
   31.7418750000000        -8.982016418274203E-128
   31.9556250000000         6.457110115343621E-127
   32.1693750000000         2.475036186986641E-126
   32.3831250000000         6.115475210936085E-126
   32.5968750000000         1.213473765852625E-125
   32.8106250000000         2.005697149354878E-125
   33.0243750000000         2.649288338437927E-125
   33.2381250000000         2.194750255318579E-125
   33.4518750000000        -1.354010492553923E-125
   33.6656250000000        -1.143597671290653E-124
   33.8793750000000        -3.284196021137561E-124
   34.0931250000000        -7.020465439174090E-124
   34.3068750000000        -1.235052554679354E-123
   34.5206250000000        -1.785128549448486E-123
   34.7343750000000        -1.903471957406023E-123
   34.9481250000000        -6.073674515656265E-124
   35.1618750000000         3.839373344222335E-123
   35.3756250000000         1.393687142869548E-122
   35.5893750000000         3.234006275700256E-122
   35.8031250000000         5.995766213681537E-122
   36.0168750000000         9.189018946631289E-122
   36.2306250000000         1.104853198088178E-121
   36.4443750000000         7.578234729142733E-122
   36.6581250000000        -8.382358527584147E-122
   36.8718750000000        -4.729976746890993E-121
   37.0856250000000        -1.207852163376405E-120
   37.2993750000000        -2.347585128979465E-120
   37.5131250000000        -3.750385309060921E-120
   37.7268750000000        -4.832299478303351E-120
   37.9406250000000        -4.244164669775357E-120
   38.1543750000000         4.330169855919612E-121
   38.3681250000000         1.272319201173538E-119
   38.5818750000000         3.655877454142598E-119
   38.7956250000000         7.417640003112832E-119
   39.0093750000000         1.218608316688941E-118
   39.2231250000000         1.631465084609588E-118
   39.4368750000000         1.602568103492897E-118
   39.6506250000000         4.696194468783651E-119
   39.8643750000000        -2.701724334860755E-118
   40.0781250000000        -8.905793175461699E-118
   40.2918750000000        -1.863587638732802E-117
   40.5056250000000        -3.084466610518093E-117
   40.7193750000000        -4.143381228059219E-117
   40.9331250000000        -4.160810101503282E-117
   41.1468750000000        -1.699224770178870E-117
   41.3606250000000         5.085424028585969E-117
   41.5743750000000         1.782460884555233E-116
   41.7881250000000         3.662672822420690E-116
   42.0018750000000         5.801735658489828E-116
   42.2156250000000         7.251050937124195E-116
   42.4293750000000         6.297128899936212E-116
   42.6431250000000         5.971514837557317E-117
   42.8568750000000        -1.207474987773661E-115
   43.0706250000000        -3.216639865768029E-115
   43.2843750000000        -5.570972819381171E-115
   43.4981250000000        -7.127956727378446E-115
   43.7118750000000        -5.824393060054083E-115
   43.9256250000000         1.053012745271227E-115
   44.1393750000000         1.571402008529015E-114
   44.3531250000000         3.742576101306699E-114
   44.5668750000000         5.878097101687423E-114
   44.7806250000000         6.165286667349915E-114
   44.9943750000000         1.551603692814648E-114
   45.2081250000000        -1.170171728199898E-113
   45.4218750000000        -3.609253080502134E-113
   45.6356250000000        -6.901265941221853E-113
   45.8493750000000        -9.703898686053391E-113
   46.0631250000000        -9.006037139417486E-113
   46.2768750000000         3.883378120925520E-115
   46.4906250000000         2.308185054197409E-112
   46.7043750000000         6.332058106955557E-112
   46.9181250000000         1.151473253767516E-111
   47.1318750000000         1.549399022935160E-111
   47.3456250000000         1.318771782761638E-111
   47.5593750000000        -3.378501160292726E-112
   47.7731250000000        -4.316097788089595E-111
   47.9868750000000        -1.102766143048290E-110
   48.2006250000000        -1.925894744771440E-110
   48.4143750000000        -2.447017439916015E-110
   48.6281250000000        -1.696971439640613E-110
   48.8418750000000         1.880424529018424E-110
   49.0556250000000         1.015258447058166E-109
   49.2693750000000         2.432039902191309E-109
   49.4831250000000         4.284190411437234E-109
   49.6968750000000         5.803989618043553E-109
   49.9106250000000         5.178962497712898E-109
   50.1243750000000        -8.034798005925650E-110
   50.3381250000000        -1.665957114061599E-108
   50.5518750000000        -4.701851689631363E-108
   50.7656250000000        -9.346247653578471E-108
   50.9793750000000        -1.485274461051951E-107
   51.1931250000000        -1.865857603795516E-107
   51.4068750000000        -1.529782394018110E-107
   51.6206250000000         4.405561920676833E-108
   51.8343750000000         5.291970592899579E-107
   52.0481250000000         1.428148728046640E-106
   52.2618750000000         2.787572044243716E-106
   52.4756250000000         4.426993442723305E-106
   52.6893750000000         5.716343934168609E-106
   52.9031250000000         5.309115609758506E-106
   53.1168750000000         9.299930382694885E-107
   53.3306250000000        -1.057880745882058E-105
   53.5443750000000        -3.261827251048457E-105
   53.7581250000000        -6.715344733622474E-105
   53.9718750000000        -1.115394580890858E-104
   54.1856250000000        -1.536380156483301E-104
   54.3993750000000        -1.656906573080813E-104
   54.6131250000000        -9.873469584046674E-105
   54.8268750000000         1.185908851922794E-104
   55.0406250000000         5.703688775801022E-104
   55.2543750000000         1.323864183775980E-103
   55.4681250000000         2.370244805268971E-103
   55.6818750000000         3.528964783503146E-103
   55.8956250000000         4.320150525075869E-103
   56.1093750000000         3.831768457311535E-103
   56.3231250000000         6.448713212525004E-104
   56.5368750000000        -7.070687689611304E-103
   56.7506250000000        -2.112581226764412E-102
   56.9643750000000        -4.235115006404074E-102
   57.1781250000000        -6.893897443865896E-102
   57.3918750000000        -9.407025806319894E-102
   57.6056250000000        -1.031464294957691E-101
   57.8193750000000        -7.152785793879937E-102
   58.0331250000000         3.548764627643958E-102
   58.2468750000000         2.577474474553228E-101
   58.4606250000000         6.269016064767673E-101
   58.6743750000000         1.141127941277184E-100
   58.8881250000000         1.726058608996819E-100
   59.1018750000000         2.184474342891882E-100
   59.3156250000000         2.145643684927541E-100
   59.5293750000000         1.037865885164948E-100
   59.7431250000000        -1.876175733297379E-100
   59.9568750000000        -7.345920088274249E-100
   60.1706250000000        -1.579821087425118E-099
   60.3843750000000        -2.677091341702662E-099
   60.5981250000000        -3.811421174912560E-099
   60.8118750000000        -4.506402690664517E-099
   61.0256250000000        -3.946528263017936E-099
   61.2393750000000        -9.660356895481745E-100
   61.4531250000000         5.817678676130050E-099
   61.6668750000000         1.762759393971749E-098
   61.8806250000000         3.481023939154872E-098
   62.0943750000000         5.572643869971960E-098
   62.3081250000000         7.531359923600142E-098
   62.5218750000000         8.359428621565039E-098
   62.7356250000000         6.471906175327034E-098
   62.9493750000000        -2.481046743607673E-099
   63.1631250000000        -1.410847534127191E-097
   63.3768750000000        -3.682823747313302E-097
   63.5906250000000        -6.819346882894876E-097
   63.8043750000000        -1.041320754505014E-096
   64.0181250000000        -1.344166813674275E-096
   64.2318750000000        -1.405719049285498E-096
   64.4456250000000        -9.505916532436724E-097
   64.6593750000000         3.663712632780931E-097
   64.8731250000000         2.889662965163584E-096
   65.0868750000000         6.822353932940358E-096
   65.3006250000000         1.200227106111557E-095
   65.5143750000000         1.760337732580074E-095
   65.7281250000000         2.180867217942321E-095
   65.9418750000000         2.155723485800219E-095
   66.1556250000000         1.253761025800738E-095
   66.3693750000000        -1.033233437064585E-095
   66.5831250000000        -5.166098178662641E-095
   66.7968750000000        -1.133308767712521E-094
   67.0106250000000        -1.911584274674665E-094
   67.2243750000000        -2.707303614824148E-094
   67.4381250000000        -3.232461033640862E-094
   67.6518750000000        -3.029623637968758E-094
   67.8656250000000        -1.486984790164033E-094
   68.0793750000000         2.074231660725574E-094
   68.2931250000000         8.206613748196442E-094
   68.5068750000000         1.701365645006088E-093
   68.7206250000000         2.769996054067781E-093
   68.9343750000000         3.804715451602518E-093
   69.1481250000000         4.394263703152184E-093
   69.3618750000000         3.918162339291236E-093
   69.5756250000000         1.585744574555668E-093
   69.7893750000000        -3.428306716497184E-093
   70.0031250000000        -1.171637944890469E-092
   70.2168750000000        -2.321966046727768E-092
   70.4306250000000        -3.667865329365213E-092
   70.6443750000000        -4.903573017569631E-092
   70.8581250000000        -5.496123125691046E-092
   71.0718750000000        -4.677656982060952E-092
   71.2856250000000        -1.513869251643469E-092
   71.4993750000000         4.911128053065755E-092
   71.7131250000000         1.516033805027033E-091
   71.9268750000000         2.895120878509199E-091
   72.1406250000000         4.454401296914313E-091
   72.3543750000000         5.812401378606400E-091
   72.5681250000000         6.338465169855379E-091
   72.7818750000000         5.161890022563198E-091
   72.9956250000000         1.270129733896831E-091
   73.2093750000000        -6.265147831546249E-091
   73.4231250000000        -1.790758263347619E-090
   73.6368750000000        -3.312559578497129E-090
   73.8506250000000        -4.977013417559246E-090
   74.0643750000000        -6.349583594532928E-090
   74.2781250000000        -6.745254182829318E-090
   74.4918750000000        -5.256169734602131E-090
   74.7056250000000        -8.743215042260875E-091
   74.9193750000000         7.257234361741597E-090
   75.1331250000000         1.944763132950645E-089
   75.3468750000000         3.493362563988026E-089
   75.5606250000000         5.130023072987657E-089
   75.7743750000000         6.399293688613331E-089
   75.9881250000000         6.614888089413498E-089
   76.2018750000000         4.904221624902735E-089
   76.4156250000000         3.461863325175519E-090
   76.6293750000000        -7.772305839659792E-089
   76.8431250000000        -1.957466468858327E-088
   77.0568750000000        -3.411689147562611E-088
   77.2706250000000        -4.889491611365829E-088
   77.4843750000000        -5.948241939923591E-088
   77.6981250000000        -5.950928163384603E-088
   77.9118750000000        -4.123557958946214E-088
   78.1256250000000         3.027837184588368E-089
   78.3393750000000         7.848756803295728E-088
   78.5531250000000         1.844607718135816E-087
   78.7668750000000         3.103623660368222E-087
   78.9806250000000         4.319098632232898E-087
   79.1943750000000         5.088873453307726E-087
   79.4081250000000         4.862728984119493E-087
   79.6218750000000         3.007562281411548E-087
   79.8356250000000        -1.055848137203720E-087
   80.0493750000000        -7.636754394315119E-087
   80.2631250000000        -1.649066814469064E-086
   80.4768750000000        -2.650884266560877E-086
   80.6906250000000        -3.545889171567456E-086
   80.9043750000000        -3.989275029405674E-086
   81.1181250000000        -3.536679070497445E-086
   81.3318750000000        -1.712205010769819E-086
   81.5456250000000         1.866849013911038E-086
   81.7593750000000         7.308159243659648E-086
   81.9731250000000         1.422259837029783E-085
   82.1868750000000         2.150400080448128E-085
   82.4006250000000         2.718013032990914E-085
   82.6143750000000         2.843033024289681E-085
   82.8281250000000         2.187908534139510E-085
   83.0418750000000         4.263749568083845E-086
   83.2556250000000        -2.647464174124830E-085
   83.4693750000000        -6.972726690137795E-085
   83.6831250000000        -1.205811412111756E-084
   83.8968750000000        -1.684040966439208E-084
   84.1106250000000        -1.962469611400530E-084
   84.3243750000000        -1.818139414284069E-084
   84.5381250000000        -1.007793406556480E-084
   84.7518750000000         6.696891129647851E-085
   84.9656250000000         3.280940778231111E-084
   85.1793750000000         6.644108186845416E-084
   85.3931250000000         1.021397119190252E-083
   85.6068750000000         1.300158283570837E-083
   85.8206250000000         1.357754655081120E-083
   86.0343750000000         1.021593905241894E-083
   86.2481250000000         1.231508414141130E-084
   86.4618750000000        -1.446095077321428E-083
   86.6756250000000        -3.658517870861057E-083
   86.8893750000000        -6.263671611741308E-083
   87.1031250000000        -8.710706972928503E-083
   87.3168750000000        -1.011025207807805E-082
   87.5306250000000        -9.274947285200014E-083
   87.7443750000000        -4.880686775054006E-083
   87.9581250000000         4.217399351229795E-083
   88.1718750000000         1.850406331888601E-082
   88.3856250000000         3.719127438400044E-082
   88.5993750000000         5.756965597920867E-082
   88.8131250000000         7.449647900010575E-082
   89.0268750000000         8.026937664955969E-082
   89.2406250000000         6.518895524883293E-082
   89.4543750000000         1.911341527294492E-082
   89.6681250000000        -6.578208256897299E-082
   89.8818750000000        -1.910429372427450E-081
   90.0956250000000        -3.471289756177360E-081
   90.3093750000000        -5.086156792390939E-081
   90.5231250000000        -6.308237525286926E-081
   90.7368750000000        -6.498319063808194E-081
   90.9506250000000        -4.881464577800456E-081
   91.1643750000000        -6.817108397302009E-082
   91.3781250000000         6.652158148814380E-081
   91.5918750000000         1.713430671292903E-080
   91.8056250000000         2.987541799779104E-080
   92.0193750000000         4.273133648562989E-080
   92.2331250000000         5.207701203591868E-080
   92.4468750000000         5.285235499713194E-080
   92.6606250000000         3.904508489110126E-080
   92.8743750000000         4.759574181275618E-081
   93.0881250000000        -5.404745933419902E-080
   93.3018750000000        -1.372178090480752E-079
   93.5156250000000        -2.376874210890095E-079
   93.7293750000000        -3.389482271123349E-079
   93.9431250000000        -4.134830810981116E-079
   94.1568750000000        -4.232240546672787E-079
   94.3706250000000        -3.231926467378842E-079
   94.5843750000000        -6.934043720905843E-080
   94.7981250000000         3.688949840269513E-079
   95.0118750000000         9.917587448559604E-079
   95.2256250000000         1.749936747477722E-078
   95.4393750000000         2.526566473801910E-078
   95.6531250000000         3.126082578297750E-078
   95.8668750000000         3.277078734881723E-078
   96.0806250000000         2.657030124383641E-078
   96.2943750000000         9.457097173609611E-079
   96.5081250000000        -2.089288030597121E-078
   96.7218750000000        -6.477865590146898E-078
   96.9356250000000        -1.191591854291896E-077
   97.1493750000000        -1.764109101940443E-077
   97.3631250000000        -2.235231227610561E-077
   97.5768750000000        -2.421995685412758E-077
   97.7906250000000        -2.103777310345742E-077
   98.0043750000000        -1.056140934099216E-077
   98.2181250000000         8.943086790384877E-078
   98.4318750000000         3.795725086945851E-077
   98.6456250000000         7.484973353513940E-077
   98.8593750000000         1.150457105856906E-076
   99.0731250000000         1.504522383813155E-076
   99.2868750000000         1.694308094416610E-076
   99.5006250000000         1.576375829778946E-076
   99.7143750000000         1.000175313940220E-076
   99.9281250000000        -1.588587827829543E-077
   100.141875000000        -1.953782342020178E-076
   100.355625000000        -4.312387390185924E-076
   100.569375000000        -6.983778295810181E-076
   100.783125000000        -9.498513499929783E-076
   100.996875000000        -1.115956041347730E-075
   101.210625000000        -1.108332300169225E-075
   101.424375000000        -8.308438305023647E-076
   101.638125000000        -1.983347262425133E-076
   101.851875000000         8.369316011637673E-076
   102.065625000000         2.253294379495628E-075
   102.279375000000         3.926799521086181E-075
   102.493125000000         5.604706622477964E-075
   102.706875000000         6.895114586362419E-075
   102.920625000000         7.283782442230435E-075
   103.134375000000         6.188684838192443E-075
   103.348125000000         3.059542191361476E-075
   103.561875000000        -2.477157138007248E-075
   103.775625000000        -1.043746848533539E-074
   103.989375000000        -2.028687752530356E-074
   104.203125000000        -3.077294575079827E-074
   104.416875000000        -3.983568325102610E-074
   104.630625000000        -4.465646745004685E-074
   104.844375000000        -4.190570156833342E-074
   105.058125000000        -2.823466756599254E-074
   105.271875000000        -1.024455579490448E-075
   105.485625000000         4.064704737762843E-074
   105.699375000000         9.492817974546096E-074
   105.913125000000         1.561936737532717E-073
   106.126875000000         2.143852618364311E-073
   106.340625000000         2.550106783006233E-073
   106.554375000000         2.601293826672871E-073
   106.768125000000         2.105954713350760E-073
   106.981875000000         8.968191192254844E-074
   107.195625000000        -1.120348384799371E-073
   107.409375000000        -3.909878416356760E-073
   107.623125000000        -7.249870710412852E-073
   107.836875000000        -1.068900040220150E-072
   108.050625000000        -1.353223308955654E-072
   108.264375000000        -1.487248820168804E-072
   108.478125000000        -1.368344541077092E-072
   108.691875000000        -8.982677634296580E-073
   108.905625000000        -6.347043914279117E-075
   109.119375000000         1.322185270987614E-072
   109.333125000000         3.016337989246119E-072
   109.546875000000         4.893632233268235E-072
   109.760625000000         6.645897960968982E-072
   109.974375000000         7.844978552653935E-072
   110.188125000000         7.976384655133023E-072
   110.401875000000         6.506742927374746E-072
   110.615625000000         2.986461088805539E-072
   110.829375000000        -2.817695118407508E-072
   111.043125000000        -1.077406716490086E-071
   111.256875000000        -2.024519184552783E-071
   111.470625000000        -2.998712814527533E-071
   111.684375000000        -3.812794869205982E-071
   111.898125000000        -4.226540354295133E-071
   112.111875000000        -3.971710361248077E-071
   112.325625000000        -2.794015463917605E-071
   112.539375000000        -5.110114146038717E-072
   112.753125000000         2.918765392099119E-071
   112.966875000000         7.324442296458646E-071
   113.180625000000         1.226263198379719E-070
   113.394375000000         1.698539760678277E-070
   113.608125000000         2.045502783301106E-070
   113.821875000000         2.142298826379442E-070
   114.035625000000         1.858510864199728E-070
   114.249375000000         1.081511979543879E-070
   114.463125000000        -2.535906437766578E-071
   114.676875000000        -2.130489616039601E-070
   114.890625000000        -4.419743512596423E-070
   115.104375000000        -6.855258298997042E-070
   115.318125000000        -9.027317706610772E-070
   115.531875000000        -1.040048999642158E-069
   115.745625000000        -1.036340603525081E-069
   115.959375000000        -8.314179192727134E-070
   116.173125000000        -3.779970036832637E-070
   116.386875000000         3.437935226262699E-070
   116.600625000000         1.311056407818049E-069
   116.814375000000         2.444483637549451E-069
   117.028125000000         3.599714530197094E-069
   117.241875000000         4.567380247673614E-069
   117.455625000000         5.085392973443687E-069
   117.669375000000         4.866196359799597E-069
   117.883125000000         3.640011228366223E-069
   118.096875000000         1.212564038546963E-069
   118.310625000000        -2.467498958094526E-069
   118.524375000000        -7.240023071326060E-069
   118.738125000000        -1.267573075199857E-068
   118.951875000000        -1.804460236252746E-068
   119.165625000000        -2.232656146704116E-068
   119.379375000000        -2.427962518267696E-068
   119.593125000000        -2.257634335935965E-068
   119.806875000000        -1.601134813442903E-068
   120.020625000000        -3.771151840806993E-069
   120.234375000000         1.425740806003671E-068
   120.448125000000         3.718006800262344E-068
   120.661875000000         6.284516933909525E-068
   120.875625000000         8.771879615717511E-068
   121.089375000000         1.069579973203454E-067
   121.303125000000         1.147491563098485E-067
   121.516875000000         1.049584307364150E-067
   121.730625000000         7.210465886974621E-068
   121.944375000000         1.261205487558347E-068
   122.158125000000        -7.376697053149962E-068
   122.371875000000        -1.825432937088927E-067
   122.585625000000        -3.033538750815278E-067
   122.799375000000        -4.194096214402541E-067
   123.013125000000        -5.078664999739205E-067
   123.226875000000        -5.414326275576909E-067
   123.440625000000        -4.914326059165043E-067
   123.654375000000        -3.323817902148476E-067
   123.868125000000        -4.787533147586917E-068