  -1.60312500000000         0.000000000000000E+000
  -1.38937500000000         0.000000000000000E+000
  -1.17562500000000         0.000000000000000E+000
 -0.961875000000000         0.000000000000000E+000
 -0.748125000000000         0.000000000000000E+000
 -0.534375000000000         0.000000000000000E+000
 -0.320625000000000         0.000000000000000E+000
 -0.106875000000000         0.000000000000000E+000
  0.106875000000000         0.000000000000000E+000
  0.320625000000000         0.000000000000000E+000
  0.534375000000000         0.000000000000000E+000
  0.748125000000000         0.000000000000000E+000
  0.961875000000000         0.000000000000000E+000
   1.17562500000000         0.000000000000000E+000
   1.38937500000000         0.000000000000000E+000
   1.60312500000000         0.000000000000000E+000
   1.81687500000000         0.000000000000000E+000
   2.03062500000000         0.000000000000000E+000
   2.24437500000000         0.000000000000000E+000
   2.45812500000000         0.000000000000000E+000
   2.67187500000000         0.000000000000000E+000
   2.88562500000000         0.000000000000000E+000
   3.09937500000000         0.000000000000000E+000
   3.31312500000000         0.000000000000000E+000
   3.52687500000000         0.000000000000000E+000
   3.74062500000000         0.000000000000000E+000
   3.95437500000000         0.000000000000000E+000
   4.16812500000000         0.000000000000000E+000
   4.38187500000000         0.000000000000000E+000
   4.59562500000000         0.000000000000000E+000
   4.80937500000000         0.000000000000000E+000
   5.02312500000000         0.000000000000000E+000
   5.23687500000000         0.000000000000000E+000
   5.45062500000000         0.000000000000000E+000
   5.66437500000000         0.000000000000000E+000
   5.87812500000000         0.000000000000000E+000
   6.09187500000000         0.000000000000000E+000
   6.30562500000000         0.000000000000000E+000
   6.51937500000000         0.000000000000000E+000
   6.73312500000000         0.000000000000000E+000
   6.94687500000000         0.000000000000000E+000
   7.16062500000000         0.000000000000000E+000
   7.37437500000000         0.000000000000000E+000
   7.58812500000000         0.000000000000000E+000
   7.80187500000000         0.000000000000000E+000
   8.01562500000000         0.000000000000000E+000
   8.22937500000000         0.000000000000000E+000
   8.44312500000000         0.000000000000000E+000
   8.65687500000000         0.000000000000000E+000
   8.87062500000000         0.000000000000000E+000
   9.08437500000000         0.000000000000000E+000
   9.29812500000000         2.817472551652265E-204
   9.51187500000000        -1.182929724382664E-191
   9.72562500000000         5.674550242235312E-191
   9.93937500000000        -1.060111805811697E-186
   10.1531250000000        -5.790230913155933E-184
   10.3668750000000        -1.937720637572395E-182
   10.5806250000000         1.644710090831093E-180
   10.7943750000000         1.000519799342892E-178
   11.0081250000000         2.283635445693598E-177
   11.2218750000000         2.228935167983595E-176
   11.4356250000000        -1.177280249913080E-175
   11.6493750000000        -7.093388142554989E-174
   11.8631250000000        -1.100058580075319E-172
   12.0768750000000        -8.174698720896114E-172
   12.2906250000000         1.864136713507750E-171
   12.5043750000000         1.463649964163189E-169
   12.7181250000000         2.425352849482956E-168
   12.9318750000000         2.754437591425603E-167
   13.1456250000000         2.531626291827357E-166
   13.3593750000000         2.060740999327369E-165
   13.5731250000000         1.616935920677943E-164
   13.7868750000000         1.314798175241067E-163
   14.0006250000000         1.129016377003688E-162
   14.2143750000000         9.845705842383630E-162
   14.4281250000000         8.286413389554434E-161
   14.6418750000000         6.516936878606420E-160
   14.8556250000000         4.725007500767104E-159
   15.0693750000000         3.148390114632796E-158
   15.2831250000000         1.930405483536639E-157
   15.4968750000000         1.091913849726096E-156
   15.7106250000000         5.711454022075620E-156
   15.9243750000000         2.766834812951837E-155
   16.1381250000000         1.241545540866312E-154
   16.3518750000000         5.151052791112659E-154
   16.5656250000000         1.966480268148014E-153
   16.7793750000000         6.839120941675221E-153
   16.9931250000000         2.122952901667344E-152
   17.2068750000000         5.613023972786801E-152
   17.4206250000000         1.095942396000590E-151
   17.6343750000000         4.150343051991885E-152
   17.8481250000000        -1.002253685599515E-150
   18.0618750000000        -6.746824078931170E-150
   18.2756250000000        -3.072739635376537E-149
   18.4893750000000        -1.156132565532967E-148
   18.7031250000000        -3.787027260188055E-148
   18.9168750000000        -1.094971551530293E-147
   19.1306250000000        -2.774212525514687E-147
   19.3443750000000        -5.959753044217181E-147
   19.5581250000000        -9.867512833483331E-147
   19.7718750000000        -8.112559957633884E-147
   19.9856250000000         1.862517471565225E-146
   20.1993750000000         9.481971463093089E-146
   20.4131250000000         1.203625754562080E-145
   20.6268750000000        -8.139390785531336E-145
   20.8406250000000        -7.106515038214365E-144
   21.0543750000000        -3.545721073848176E-143
   21.2681250000000        -1.401362901546953E-142
   21.4818750000000        -4.766014409048650E-142
   21.6956250000000        -1.439417358409543E-141
   21.9093750000000        -3.901737970297974E-141
   22.1231250000000        -9.454560721046528E-141
   22.3368750000000        -2.000615580514358E-140
   22.5506250000000        -3.444281779895018E-140
   22.7643750000000        -3.578343660872388E-140
   22.9781250000000         4.711589877552605E-140
   23.1918750000000         4.363921388525825E-139
   23.4056250000000         1.716641911470440E-138
   23.6193750000000         5.224689036818406E-138
   23.8331250000000         1.359578159017921E-137
   24.0468750000000         3.105659562939730E-137
   24.2606250000000         6.190308090014589E-137
   24.4743750000000         1.028432760562254E-136
   24.6881250000000         1.193772876348579E-136
   24.9018750000000        -1.245736280764700E-137
   25.1156250000000        -6.268850538858808E-136
   25.3293750000000        -2.475319010202790E-135
   25.5431250000000        -6.984785175532073E-135
   25.7568750000000        -1.632910437160929E-134
   25.9706250000000        -3.255121892249592E-134
   26.1843750000000        -5.387783127883175E-134
   26.3981250000000        -6.447152233159157E-134
   26.6118750000000        -1.140006095970927E-134
   26.8256250000000         2.386771258597097E-133
   27.0393750000000         9.652429312653811E-133
   27.2531250000000         2.659492041989408E-132
   27.4668750000000         5.998901122847151E-132
   27.6806250000000         1.149148383574150E-131
   27.8943750000000         1.828460401791009E-131
   28.1081250000000         2.125914684501941E-131
   28.3218750000000         5.219303813193309E-132
   28.5356250000000        -6.469325660446560E-131
   28.7493750000000        -2.549570870014561E-130
   28.9631250000000        -6.698534945394260E-130
   29.1768750000000        -1.428701488818439E-129
   29.3906250000000        -2.563653825520431E-129
   29.6043750000000        -3.747876356418089E-129
   29.8181250000000        -3.725754242677935E-129
   30.0318750000000         6.729652633590321E-130
   30.2456250000000         1.588531222615582E-128
   30.4593750000000         5.275539228194784E-128
   30.6731250000000         1.256939181311014E-127
   30.8868750000000         2.459208700595155E-127
   31.1006250000000         4.016875882348777E-127
   31.3143750000000         5.151647943052664E-127
   31.5281250000000         3.656244447418309E-127
   31.7418750000000        -5.211421599466079E-127
   31.9556250000000        -2.983558854835221E-126
   32.1693750000000        -8.225946660587331E-126
   32.3831250000000        -1.746622901483218E-125
   32.5968750000000        -3.078929472106147E-125
   32.8106250000000        -4.456824513457439E-125
   33.0243750000000        -4.679655314870520E-125
   33.2381250000000        -1.022023545089599E-125
   33.4518750000000         1.150702851475167E-124
   33.6656250000000         4.040535229830427E-124
   33.8793750000000         9.419272560211977E-124
   34.0931250000000         1.770421664462773E-123
   34.3068750000000         2.764884825715928E-123
   34.5206250000000         3.411876394868598E-123
   34.7343750000000         2.482765468931857E-123
   34.9481250000000        -2.323775627162083E-123
   35.1618750000000        -1.453798438212907E-122
   35.3756250000000        -3.838221551214513E-122
   35.5893750000000        -7.672250859971802E-122
   35.8031250000000        -1.264381900548395E-121
   36.0168750000000        -1.702906467440311E-121
   36.2306250000000        -1.654894154598841E-121
   36.4443750000000        -3.197273910651487E-122
   36.6581250000000         3.514557772692083E-121
   36.8718750000000         1.127806155982120E-120
   37.0856250000000         2.397112864800562E-120
   37.2993750000000         4.082998994005719E-120
   37.5131250000000         5.722900944475595E-120
   37.7268750000000         6.219576928430236E-120
   37.9406250000000         3.676747191771622E-120
   38.1543750000000        -4.441284335381405E-120
   38.3681250000000        -2.048815868197410E-119
   38.5818750000000        -4.485724851164346E-119
   38.7956250000000        -7.334269187336973E-119
   39.0093750000000        -9.472433697688496E-119
   39.2231250000000        -9.137903119998121E-119
   39.4368750000000        -4.782693965371981E-119
   39.6506250000000         2.677072180404947E-119
   39.8643750000000         5.914820258650766E-119
   40.0781250000000        -1.352093284376647E-118
   40.2918750000000        -8.696478883365799E-118
   40.5056250000000        -2.489630022230295E-117
   40.7193750000000        -5.016864885367046E-117
   40.9331250000000        -7.348438149874258E-117
   41.1468750000000        -5.878237080941199E-117
   41.3606250000000         7.311892102553083E-117
   41.5743750000000         4.585369419537309E-116
   41.7881250000000         1.279793269030606E-115
   42.0018750000000         2.689440436424484E-115
   42.2156250000000         4.611140538707273E-115
   42.4293750000000         6.352797364089715E-115
   42.6431250000000         6.004000760359040E-115
   42.8568750000000        -2.864182957075915E-116
   43.0706250000000        -1.879097068008922E-114
   43.2843750000000        -5.763275290885229E-114
   43.4981250000000        -1.237551003759349E-113
   43.7118750000000        -2.154668820851627E-113
   43.9256250000000        -3.085627815159925E-113
   44.1393750000000        -3.353789931724017E-113
   44.3531250000000        -1.601861602809177E-113
   44.5668750000000         4.375275385688667E-113
   44.7806250000000         1.747256840784754E-112
   44.9943750000000         4.037848179510255E-112
   45.2081250000000         7.338180212842949E-112
   45.4218750000000         1.103297299968520E-111
   45.6356250000000         1.325703304273653E-111
   45.8493750000000         1.017894264070583E-111
   46.0631250000000        -4.525217660563295E-112
   46.2768750000000        -3.938126969549783E-111
   46.4906250000000        -1.029778357348927E-110
   46.7043750000000        -1.986061471350644E-110
   46.9181250000000        -3.143335485926187E-110
   47.1318750000000        -4.080659189935890E-110
   47.3456250000000        -3.896002122678616E-110
   47.5593750000000        -1.063211335700368E-110
   47.7731250000000         6.537088977166979E-110
   47.9868750000000         2.118886688624476E-109
   48.2006250000000         4.421927534452613E-109
   48.4143750000000         7.389543942819742E-109
   48.6281250000000         1.022332090315291E-108
   48.8418750000000         1.110990357379680E-108
   49.0556250000000         6.889712568521782E-109
   49.2693750000000        -6.950085526142248E-109
   49.4831250000000        -3.552958571856952E-108
   49.6968750000000        -8.251685111840835E-108
   49.9106250000000        -1.462090765716533E-107
   50.1243750000000        -2.135439232370386E-107
   50.3381250000000        -2.527067355648415E-107
   50.5518750000000        -2.066058827458042E-107
   50.7656250000000         8.151219940445685E-109
   50.9793750000000         4.893971810844974E-107
   51.1931250000000         1.315152349378733E-106
   51.4068750000000         2.477904025886514E-106
   51.6206250000000         3.784187770313967E-106
   51.8343750000000         4.730900117881204E-106
   52.0481250000000         4.395950508434412E-106
   52.2618750000000         1.418296877607644E-106
   52.4756250000000        -5.815536305710748E-106
   52.6893750000000        -1.863172547764232E-105
   52.9031250000000        -3.704287682786306E-105
   53.1168750000000        -5.820218323654993E-105
   53.3306250000000        -7.454131203990330E-105
   53.5443750000000        -7.220209855911019E-105
   53.7581250000000        -3.093307294752940E-105
   53.9718750000000         7.278093604631421E-105
   54.1856250000000         2.572306501262804E-104
   54.3993750000000         5.198662586795168E-104
   54.6131250000000         8.145029424185358E-104
   54.8268750000000         1.025065852712730E-103
   55.0406250000000         9.458116190566513E-104
   55.2543750000000         2.862019089751933E-104
   55.4681250000000        -1.273151477322253E-103
   55.6818750000000        -3.943185913025892E-103
   55.8956250000000        -7.585180498377290E-103
   56.1093750000000        -1.137198567771750E-102
   56.3231250000000        -1.341771930930705E-102
   56.5368750000000        -1.053715629119157E-102
   56.7506250000000         1.581628842499618E-103
   56.9643750000000         2.739071794938067E-102
   57.1781250000000         6.923691430616460E-102
   57.3918750000000         1.235493807257122E-101
   57.6056250000000         1.756118821023956E-101
   57.8193750000000         1.939929766703748E-101
   58.0331250000000         1.271564525276819E-101
   58.2468750000000        -9.337817982353055E-102
   58.4606250000000        -5.371880157973291E-101
   58.6743750000000        -1.239576185295462E-100
   58.8881250000000        -2.141797719477270E-100
   59.1018750000000        -3.008680932197082E-100
   59.3156250000000        -3.338932134045356E-100
   59.5293750000000        -2.304799782958410E-100
   59.7431250000000         1.214485214327468E-100
   59.9568750000000         8.413358268171379E-100
   60.1706250000000         2.004831635887804E-099
   60.3843750000000         3.554901706742150E-099
   60.5981250000000         5.175323717136968E-099
   60.8118750000000         6.144891180251718E-099
   61.0256250000000         5.220410755043477E-099
   61.2393750000000         6.366003957754304E-100
   61.4531250000000        -9.646207750722429E-099
   61.6668750000000        -2.728693342835584E-098
   61.8806250000000        -5.235537676523743E-098
   62.0943750000000        -8.152059511475338E-098
   62.3081250000000        -1.058078664136359E-097
   62.5218750000000        -1.084777534950347E-097
   62.7356250000000        -6.411982538548336E-098
   62.9493750000000         5.932520121302263E-098
   63.1631250000000         2.933875430991834E-097
   63.3768750000000         6.544398579780312E-097
   63.5906250000000         1.120193282042694E-096
   63.8043750000000         1.598285654806238E-096
   64.0181250000000         1.892366313282890E-096
   64.2318750000000         1.677732259339298E-096
   64.4456250000000         5.068281082407125E-097
   64.6593750000000        -2.127108764370826E-096
   64.8731250000000        -6.635953875700960E-096
   65.0868750000000        -1.306538639305264E-095
   65.3006250000000        -2.070183607821796E-095
   65.5143750000000        -2.759926875840695E-095
   65.7281250000000        -3.014166635205797E-095
   65.9418750000000        -2.285635835324670E-095
   66.1556250000000         1.198678625856660E-096
   66.3693750000000         4.906934003453202E-095
   66.5831250000000         1.251617001862241E-094
   66.7968750000000         2.268888761074679E-094
   67.0106250000000         3.388987330311055E-094
   67.2243750000000         4.268169064319126E-094
   67.4381250000000         4.325138806827064E-094
   67.6518750000000         2.741936527371380E-094
   67.8656250000000        -1.442008001562542E-094
   68.0793750000000        -9.092128432276759E-094
   68.2931250000000        -2.055559886834354E-093
   68.5068750000000        -3.504409424279496E-093
   68.7206250000000        -4.987990752825304E-093
   68.9343750000000        -5.976705751346565E-093
   69.1481250000000        -5.638556586779499E-093
   69.3618750000000        -2.875330807670770E-093
   69.5756250000000         3.509055919101917E-093
   69.7893750000000         1.445267512236367E-092
   70.0031250000000         3.005735990185183E-092
   70.2168750000000         4.880477650584483E-092
   70.4306250000000         6.667348809111858E-092
   70.6443750000000         7.639263976391819E-092
   70.8581250000000         6.722199027053072E-092
   71.0718750000000         2.579278970726949E-092
   71.2856250000000        -6.138073934277638E-092
   71.4993750000000        -2.031894820328529E-091
   71.7131250000000        -3.968238810763348E-091
   71.9268750000000        -6.187691752814568E-091
   72.1406250000000        -8.154818311057056E-091
   72.3543750000000        -8.967573582256689E-091
   72.5681250000000        -7.363529282453777E-091
   72.7818750000000        -1.856617942624442E-091
   72.9956250000000         8.935399832810569E-091
   73.2093750000000         2.572936225352087E-090
   73.4231250000000         4.778306376001386E-090
   73.6368750000000         7.195288278589025E-090
   73.8506250000000         9.180394938085226E-090
   74.0643750000000         9.711746240417901E-090
   74.2781250000000         7.427979692185510E-090
   74.4918750000000         8.124652001102204E-091
   74.7056250000000        -1.142384548587298E-089
   74.9193750000000        -2.973229112484882E-089
   75.1331250000000        -5.291397080138864E-089
   75.3468750000000        -7.721643222793047E-089
   75.5606250000000        -9.556784031217990E-089
   75.7743750000000        -9.730760092348088E-089
   75.9881250000000        -6.888467707157798E-089
   76.2018750000000         3.962407354668950E-090
   76.4156250000000         1.321232809574870E-088
   76.6293750000000         3.170121079662462E-088
   76.8431250000000         5.428909690090007E-088
   77.0568750000000         7.689156280371645E-088
   77.2706250000000         9.232588974621804E-088
   77.4843750000000         9.027538961262517E-088
   77.6981250000000         5.822828081190612E-088
   77.9118750000000        -1.618596856270075E-088
   78.1256250000000        -1.411748380113320E-087
   78.3393750000000        -3.151133304283904E-087
   78.5531250000000        -5.198163590016078E-087
   78.7668750000000        -7.141076613476656E-087
   78.9806250000000        -8.299299868731147E-087
   79.1943750000000        -7.740634604504972E-087
   79.4081250000000        -4.389641198467987E-087
   79.6218750000000         2.741080946034047E-087
   79.8356250000000         1.418087556994625E-086
   80.0493750000000         2.950855531789446E-086
   80.2631250000000         4.680361128164993E-086
   80.4768750000000         6.217175328629403E-086
   80.6906250000000         6.954472715397583E-086
   80.9043750000000         6.101016467813989E-086
   81.1181250000000         2.794266302614119E-086
   81.3318750000000        -3.685070749049581E-086
   81.5456250000000        -1.359219536087948E-085
   81.7593750000000        -2.631568144179359E-085
   81.9731250000000        -3.996019441259374E-085
   82.1868750000000        -5.103244852302833E-085
   82.4006250000000        -5.439838421657875E-085
   82.6143750000000        -4.371233455856208E-085
   82.8281250000000        -1.251257153911270E-085
   83.0418750000000         4.389287918539847E-085
   83.2556250000000         1.257832040734469E-084
   83.4693750000000         2.259119571181009E-084
   83.6831250000000         3.265521651173069E-084
   83.8968750000000         3.977078960724829E-084
   84.1106250000000         3.978330023229584E-084
   84.3243750000000         2.785469179300168E-084
   84.5381250000000        -5.366144259237720E-086
   84.7518750000000        -4.801213240466876E-084
   84.9656250000000        -1.132104853743913E-083
   85.1793750000000        -1.884983517831713E-083
   85.3931250000000        -2.580286885543573E-083
   85.6068750000000        -2.969681300374073E-083
   85.8206250000000        -2.729158535453302E-083
   86.0343750000000        -1.505624684394486E-083
   86.2481250000000         9.963483534861099E-084
   86.4618750000000         4.886730416569101E-083
   86.6756250000000         9.932071609135933E-083
   86.8893750000000         1.539457401568545E-082
   87.1031250000000         1.991446048430240E-082
   87.3168750000000         2.149980913064733E-082
   87.5306250000000         1.769865918462195E-082
   87.7443750000000         6.023589253509239E-083
   87.9581250000000        -1.532956505363081E-082
   88.1718750000000        -4.648694399357222E-082
   88.3856250000000        -8.473774561559578E-082
   88.5993750000000        -1.234455384660020E-081
   88.8131250000000        -1.513980110597571E-081
   89.0268750000000        -1.530765828769010E-081
   89.2406250000000        -1.103732691477614E-081
   89.4543750000000        -6.203720501737353E-083
   89.6681250000000         1.697953828783567E-081
   89.8818750000000         4.137814771752301E-081
   90.0956250000000         6.994440930538044E-081
   90.3093750000000         9.708581304390896E-081
   90.5231250000000         1.139249476729487E-080
   90.7368750000000         1.087150819328875E-080
   90.9506250000000         6.835439628461531E-081
   91.1643750000000        -1.872513013924102E-081
   91.3781250000000        -1.582340799564200E-080
   91.5918750000000        -3.445776770874924E-080
   91.8056250000000        -5.551118597657030E-080
   92.0193750000000        -7.455429199456720E-080
   92.2331250000000        -8.485013773704403E-080
   92.4468750000000        -7.777127707809848E-080
   92.6606250000000        -4.401467733591462E-080
   92.8743750000000         2.422067149613095E-080
   93.0881250000000         1.300935061204864E-079
   93.3018750000000         2.682849199373109E-079
   93.5156250000000         4.210946108271645E-079
   93.7293750000000         5.555037502797595E-079
   93.9431250000000         6.226146059473266E-079
   94.1568750000000         5.610960442374253E-079
   94.3706250000000         3.061721483884403E-079
   94.5843750000000        -1.948749950319244E-079
   94.7981250000000        -9.608906409092442E-079
   95.0118750000000        -1.950751918963138E-078
   95.2256250000000        -3.037407159302665E-078
   95.4393750000000        -3.989097880413580E-078
   95.6531250000000        -4.467134557769981E-078
   95.8668750000000        -4.050808856148129E-078
   96.0806250000000        -2.299146122202953E-078
   96.2943750000000         1.144765290583569E-078
   96.5081250000000         6.408951254950600E-078
   96.7218750000000         1.322118644189363E-077
   96.9356250000000         2.074019778483316E-077
   97.1493750000000         2.743495300966031E-077
   97.3631250000000         3.107164821757797E-077
   97.5768750000000         2.887481618897382E-077
   97.7906250000000         1.792255708150664E-077
   98.0043750000000        -4.189652602297310E-078
   98.2181250000000        -3.843110799712111E-077
   98.4318750000000        -8.325170175091907E-077
   98.6456250000000        -1.335115249070534E-076
   98.8593750000000        -1.797032255485300E-076
   99.0731250000000        -2.078301139696022E-076
   99.2868750000000        -2.003426407336093E-076
   99.5006250000000        -1.384965399113009E-076
   99.7143750000000        -6.343801994695510E-078
   99.9281250000000         2.037214277082591E-076
   100.141875000000         4.843691364022802E-076
   100.355625000000         8.067385053133217E-076
   100.569375000000         1.115464755949898E-075
   100.783125000000         1.327442197674441E-075
   100.996875000000         1.336677753589816E-075
   101.210625000000         1.027383632074264E-075
   101.424375000000         2.966183402829242E-076
   101.638125000000        -9.138221078491222E-076
   101.851875000000        -2.578954662166418E-075
   102.065625000000        -4.551311478567176E-075
   102.279375000000        -6.529749569635030E-075
   102.493125000000        -8.048137419628194E-075
   102.706875000000        -8.497172478100971E-075
   102.920625000000        -7.191692992326038E-075
   103.134375000000        -3.491563352772357E-075
   103.348125000000         3.024203418781296E-075
   103.561875000000         1.234310743740617E-074
   103.775625000000         2.379378713332481E-074
   103.989375000000         3.585640200617863E-074
   104.203125000000         4.607126613035812E-074
   104.416875000000         5.111738721598381E-074
   104.630625000000         4.712977595124832E-074
   104.844375000000         3.030430511109723E-074
   105.058125000000        -2.202483928948443E-075
   105.271875000000        -5.113498563410307E-074
   105.485625000000        -1.139005101391195E-073
   105.699375000000        -1.834624996894734E-073
   105.913125000000        -2.476806921326897E-073
   106.126875000000        -2.894690719805947E-073
   106.340625000000        -2.881409544640927E-073
   106.554375000000        -2.222253443253847E-073
   106.768125000000        -7.384855745979247E-074
   106.981875000000         1.655278663551551E-073
   107.195625000000         4.886240876530557E-073
   107.409375000000         8.661840761303103E-073
   107.623125000000         1.242654897667238E-072
   107.836875000000         1.535533499977019E-072
   108.050625000000         1.640278404023478E-072
   108.264375000000         1.442367382146477E-072
   108.478125000000         8.372730912699119E-073
   108.691875000000        -2.422254910806237E-073
   108.905625000000        -1.793834766056183E-072
   109.119375000000        -3.713269155889318E-072
   109.333125000000        -5.768333689748344E-072
   109.546875000000        -7.588142083792766E-072
   109.760625000000        -8.676758181287938E-072
   109.974375000000        -8.459608512992740E-072
   110.188125000000        -6.367879276481383E-072
   110.401875000000        -1.960465353861515E-072
   110.615625000000         4.925043909840630E-072
   110.829375000000         1.401075783823736E-071
   111.043125000000         2.443511806045939E-071
   111.256875000000         3.466568632217308E-071
   111.470625000000         4.251116954713224E-071
   111.684375000000         4.527429624093088E-071
   111.898125000000         4.007648538769637E-071
   112.111875000000         2.436360617774626E-071
   112.325625000000        -3.430752943020811E-072
   112.539375000000        -4.313029084937619E-071
   112.753125000000        -9.208197588056569E-071
   112.966875000000        -1.445998374377283E-070
   113.180625000000        -1.917747072546797E-070
   113.394375000000        -2.218449021448111E-070
   113.608125000000        -2.212937115736513E-070
   113.821875000000        -1.767653574974656E-070
   114.035625000000        -7.776796308786873E-071
   114.249375000000         8.003579426571713E-071
   114.463125000000         2.913475978375895E-070
   114.676875000000         5.381608199690017E-070
   114.890625000000         7.878627404152815E-070
   115.104375000000         9.933658157644753E-070
   115.318125000000         1.096081140847876E-069
   115.531875000000         1.032334217181812E-069
   115.745625000000         7.434105819611950E-070
   115.959375000000         1.888062110992915E-070
   116.173125000000        -6.385183117945471E-070
   116.386875000000        -1.696938682028490E-069
   116.600625000000        -2.883893661293408E-069
   116.814375000000        -4.030007026365337E-069
   117.028125000000        -4.903266473447643E-069
   117.241875000000        -5.226516959105893E-069
   117.455625000000        -4.710369921992152E-069
   117.669375000000        -3.101644108689988E-069
   117.883125000000        -2.446791167175129E-070
   118.096875000000         3.850505183647861E-069
   118.310625000000         8.942819142901826E-069
   118.524375000000         1.451036074240736E-068
   118.738125000000         1.973143549069674E-068
   118.951875000000         2.351189456182656E-068
   119.165625000000         2.457223359977718E-068
   119.379375000000         2.160262679301174E-068
   119.593125000000         1.348535706728091E-068
   119.806875000000        -4.278780927575988E-070
   120.020625000000        -2.001076427645338E-068
   120.234375000000        -4.407168772524570E-068
   120.448125000000        -7.013417941409585E-068
   120.661875000000        -9.435516800622882E-068
   120.875625000000        -1.116503967813046E-067
   121.089375000000        -1.160882852090910E-067
   121.303125000000        -1.015918103555489E-067
   121.516875000000        -6.295086744843331E-068
   121.730625000000         2.904904928122144E-069
   121.944375000000         9.548806509223488E-068
   122.158125000000         2.093774554442593E-067
   122.371875000000         3.331415357642078E-067
   122.585625000000         4.488724616305961E-067
   122.799375000000         5.326657443516244E-067
   123.013125000000         5.563554276310911E-067
   123.226875000000         4.907252878976784E-067
   123.440625000000         3.102504343329558E-067
   123.654375000000        -8.232209821322545E-070
   123.868125000000        -4.415734019574203E-067