  -1.60312500000000         0.000000000000000E+000
  -1.38937500000000         0.000000000000000E+000
  -1.17562500000000         0.000000000000000E+000
 -0.961875000000000         0.000000000000000E+000
 -0.748125000000000         0.000000000000000E+000
 -0.534375000000000         0.000000000000000E+000
 -0.320625000000000         0.000000000000000E+000
 -0.106875000000000         0.000000000000000E+000
  0.106875000000000         0.000000000000000E+000
  0.320625000000000         0.000000000000000E+000
  0.534375000000000         0.000000000000000E+000
  0.748125000000000         0.000000000000000E+000
  0.961875000000000         0.000000000000000E+000
   1.17562500000000         0.000000000000000E+000
   1.38937500000000         0.000000000000000E+000
   1.60312500000000         0.000000000000000E+000
   1.81687500000000         0.000000000000000E+000
   2.03062500000000         0.000000000000000E+000
   2.24437500000000         0.000000000000000E+000
   2.45812500000000         0.000000000000000E+000
   2.67187500000000         0.000000000000000E+000
   2.88562500000000         0.000000000000000E+000
   3.09937500000000         0.000000000000000E+000
   3.31312500000000         0.000000000000000E+000
   3.52687500000000         0.000000000000000E+000
   3.74062500000000         0.000000000000000E+000
   3.95437500000000         0.000000000000000E+000
   4.16812500000000         0.000000000000000E+000
   4.38187500000000         0.000000000000000E+000
   4.59562500000000         0.000000000000000E+000
   4.80937500000000         0.000000000000000E+000
   5.02312500000000         0.000000000000000E+000
   5.23687500000000         0.000000000000000E+000
   5.45062500000000         0.000000000000000E+000
   5.66437500000000         0.000000000000000E+000
   5.87812500000000         0.000000000000000E+000
   6.09187500000000         0.000000000000000E+000
   6.30562500000000         0.000000000000000E+000
   6.51937500000000         0.000000000000000E+000
   6.73312500000000         0.000000000000000E+000
   6.94687500000000         0.000000000000000E+000
   7.16062500000000         0.000000000000000E+000
   7.37437500000000         0.000000000000000E+000
   7.58812500000000         0.000000000000000E+000
   7.80187500000000         0.000000000000000E+000
   8.01562500000000         0.000000000000000E+000
   8.22937500000000         0.000000000000000E+000
   8.44312500000000         0.000000000000000E+000
   8.65687500000000         0.000000000000000E+000
   8.87062500000000         0.000000000000000E+000
   9.08437500000000         0.000000000000000E+000
   9.29812500000000         0.000000000000000E+000
   9.51187500000000         1.204469515831343E-204
   9.72562500000000        -5.057024571735890E-192
   9.93937500000000         2.425870228555715E-191
   10.1531250000000        -4.532028540090724E-187
   10.3668750000000        -2.475323472787138E-184
   10.5806250000000        -8.284208928475992E-183
   10.7943750000000         7.028660314830135E-181
   11.0081250000000         4.276393721298014E-179
   11.2218750000000         9.769570190654965E-178
   11.4356250000000         9.571461780342845E-177
   11.6493750000000        -4.935177366471870E-176
   11.8631250000000        -3.022851969161914E-174
   12.0768750000000        -4.707685607188457E-173
   12.2906250000000        -3.524912222874707E-172
   12.5043750000000         7.498415889526786E-172
   12.7181250000000         6.221854474568884E-170
   12.9318750000000         1.037588184742916E-168
   13.1456250000000         1.183743924809014E-167
   13.3593750000000         1.092646121603624E-166
   13.5731250000000         8.928042164605400E-166
   13.7868750000000         7.021665673058567E-165
   14.0006250000000         5.710042620801614E-164
   14.2143750000000         4.896761668421352E-163
   14.4281250000000         4.266139673827015E-162
   14.6418750000000         3.591409340718734E-161
   14.8556250000000         2.828651912342514E-160
   15.0693750000000         2.055854799985123E-159
   15.2831250000000         1.374223293128945E-158
   15.4968750000000         8.458068922117643E-158
   15.7106250000000         4.805354036891954E-157
   15.9243750000000         2.526227283658504E-156
   16.1381250000000         1.230875422905830E-155
   16.3518750000000         5.560229915569333E-155
   16.5656250000000         2.325162610491244E-154
   16.7793750000000         8.962726137889693E-154
   16.9931250000000         3.156240463615282E-153
   17.2068750000000         9.971896268416863E-153
   17.4206250000000         2.715191794727885E-152
   17.6343750000000         5.682343369744209E-152
   17.8481250000000         4.489463449454416E-152
   18.0618750000000        -3.716400168963503E-151
   18.2756250000000        -2.839372659248531E-150
   18.4893750000000        -1.350760195813105E-149
   18.7031250000000        -5.226403983578284E-149
   18.9168750000000        -1.754030173311704E-148
   19.1306250000000        -5.203643781149828E-148
   19.3443750000000        -1.361378871988699E-147
   19.5581250000000        -3.068158804517828E-147
   19.7718750000000        -5.579740608302823E-147
   19.9856250000000        -6.536278186406312E-147
   20.1993750000000         2.382521582638513E-147
   20.4131250000000         3.399914981831664E-146
   20.6268750000000         5.383752259016741E-146
   20.8406250000000        -3.139598062631478E-145
   21.0543750000000        -2.984197656246473E-144
   21.2681250000000        -1.547191739696410E-143
   21.4818750000000        -6.289246169737874E-143
   21.6956250000000        -2.192190333837938E-142
   21.9093750000000        -6.782433824174580E-142
   22.1231250000000        -1.887212015686177E-141
   22.3368750000000        -4.720068090664850E-141
   22.5506250000000        -1.043984362238506E-140
   22.7643750000000        -1.944437269971606E-140
   22.9781250000000        -2.573726277261451E-140
   23.1918750000000         6.976740268213326E-142
   23.4056250000000         1.608203765868645E-139
   23.6193750000000         7.345620911804340E-139
   23.8331250000000         2.394374939826733E-138
   24.0468750000000         6.546758720982049E-138
   24.2606250000000         1.567106957139407E-137
   24.4743750000000         3.301032580579441E-137
   24.6881250000000         5.963657008543043E-137
   24.9018750000000         8.404411626969615E-137
   25.1156250000000         5.431104748516135E-137
   25.3293750000000        -1.839492442665178E-136
   25.5431250000000        -1.003887829376531E-135
   25.7568750000000        -3.169944906806479E-135
   25.9706250000000        -7.984579948239501E-135
   26.1843750000000        -1.708559099617348E-134
   26.3981250000000        -3.101735281994007E-134
   26.6118750000000        -4.464716679292887E-134
   26.8256250000000        -3.589087888021579E-134
   27.0393750000000         5.738730451209702E-134
   27.2531250000000         3.767504742357345E-133
   27.4668750000000         1.194320152462569E-132
   27.6806250000000         2.941280704252892E-132
   27.8943750000000         6.106929492242057E-132
   28.1081250000000         1.075794892190946E-131
   28.3218750000000         1.519521476848786E-131
   28.5356250000000         1.298920130204959E-131
   28.7493750000000        -1.246115242992119E-131
   28.9631250000000        -9.600495339107287E-131
   29.1768750000000        -2.988235213455258E-130
   29.3906250000000        -7.067748398609555E-130
   29.6043750000000        -1.394785531755510E-129
   29.8181250000000        -2.308991982229689E-129
   30.0318750000000        -2.987545470500327E-129
   30.2456250000000        -2.021299332143703E-129
   30.4593750000000         3.803425506181283E-129
   30.6731250000000         2.053163086838899E-128
   30.8868750000000         5.753757550722715E-128
   31.1006250000000         1.256628028188319E-127
   31.3143750000000         2.292590194776373E-127
   31.5281250000000         3.458957523843333E-127
   31.7418750000000         3.855634696047701E-127
   31.9556250000000         1.231074790071583E-127
   32.1693750000000        -8.899079408372865E-127
   32.3831250000000        -3.393484718393926E-126
   32.5968750000000        -8.356720844678042E-126
   32.8106250000000        -1.655590821164770E-125
   33.0243750000000        -2.740964563970860E-125
   33.2381250000000        -3.656143468271917E-125
   33.4518750000000        -3.177879629496663E-125
   33.6656250000000         1.263111221784420E-125
   33.8793750000000         1.409540847802841E-124
   34.0931250000000         4.153050141669064E-124
   34.3068750000000         8.978093463381191E-124
   34.5206250000000         1.597293277160465E-123
   34.7343750000000         2.356386505144444E-123
   34.9481250000000         2.658675515128833E-123
   35.1618750000000         1.362972424532654E-123
   35.3756250000000        -3.556312808231341E-123
   35.5893750000000        -1.504542470690939E-122
   35.8031250000000        -3.635518523461079E-122
   36.0168750000000        -6.909775095535325E-122
   36.2306250000000        -1.091544367176841E-121
   36.4443750000000        -1.398444760644537E-121
   36.6581250000000        -1.228227826857192E-121
   36.8718750000000         1.040286871813277E-122
   37.0856250000000         3.593143489966368E-121
   37.2993750000000         1.035168618420373E-120
   37.5131250000000         2.104796418934081E-120
   37.7268750000000         3.481708772183689E-120
   37.9406250000000         4.763665555838005E-120
   38.1543750000000         5.053518196666057E-120
   38.3681250000000         2.865016502462455E-120
   38.5818750000000        -3.705169639877868E-120
   38.7956250000000        -1.631145723626513E-119
   39.0093750000000        -3.505917041574342E-119
   39.2231250000000        -5.680611129388345E-119
   39.4368750000000        -7.412370625373539E-119
   39.6506250000000        -7.725212799584866E-119
   39.8643750000000        -6.267922268250423E-119
   40.0781250000000        -5.196627139011664E-119
   40.2918750000000        -1.204812105896059E-118
   40.5056250000000        -4.237407436540044E-118
   40.7193750000000        -1.184798045093057E-117
   40.9331250000000        -2.568450482148416E-117
   41.1468750000000        -4.326255354164301E-117
   41.3606250000000        -5.081396834250777E-117
   41.5743750000000        -1.200421480322860E-117
   41.7881250000000         1.452105743427122E-116
   42.0018750000000         5.351074077073554E-116
   42.2156250000000         1.294946360914179E-115
   42.4293750000000         2.506369988004714E-115
   42.6431250000000         4.010767234062530E-115
   42.8568750000000         5.073080313058204E-115
   43.0706250000000         3.888323412647536E-115
   43.2843750000000        -2.960059652679938E-115
   43.4981250000000        -2.074967845588682E-114
   43.7118750000000        -5.586536506339211E-114
   43.9256250000000        -1.128617705472939E-113
   44.1393750000000        -1.877759541614789E-113
   44.3531250000000        -2.562362901284956E-113
   44.5668750000000        -2.562555376815712E-113
   44.7806250000000        -6.919326739030507E-114
   44.9943750000000         4.906967617539113E-113
   45.2081250000000         1.656986829350328E-112
   45.4218750000000         3.627768802744272E-112
   45.6356250000000         6.373582786715751E-112
   45.8493750000000         9.295150428514135E-112
   46.0631250000000         1.072508076561749E-111
   46.2768750000000         7.360619878623327E-112
   46.4906250000000        -6.110412029207824E-112
   46.7043750000000        -3.666240489804330E-111
   46.9181250000000        -9.101453992944782E-111
   47.1318750000000        -1.710399969213878E-110
   47.3456250000000        -2.654627202992071E-110
   47.5593750000000        -3.375940876658985E-110
   47.7731250000000        -3.109150049003978E-110
   47.9868750000000        -5.813353389201019E-111
   48.2006250000000         5.949090544865655E-110
   48.4143750000000         1.832240487086481E-109
   48.6281250000000         3.753939090042003E-109
   48.8418750000000         6.202710173184351E-109
   49.0556250000000         8.503422867840135E-109
   49.2693750000000         9.148062296227413E-109
   49.4831250000000         5.532261305414326E-109
   49.6968750000000        -6.040835598461057E-109
   49.9106250000000        -2.974369254770524E-108
   50.1243750000000        -6.854521583284281E-108
   50.3381250000000        -1.210337197315392E-107
   50.5518750000000        -1.765773452868125E-107
   50.7656250000000        -2.093577346053705E-107
   50.9793750000000        -1.730926987622720E-107
   51.1931250000000        -1.404396917479018E-110
   51.4068750000000         3.891349305971364E-107
   51.6206250000000         1.059163531374737E-106
   51.8343750000000         2.006875202406356E-106
   52.0481250000000         3.081623331768951E-106
   52.2618750000000         3.886144044762068E-106
   52.4756250000000         3.687945246946218E-106
   52.6893750000000         1.400002274070724E-106
   52.9031250000000        -4.277117394745872E-106
   53.1168750000000        -1.443582756984073E-105
   53.3306250000000        -2.915855072837097E-105
   53.5443750000000        -4.630223846689937E-105
   53.7581250000000        -6.002494786239056E-105
   53.9718750000000        -5.952612715196820E-105
   54.1856250000000        -2.891109770259123E-105
   54.3993750000000         5.043997577701662E-105
   54.6131250000000         1.933317278829022E-104
   54.8268750000000         3.986399836609408E-104
   55.0406250000000         6.315473799175941E-104
   55.2543750000000         8.029744508076591E-104
   55.4681250000000         7.538986960044891E-104
   55.6818750000000         2.587021942523958E-104
   55.8956250000000        -9.318132818140792E-104
   56.1093750000000        -2.983962468803895E-103
   56.3231250000000        -5.793337159038312E-103
   56.5368750000000        -8.720037473532656E-103
   56.7506250000000        -1.029797147352271E-102
   56.9643750000000        -8.043891143364069E-103
   57.1781250000000         1.411560449837530E-103
   57.3918750000000         2.155488972252128E-102
   57.6056250000000         5.422892071007950E-102
   57.8193750000000         9.662896932129539E-102
   58.0331250000000         1.371609182366648E-101
   58.2468750000000         1.509883527768794E-101
   58.4606250000000         9.724174636210545E-102
   58.6743750000000        -7.865952397647873E-102
   58.8881250000000        -4.326770728517043E-101
   59.1018750000000        -9.942780490530113E-101
   59.3156250000000        -1.718888171365957E-100
   59.5293750000000        -2.421671536357401E-100
   59.7431250000000        -2.704190078580677E-100
   59.9568750000000        -1.902479107232408E-100
   60.1706250000000         8.925205810625870E-101
   60.3843750000000         6.668176136187955E-100
   60.5981250000000         1.608972537738527E-099
   60.8118750000000         2.879268502694848E-099
   61.0256250000000         4.235913517296136E-099
   61.2393750000000         5.110994100475935E-099
   61.4531250000000         4.508060186490133E-099
   61.6668750000000         9.872402870420971E-100
   61.8806250000000        -7.157103854131989E-099
   62.0943750000000        -2.139468328009690E-098
   62.3081250000000        -4.200715826568906E-098
   62.5218750000000        -6.662754617192625E-098
   62.7356250000000        -8.838139788481640E-098
   62.9493750000000        -9.403877152422041E-098
   63.1631250000000        -6.301987436624922E-098
   63.3768750000000         3.138440315068051E-098
   63.5906250000000         2.167531649193591E-097
   63.8043750000000         5.102670312239320E-097
   64.0181250000000         9.000202823490252E-097
   64.2318750000000         1.319253630152367E-096
   64.4456250000000         1.617250823216575E-096
   64.6593750000000         1.535922646425272E-096
   64.8731250000000         7.079118264480468E-097
   65.0868750000000        -1.300947635436888E-096
   65.3006250000000        -4.877540856581956E-096
   65.5143750000000        -1.015098255887506E-095
   65.7281250000000        -1.667622825080093E-095
   65.9418750000000        -2.303654492437984E-095
   66.1556250000000        -2.644732144681389E-095
   66.3693750000000        -2.252410981182611E-095
   66.5831250000000        -5.470178582051447E-096
   66.7968750000000         3.098251701778469E-095
   67.0106250000000         9.152481595389104E-095
   67.2243750000000         1.758617253885822E-094
   67.4381250000000         2.739890434535337E-094
   67.6518750000000         3.607614093804392E-094
   67.8656250000000         3.912068299986601E-094
   68.0793750000000         2.991155673136405E-094
   68.2931250000000         2.518339518828677E-096
   68.5068750000000        -5.796362843080454E-094
   68.7206250000000        -1.495616689360656E-093
   68.9343750000000        -2.712002331140863E-093
   69.1481250000000        -4.050658398061314E-093
   69.3618750000000        -5.122485271989099E-093
   69.5756250000000        -5.279862318340567E-093
   69.7893750000000        -3.622363866573029E-093
   70.0031250000000         8.986562964698990E-094
   70.2168750000000         9.227157491468626E-093
   70.4306250000000         2.176269825271856E-092
   70.6443750000000         3.773007365042181E-092
   70.8581250000000         5.442055175179357E-092
   71.0718750000000         6.646747449107368E-092
   71.2856250000000         6.544696935165127E-092
   71.4993750000000         4.022720842203680E-092
   71.7131250000000        -2.141653421739333E-092
   71.9268750000000        -1.294150007380963E-091
   72.1406250000000        -2.859403566502161E-091
   72.3543750000000        -4.780334835357853E-091
   72.5681250000000        -6.693041272916894E-091
   72.7818750000000        -7.928243603606842E-091
   72.9956250000000        -7.486745443388844E-091
   73.2093750000000        -4.108360175080324E-091
   73.4231250000000         3.512556919991325E-091
   73.6368750000000         1.631889958232560E-090
   73.8506250000000         3.427241431095940E-090
   74.0643750000000         5.556508794263993E-090
   74.2781250000000         7.579012948874591E-090
   74.4918750000000         8.731970112673297E-090
   74.7056250000000         7.926341821921710E-090
   74.9193750000000         3.848276167462600E-090
   75.1331250000000        -4.784212633951163E-090
   75.3468750000000        -1.877244635013104E-089
   75.5606250000000        -3.779423741139142E-089
   75.7743750000000        -5.962769808358795E-089
   75.9881250000000        -7.939323680617951E-089
   76.2018750000000        -8.907589753168753E-089
   76.4156250000000        -7.769930766205852E-089
   76.6293750000000        -3.259319492236185E-089
   76.8431250000000         5.782336849351171E-089
   77.0568750000000         1.994926943289859E-088
   77.2706250000000         3.865347994793994E-088
   77.4843750000000         5.941858729940678E-088
   77.6981250000000         7.724620900733717E-088
   77.9118750000000         8.431117734649662E-088
   78.1256250000000         7.032670744678261E-088
   78.3393750000000         2.395893409665220E-088
   78.5531250000000        -6.438424131135430E-088
   78.7668750000000        -1.982625593765352E-087
   78.9806250000000        -3.696652665374813E-087
   79.1943750000000        -5.530576287647917E-087
   79.4081250000000        -7.005773958800687E-087
   79.6218750000000        -7.407147899992981E-087
   79.8356250000000        -5.833961854371134E-087
   80.0493750000000        -1.344823593840961E-087
   80.2631250000000         6.780945544028742E-087
   80.4768750000000         1.866372022906438E-086
   80.6906250000000         3.335937007391943E-086
   80.9043750000000         4.839409108738904E-086
   81.1181250000000         5.944121547382425E-086
   81.3318750000000         6.033957953106441E-086
   81.5456250000000         4.368753802163728E-086
   81.7593750000000         2.232944363304640E-087
   81.9731250000000        -6.881200014203032E-086
   82.1868750000000        -1.685968867505336E-085
   82.4006250000000        -2.869757175779764E-085
   82.6143750000000        -4.011499792764077E-085
   82.8281250000000        -4.738459478158292E-085
   83.0418750000000        -4.546412226061145E-085
   83.2556250000000        -2.862038892982508E-085
   83.4693750000000         8.308197480787119E-086
   83.6831250000000         6.795697273816306E-085
   83.8968750000000         1.479092480684357E-084
   84.1106250000000         2.379770983091494E-084
   84.3243750000000         3.179828565615004E-084
   84.5381250000000         3.570559057242315E-084
   84.7518750000000         3.156888298906763E-084
   84.9656250000000         1.518040396942727E-084
   85.1793750000000        -1.682859950848465E-084
   85.3931250000000        -6.540264141787846E-084
   85.6068750000000        -1.271358638654723E-083
   85.8206250000000        -1.923565170088701E-083
   86.0343750000000        -2.438073912561011E-083
   86.2481250000000        -2.567219722667344E-083
   86.4618750000000        -2.012134991445699E-083
   86.6756250000000        -4.781424695840537E-084
   86.8893750000000         2.233825621459911E-083
   87.1031250000000         6.103037922121475E-083
   87.3168750000000         1.074725747849919E-082
   87.5306250000000         1.529420632547320E-082
   87.7443750000000         1.831343427992507E-082
   87.9581250000000         1.786929073134841E-082
   88.1718750000000         1.176004521949789E-082
   88.3856250000000        -2.003877825903712E-083
   88.5993750000000        -2.446534103116930E-082
   88.8131250000000        -5.477684552011955E-082
   89.0268750000000        -8.918799075921545E-082
   89.2406250000000        -1.202170846999948E-081
   89.4543750000000        -1.363725633198835E-081
   89.6681250000000        -1.228691752144875E-081
   89.8818750000000        -6.378503713938600E-082
   90.0956250000000         5.402240627792337E-082
   90.3093750000000         2.352273126411153E-081
   90.5231250000000         4.690642570406341E-081
   90.7368750000000         7.222564639429710E-081
   90.9506250000000         9.338212323037278E-081
   91.1643750000000         1.014471508059701E-080
   91.3781250000000         8.537713009584724E-081
   91.5918750000000         3.380208162460057E-081
   91.8056250000000        -6.192982685905575E-081
   92.0193750000000        -2.035082384252375E-080
   92.2331250000000        -3.806494251358305E-080
   92.4468750000000        -5.662425772511005E-080
   92.6606250000000        -7.131216346447015E-080
   92.8743750000000        -7.544053228621358E-080
   93.0881250000000        -6.095782639987418E-080
   93.3018750000000        -1.982555841970565E-080
   93.5156250000000         5.373397687332620E-080
   93.7293750000000         1.601923877089072E-079
   93.9431250000000         2.912118301179234E-079
   94.1568750000000         4.263601317513893E-079
   94.3706250000000         5.310803890294229E-079
   94.5843750000000         5.572487251874476E-079
   94.7981250000000         4.477713286532750E-079
   95.0118750000000         1.464679761987457E-079
   95.2256250000000        -3.861751167034662E-079
   95.4393750000000        -1.152023584403144E-078
   95.6531250000000        -2.091514460580272E-078
   95.8668750000000        -3.061723607849811E-078
   96.0806250000000        -3.823235246583597E-078
   96.2943750000000        -4.044608575091574E-078
   96.5081250000000        -3.333848084859121E-078
   96.7218750000000        -1.304781913600193E-078
   96.9356250000000         2.318209119050404E-078
   97.1493750000000         7.561652639415981E-078
   97.3631250000000         1.404665153068018E-077
   97.5768750000000         2.084478225243055E-077
   97.7906250000000         2.639063545146649E-077
   98.0043750000000         2.850667540477464E-077
   98.2181250000000         2.459955896398438E-077
   98.4318750000000         1.207737673600537E-077
   98.6456250000000        -1.099054353453351E-077
   98.8593750000000        -4.499880016175997E-077
   99.0731250000000        -8.781367245653009E-077
   99.2868750000000        -1.338461738837649E-076
   99.5006250000000        -1.734601513701480E-076
   99.7143750000000        -1.930534446958461E-076
   99.9281250000000        -1.761721267228804E-076
   100.141875000000        -1.059625343505653E-076
   100.355625000000         3.089567908909433E-077
   100.569375000000         2.389181766708796E-076
   100.783125000000         5.077568622576756E-076
   100.996875000000         8.063997161767032E-076
   101.210625000000         1.079186601917322E-075
   101.424375000000         1.245606218888451E-075
   101.638125000000         1.205990942388272E-075
   101.851875000000         8.549472677829517E-076
   102.065625000000         1.034878243121284E-076
   102.279375000000        -1.090738389304515E-075
   102.493125000000        -2.687980116706846E-075
   102.706875000000        -4.531317136195569E-075
   102.920625000000        -6.320521351095011E-075
   103.134375000000        -7.605765890414948E-075
   103.348125000000        -7.813164684405191E-075
   103.561875000000        -6.312918928885945E-075
   103.775625000000        -2.536486254914057E-075
   103.989375000000         3.858925070610412E-075
   104.203125000000         1.279212560272731E-074
   104.416875000000         2.355439134133850E-074
   104.630625000000         3.464480863756039E-074
   104.844375000000         4.370237056049715E-074
   105.058125000000         4.759989907255444E-074
   105.271875000000         4.276080868087171E-074
   105.485625000000         2.573969271397540E-074
   105.699375000000        -5.931659403601884E-075
   105.913125000000        -5.269052590327446E-074
   106.126875000000        -1.118151552903267E-073
   106.340625000000        -1.764385541749786E-073
   106.554375000000        -2.349954133237263E-073
   106.768125000000        -2.714398888740806E-073
   106.981875000000        -2.665656716377875E-073
   107.195625000000        -2.006767260072518E-073
   107.409375000000        -5.767887416610626E-074
   107.623125000000         1.696169665384557E-073
   107.836875000000         4.735560945866380E-073
   108.050625000000         8.260575377786314E-073
   108.264375000000         1.174775112306675E-072
   108.478125000000         1.442669593646250E-072
   108.691875000000         1.532709358824562E-072
   108.905625000000         1.339118196209284E-072
   109.119375000000         7.658449963355439E-073
   109.333125000000        -2.483043679333999E-073
   109.546875000000        -1.700117656031872E-072
   109.760625000000        -3.492235108754806E-072
   109.974375000000        -5.409431778532466E-072
   110.188125000000        -7.108717748059202E-072
   110.401875000000        -8.131700169228257E-072
   110.615625000000        -7.946816686834997E-072
   110.829375000000        -6.026243897771387E-072
   111.043125000000        -1.957217710988529E-072
   111.256875000000         4.419769073075003E-072
   111.470625000000         1.286236319174046E-071
   111.684375000000         2.259329405447403E-071
   111.898125000000         3.221712483473841E-071
   112.111875000000         3.972599155771423E-071
   112.325625000000         4.263256647572494E-071
   112.539375000000         3.825934467457284E-071
   112.753125000000         2.419436713761661E-071
   112.966875000000        -1.105700014368993E-072
   113.180625000000        -3.762206336701223E-071
   113.394375000000        -8.308938736574453E-071
   113.608125000000        -1.324607590339190E-070
   113.821875000000        -1.776924490634804E-070
   114.035625000000        -2.080279493640855E-070
   114.249375000000        -2.109382532835443E-070
   114.463125000000        -1.738126473154913E-070
   114.676875000000        -8.638715520797482E-071
   114.890625000000         5.625110322125690E-071
   115.104375000000         2.504241663195579E-070
   115.318125000000         4.809149894605701E-070
   115.531875000000         7.189988540320246E-070
   115.745625000000         9.222378673057948E-070
   115.959375000000         1.036806877820435E-069
   116.173125000000         1.002952522550742E-069
   116.386875000000         7.638402995282665E-070
   116.600625000000         2.775112359835624E-070
   116.814375000000        -4.690242406746652E-070
   117.028125000000        -1.445316767787619E-069
   117.241875000000        -2.565170658073532E-069
   117.455625000000        -3.679652767805387E-069
   117.669375000000        -4.578853799725177E-069
   117.883125000000        -5.005605624270357E-069
   118.096875000000        -4.683454122121914E-069
   118.310625000000        -3.359514658260898E-069
   118.524375000000        -8.603989385313837E-070
   118.738125000000         2.843664559118248E-069
   118.951875000000         7.574789733741475E-069
   119.165625000000         1.289499948429910E-068
   119.379375000000         1.807941959764621E-068
   119.593125000000         2.213012243831163E-068
   119.806875000000         2.384440974390880E-068
   120.020625000000         2.194720455365774E-068
   120.234375000000         1.528980801572498E-068
   120.448125000000         3.106558051115207E-069
   120.661875000000        -1.469255368380098E-068
   120.875625000000        -3.723027627154762E-068
   121.089375000000        -6.242309830780868E-068
   121.303125000000        -8.685801819843399E-068
   121.516875000000        -1.058535972348058E-067
   121.730625000000        -1.137695140326392E-067
   121.944375000000        -1.046117503780336E-067
   122.158125000000        -7.294836620570881E-068
   122.371875000000        -1.510288817561273E-068
   122.585625000000         6.946964033349003E-068
   122.799375000000         1.767900891714671E-067
   123.013125000000         2.971842460438095E-067
   123.226875000000         4.146320344837585E-067
   123.440625000000         5.069693066200670E-067
   123.654375000000         5.472640951610972E-067
   123.868125000000         5.066173796502055E-067