  -1.60312500000000         0.000000000000000E+000
  -1.38937500000000         0.000000000000000E+000
  -1.17562500000000         0.000000000000000E+000
 -0.961875000000000         0.000000000000000E+000
 -0.748125000000000         0.000000000000000E+000
 -0.534375000000000         0.000000000000000E+000
 -0.320625000000000         0.000000000000000E+000
 -0.106875000000000         0.000000000000000E+000
  0.106875000000000         0.000000000000000E+000
  0.320625000000000         0.000000000000000E+000
  0.534375000000000         0.000000000000000E+000
  0.748125000000000         0.000000000000000E+000
  0.961875000000000         0.000000000000000E+000
   1.17562500000000         0.000000000000000E+000
   1.38937500000000         0.000000000000000E+000
   1.60312500000000         0.000000000000000E+000
   1.81687500000000         0.000000000000000E+000
   2.03062500000000         0.000000000000000E+000
   2.24437500000000         0.000000000000000E+000
   2.45812500000000         0.000000000000000E+000
   2.67187500000000         0.000000000000000E+000
   2.88562500000000         0.000000000000000E+000
   3.09937500000000         0.000000000000000E+000
   3.31312500000000         0.000000000000000E+000
   3.52687500000000         0.000000000000000E+000
   3.74062500000000         0.000000000000000E+000
   3.95437500000000         0.000000000000000E+000
   4.16812500000000         0.000000000000000E+000
   4.38187500000000         0.000000000000000E+000
   4.59562500000000         0.000000000000000E+000
   4.80937500000000         0.000000000000000E+000
   5.02312500000000         0.000000000000000E+000
   5.23687500000000         0.000000000000000E+000
   5.45062500000000         0.000000000000000E+000
   5.66437500000000         0.000000000000000E+000
   5.87812500000000         0.000000000000000E+000
   6.09187500000000         0.000000000000000E+000
   6.30562500000000         0.000000000000000E+000
   6.51937500000000         0.000000000000000E+000
   6.73312500000000         0.000000000000000E+000
   6.94687500000000         0.000000000000000E+000
   7.16062500000000         0.000000000000000E+000
   7.37437500000000         0.000000000000000E+000
   7.58812500000000         0.000000000000000E+000
   7.80187500000000         0.000000000000000E+000
   8.01562500000000         0.000000000000000E+000
   8.22937500000000         0.000000000000000E+000
   8.44312500000000         0.000000000000000E+000
   8.65687500000000         0.000000000000000E+000
   8.87062500000000         0.000000000000000E+000
   9.08437500000000         0.000000000000000E+000
   9.29812500000000         5.997280931704223E-203
   9.51187500000000        -2.517674563853149E-190
   9.72562500000000        -9.826070369630251E-188
   9.93937500000000        -3.434222339416287E-186
   10.1531250000000        -3.791234828313829E-183
   10.3668750000000        -2.269507477346557E-181
   10.5806250000000        -2.639885651527017E-180
   10.7943750000000         1.096714448030551E-178
   11.0081250000000         4.593158580652992E-177
   11.2218750000000         7.865103553601648E-176
   11.4356250000000         6.308120079678601E-175
   11.6493750000000        -1.634346570513892E-174
   11.8631250000000        -1.084805016375004E-172
   12.0768750000000        -1.288279017073168E-171
   12.2906250000000        -3.155062819930644E-171
   12.5043750000000         1.546456894353727E-169
   12.7181250000000         3.553935571156976E-168
   12.9318750000000         5.059182619719764E-167
   13.1456250000000         5.821324908569590E-166
   13.3593750000000         5.942293663935847E-165
   13.5731250000000         5.636735267600347E-164
   13.7868750000000         5.071767552549262E-163
   14.0006250000000         4.343403068158915E-162
   14.2143750000000         3.521767295574608E-161
   14.4281250000000         2.684668202345508E-160
   14.6418750000000         1.913763382297245E-159
   14.8556250000000         1.271953364586493E-158
   15.0693750000000         7.873709223288974E-158
   15.2831250000000         4.539686884292480E-157
   15.4968750000000         2.438878080428630E-156
   15.7106250000000         1.221166690414197E-155
   15.9243750000000         5.696363501566483E-155
   16.1381250000000         2.471495192326465E-154
   16.3518750000000         9.938315820956960E-154
   16.5656250000000         3.678366837038007E-153
   16.7793750000000         1.236634526792987E-152
   16.9931250000000         3.675244651349757E-152
   17.2068750000000         9.036961998448845E-152
   17.4206250000000         1.438569000132686E-151
   17.6343750000000        -1.507979859652957E-151
   17.8481250000000        -2.657705354742934E-150
   18.0618750000000        -1.512261394854794E-149
   18.2756250000000        -6.502310664336623E-149
   18.4893750000000        -2.378946801272406E-148
   18.7031250000000        -7.673206140768995E-148
   18.9168750000000        -2.197818090296350E-147
   19.1306250000000        -5.519618067763623E-147
   19.3443750000000        -1.162559253618742E-146
   19.5581250000000        -1.772684852988274E-146
   19.7718750000000        -4.370572935211627E-147
   19.9856250000000         9.891370012618738E-146
   20.1993750000000         4.752976469716420E-145
   20.4131250000000         1.433109548992807E-144
   20.6268750000000         2.901063558637515E-144
   20.8406250000000         1.542909940587893E-144
   21.0543750000000        -2.056700381686393E-143
   21.2681250000000        -1.327625508222998E-142
   21.4818750000000        -5.603170791978807E-142
   21.6956250000000        -1.947655295118298E-141
   21.9093750000000        -5.942750177082371E-141
   22.1231250000000        -1.630270118022997E-140
   22.3368750000000        -4.048203820110344E-140
   22.5506250000000        -9.042153366563461E-140
   22.7643750000000        -1.771928050257023E-139
   22.9781250000000        -2.834306435811803E-139
   23.1918750000000        -2.732757095528610E-139
   23.4056250000000         3.474057814235004E-139
   23.6193750000000         2.982961161288314E-138
   23.8331250000000         1.105906037491381E-137
   24.0468750000000         3.194135147813618E-137
   24.2606250000000         7.956908021050867E-137
   24.4743750000000         1.764728267250850E-136
   24.6881250000000         3.507796021413265E-136
   24.9018750000000         6.178569256602168E-136
   25.1156250000000         9.274193964186585E-136
   25.3293750000000         1.049463820198962E-135
   25.5431250000000         3.809534575600477E-136
   25.7568750000000        -2.286922339439251E-135
   25.9706250000000        -8.838836330278166E-135
   26.1843750000000        -2.122358494226430E-134
   26.3981250000000        -3.923298486417196E-134
   26.6118750000000        -5.571113876775534E-134
   26.8256250000000        -5.003446323142100E-134
   27.0393750000000         1.230439750866179E-134
   27.2531250000000         1.479088630368483E-133
   27.4668750000000         2.278947256964763E-133
   27.6806250000000        -3.690372441499050E-133
   27.8943750000000        -3.506914005679606E-132
   28.1081250000000        -1.359695240231738E-131
   28.3218750000000        -3.922534018061674E-131
   28.5356250000000        -9.360144546242403E-131
   28.7493750000000        -1.892212674841551E-130
   28.9631250000000        -3.159722780417301E-130
   29.1768750000000        -3.819109303153509E-130
   29.3906250000000        -8.415444123118285E-131
   29.6043750000000         1.326266647323908E-129
   29.8181250000000         5.389855363456378E-129
   30.0318750000000         1.477330560168227E-128
   30.2456250000000         3.315263686948129E-128
   30.4593750000000         6.355225454856541E-128
   30.6731250000000         1.029505868119303E-127
   30.8868750000000         1.295212590141281E-127
   31.1006250000000         7.781843413030979E-128
   31.3143750000000        -2.013772526907183E-127
   31.5281250000000        -9.914748733338304E-127
   31.7418750000000        -2.742506870928816E-126
   31.9556250000000        -6.008376055181094E-126
   32.1693750000000        -1.112675524872758E-125
   32.3831250000000        -1.736096726546137E-125
   32.5968750000000        -2.111182879483647E-125
   32.8106250000000        -1.282672721318546E-125
   33.0243750000000         2.734947932861138E-125
   33.2381250000000         1.338545346463741E-124
   33.4518750000000         3.557895076650321E-124
   33.6656250000000         7.437104117259517E-124
   33.8793750000000         1.306919437204248E-123
   34.0931250000000         1.917659748763651E-123
   34.3068750000000         2.136899179975470E-123
   34.5206250000000         9.530826013634482E-124
   34.7343750000000        -3.517766832555844E-123
   34.9481250000000        -1.419483945080152E-122
   35.1618750000000        -3.465606778847913E-122
   35.3756250000000        -6.749383007861392E-122
   35.5893750000000        -1.103261457479028E-121
   35.8031250000000        -1.482552946797655E-121
   36.0168750000000        -1.421469458683833E-121
   36.2306250000000        -1.421471344309226E-122
   36.4443750000000         3.628960936958589E-121
   36.6581250000000         1.159104848448305E-120
   36.8718750000000         2.535979324886788E-120
   37.0856250000000         4.513967648431118E-120
   37.2993750000000         6.715699015035713E-120
   37.5131250000000         7.962780600272430E-120
   37.7268750000000         5.770894442528380E-120
   37.9406250000000        -4.068463552382454E-120
   38.1543750000000        -2.739328067403491E-119
   38.3681250000000        -7.032507435384523E-119
   38.5818750000000        -1.356515173711319E-118
   38.7956250000000        -2.159061648520440E-118
   39.0093750000000        -2.827841667085236E-118
   39.2231250000000        -2.744287284199013E-118
   39.4368750000000        -8.573108215999582E-119
   39.6506250000000         4.278935223820573E-118
   39.8643750000000         1.416955844155272E-117
   40.0781250000000         2.955187214001971E-117
   40.2918750000000         4.893942308478293E-117
   40.5056250000000         6.662599693327525E-117
   40.7193750000000         7.071213814547932E-117
   40.9331250000000         4.244557093058812E-117
   41.1468750000000        -4.101871521854283E-117
   41.3606250000000        -1.979123939694655E-116
   41.5743750000000        -4.255286292844315E-116
   41.7881250000000        -6.779287139056725E-116
   42.0018750000000        -8.461825987379310E-116
   42.2156250000000        -7.598942045517030E-116
   42.4293750000000        -2.393810297423207E-116
   42.6431250000000         7.691243684006738E-116
   42.8568750000000         1.961806213032705E-115
   43.0706250000000         2.395631998804757E-115
   43.2843750000000         3.205820410732294E-116
   43.4981250000000        -6.539072782021928E-115
   43.7118750000000        -1.974461142404858E-114
   43.9256250000000        -3.738769859414304E-114
   44.1393750000000        -4.958158135884750E-114
   44.3531250000000        -3.295956555252292E-114
   44.5668750000000         5.308951490795251E-114
   44.7806250000000         2.627849721429033E-113
   44.9943750000000         6.440768402772507E-113
   45.2081250000000         1.192237816814526E-112
   45.4218750000000         1.770509973312218E-112
   45.6356250000000         2.005559139763858E-112
   45.8493750000000         1.194652827403371E-112
   46.0631250000000        -1.693749028967785E-112
   46.2768750000000        -7.793768926746842E-112
   46.4906250000000        -1.773001784995963E-111
   46.7043750000000        -3.050658182349806E-111
   46.9181250000000        -4.198013444503520E-111
   47.1318750000000        -4.341603018976500E-111
   47.3456250000000        -2.127240103383137E-111
   47.5593750000000         3.991317986065567E-111
   47.7731250000000         1.492770028790794E-110
   47.9868750000000         2.945441070515670E-110
   48.2006250000000         4.217372681173422E-110
   48.4143750000000         4.179389075551029E-110
   48.6281250000000         1.158365044027377E-110
   48.8418750000000        -6.489781786121862E-110
   49.0556250000000        -1.889615050046599E-109
   49.2693750000000        -3.200858901888253E-109
   49.4831250000000        -3.395430833415595E-109
   49.6968750000000        -1.774132269098405E-110
   49.9106250000000         9.823543668743829E-109
   50.1243750000000         3.008306848459702E-108
   50.3381250000000         6.147849710223532E-108
   50.5518750000000         9.705063772016414E-108
   50.7656250000000         1.139999595383065E-107
   50.9793750000000         6.430179100546373E-108
   51.1931250000000        -1.315307276830748E-107
   51.4068750000000        -5.781518460543653E-107
   51.6206250000000        -1.371274825258000E-106
   51.8343750000000        -2.515842502539731E-106
   52.0481250000000        -3.778056204012659E-106
   52.2618750000000        -4.468358508251233E-106
   52.4756250000000        -3.192433674647993E-106
   52.6893750000000         2.318226545671539E-106
   52.9031250000000         1.507249901058747E-105
   53.1168750000000         3.802416104097422E-105
   53.3306250000000         7.214840218570950E-105
   53.5443750000000         1.129433129101223E-104
   53.7581250000000         1.452187619445160E-104
   53.9718750000000         1.368485305767266E-104
   54.1856250000000         3.369081938231298E-105
   54.3993750000000        -2.397849599298901E-104
   54.6131250000000        -7.667368980545406E-104
   54.8268750000000        -1.601053618130799E-103
   55.0406250000000        -2.696895927754573E-103
   55.2543750000000        -3.798987941266783E-103
   55.4681250000000        -4.301935454636702E-103
   55.6818750000000        -3.114332536820856E-103
   55.8956250000000         1.393073937873997E-103
   56.1093750000000         1.121913867771478E-102
   56.3231250000000         2.815110253374020E-102
   56.5368750000000         5.254990064017960E-102
   56.7506250000000         8.133337777030265E-102
   56.9643750000000         1.051910284498758E-101
   57.1781250000000         1.054967981699435E-101
   57.3918750000000         5.211101122109473E-102
   57.6056250000000        -9.573315882556165E-102
   57.8193750000000        -3.821433424613496E-101
   58.0331250000000        -8.367453879292129E-101
   58.2468750000000        -1.442419540570333E-100
   58.4606250000000        -2.087093645636419E-100
   58.6743750000000        -2.504033984866581E-100
   58.8881250000000        -2.215799977498267E-100
   59.1018750000000        -5.129281959883376E-101
   59.3156250000000         3.482127385846518E-100
   59.5293750000000         1.059735080752543E-099
   59.7431250000000         2.116509376110623E-099
   59.9568750000000         3.429420877115331E-099
   60.1706250000000         4.687694149754155E-099
   60.3843750000000         5.248741975041295E-099
   60.5981250000000         4.055280591690375E-099
   60.8118750000000        -3.523268436132026E-100
   61.0256250000000        -9.628600419303929E-099
   61.2393750000000        -2.509847601542322E-098
   61.4531250000000        -4.680246096334500E-098
   61.6668750000000        -7.206582733594194E-098
   61.8806250000000        -9.370660243934526E-098
   62.0943750000000        -9.827773504838618E-098
   62.3081250000000        -6.514408201128674E-098
   62.5218750000000         3.232025568954161E-098
   62.7356250000000         2.216900730135532E-097
   62.9493750000000         5.207215415332325E-097
   63.1631250000000         9.194587773146010E-097
   63.3768750000000         1.355380952133999E-096
   63.5906250000000         1.684852202124241E-096
   63.8043750000000         1.659009390417394E-096
   64.0181250000000         9.186275465609206E-097
   64.2318750000000        -9.706839976593214E-097
   64.4456250000000        -4.416781632827896E-096
   64.6593750000000        -9.607725350986259E-096
   64.8731250000000        -1.621431414754589E-095
   65.0868750000000        -2.300548976851666E-095
   65.3006250000000        -2.744547047550801E-095
   65.5143750000000        -2.541585431759983E-095
   65.7281250000000        -1.129485695031976E-095
   65.9418750000000         2.129213170971969E-095
   66.1556250000000         7.770033618880704E-095
   66.3693750000000         1.591885585309691E-094
   66.5831250000000         2.584951794838956E-094
   66.7968750000000         3.545081704086682E-094
   67.0106250000000         4.072324658087149E-094
   67.2243750000000         3.552631884023878E-094
   67.4381250000000         1.190580809482117E-094
   67.6518750000000        -3.858742701171251E-094
   67.8656250000000        -1.221741820726629E-093
   68.0793750000000        -2.384597868379379E-093
   68.2931250000000        -3.745125883124762E-093
   68.5068750000000        -4.982259693546199E-093
   68.7206250000000        -5.527787906303788E-093
   68.9343750000000        -4.552167040994463E-093
   69.1481250000000        -1.033338966374528E-093
   69.3618750000000         6.043272974170165E-093
   69.5756250000000         1.731105533035420E-092
   69.7893750000000         3.245820715774851E-092
   70.0031250000000         4.951115047341692E-092
   70.2168750000000         6.409018347553008E-092
   70.4306250000000         6.887878273350659E-092
   70.6443750000000         5.367711712753954E-092
   70.8581250000000         6.516696606953106E-093
   71.0718750000000        -8.365999046955933E-092
   71.2856250000000        -2.223787751698919E-091
   71.4993750000000        -4.030610537273083E-091
   71.7131250000000        -5.991572609720903E-091
   71.9268750000000        -7.566333213155262E-091
   72.1406250000000        -7.896807761693459E-091
   72.3543750000000        -5.837483249007183E-091
   72.5681250000000        -1.080363154044327E-092
   72.7818750000000         1.038479659204351E-090
   72.9956250000000         2.602893703743362E-090
   73.2093750000000         4.580975795883289E-090
   73.4231250000000         6.652535867414990E-090
   73.6368750000000         8.210687411407005E-090
   73.8506250000000         8.335195724305557E-090
   74.0643750000000         5.848212483748693E-090
   74.2781250000000        -5.019990990576831E-091
   74.4918750000000        -1.169080655731191E-089
   74.7056250000000        -2.788702184082182E-089
   74.9193750000000        -4.777802007047534E-089
   75.1331250000000        -6.785922433262972E-089
   75.3468750000000        -8.189075688193319E-089
   75.5606250000000        -8.082196915046390E-089
   75.7743750000000        -5.355789354365824E-089
   75.9881250000000         1.105152727475167E-089
   76.2018750000000         1.207293773938676E-088
   76.4156250000000         2.748055362548068E-088
   76.6293750000000         4.582542210954653E-088
   76.8431250000000         6.358946941314644E-088
   77.0568750000000         7.487019190044496E-088
   77.2706250000000         7.149091269014621E-088
   77.4843750000000         4.389955070768321E-088
   77.6981250000000        -1.686221634019654E-088
   77.9118750000000        -1.159734892873594E-087
   78.1256250000000        -2.505646534402630E-087
   78.3393750000000        -4.049286485550180E-087
   78.5531250000000        -5.463363362884566E-087
   78.7668750000000        -6.231756741236431E-087
   78.9806250000000        -5.676068919131806E-087
   79.1943750000000        -3.050393865280509E-087
   79.4081250000000         2.277940911177907E-087
   79.6218750000000         1.055842458454371E-086
   79.8356250000000         2.132050104818029E-086
   80.0493750000000         3.302817592930061E-086
   80.2631250000000         4.282700884158639E-086
   80.4768750000000         4.652442629395553E-086
   80.6906250000000         3.896747032479211E-086
   80.9043750000000         1.496962131852155E-086
   81.1181250000000        -2.913022091173696E-086
   81.3318750000000        -9.333478981948127E-086
   81.5456250000000        -1.715587209853132E-085
   81.7593750000000        -2.494596968423220E-085
   81.9731250000000        -3.033832666670611E-085
   82.1868750000000        -3.015004509399305E-085
   82.4006250000000        -2.082559959602063E-085
   82.6143750000000         7.043969253892205E-087
   82.8281250000000         3.574251592120738E-085
   83.0418750000000         8.224245671128623E-085
   83.2556250000000         1.332239957146570E-084
   83.4693750000000         1.756876279866558E-084
   83.6831250000000         1.907152799278980E-084
   83.8968750000000         1.555337184960221E-084
   84.1106250000000         4.822093516142916E-085
   84.3243750000000        -1.446449427944395E-084
   84.5381250000000        -4.178342676528805E-084
   84.7518750000000        -7.363620450888882E-084
   84.9656250000000        -1.026363444215158E-083
   85.1793750000000        -1.172280629319932E-083
   85.3931250000000        -1.025677174117148E-083
   85.6068750000000        -4.309618131397057E-084
   85.8206250000000         7.284469109971114E-084
   86.0343750000000         2.464085311056886E-083
   86.2481250000000         4.603894521096452E-083
   86.4618750000000         6.717696951753754E-083
   86.6756250000000         8.073587657407360E-083
   86.8893750000000         7.661179781973932E-083
   87.1031250000000         4.321645791676641E-083
   87.3168750000000        -2.981314209945937E-083
   87.5306250000000        -1.473606214765022E-082
   87.7443750000000        -3.032890847066447E-082
   87.9581250000000        -4.744561842154253E-082
   88.1718750000000        -6.158597406780952E-082
   88.3856250000000        -6.592390443845938E-082
   88.5993750000000        -5.180096950543777E-082
   88.8131250000000        -1.014587941516471E-082
   89.0268750000000         6.596881045995663E-082
   89.2406250000000         1.776239974172559E-081
   89.4543750000000         3.155406584684565E-081
   89.6681250000000         4.555697875835080E-081
   89.8818750000000         5.555600444647278E-081
   90.0956250000000         5.555071556205049E-081
   90.3093750000000         3.832091724665013E-081
   90.5231250000000        -3.247386342007705E-082
   90.7368750000000        -7.394900034150245E-081
   90.9506250000000        -1.732096222008169E-080
   91.1643750000000        -2.915295302645541E-080
   91.3781250000000        -4.071224501186268E-080
   91.5918750000000        -4.838647301495520E-080
   91.8056250000000        -4.720341911280684E-080
   92.0193750000000        -3.134954772459155E-080
   92.2331250000000         4.719356613590543E-081
   92.4468750000000         6.450039409780654E-080
   92.6606250000000         1.470645800184154E-079
   92.8743750000000         2.443566383264152E-079
   93.0881250000000         3.387267714890351E-079
   93.3018750000000         4.015412741607767E-079
   93.5156250000000         3.939635699574988E-079
   93.7293750000000         2.710936361333720E-079
   93.9431250000000        -9.518717612215279E-081
   94.1568750000000        -4.745341084644777E-079
   94.3706250000000        -1.117247402554604E-078
   94.5843750000000        -1.877900513914529E-078
   94.7981250000000        -2.625923809645312E-078
   95.0118750000000        -3.150151462571405E-078
   95.2256250000000        -3.164665178844408E-078
   95.4393750000000        -2.338454843026941E-078
   95.6531250000000        -3.557435352491512E-079
   95.8668750000000         2.990172036819989E-078
   96.0806250000000         7.673905310889452E-078
   96.2943750000000         1.330052255126112E-077
   96.5081250000000         1.898114374966782E-077
   96.7218750000000         2.326227746417321E-077
   96.9356250000000         2.415992975669220E-077
   97.1493750000000         1.935269710301651E-077
   97.3631250000000         6.578959762445198E-078
   97.5768750000000        -1.574289243940488E-077
   97.7906250000000        -4.769873812240625E-077
   98.0043750000000        -8.696158262652360E-077
   98.2181250000000        -1.279481754043911E-076
   98.4318750000000        -1.613078195620544E-076
   98.6456250000000        -1.740671691619074E-076
   98.8593750000000        -1.507754149440725E-076
   99.0731250000000        -7.593942323569405E-077
   99.2868750000000         6.212073485079750E-077
   99.5006250000000         2.661475456521510E-076
   99.7143750000000         5.241080978215460E-076
   99.9281250000000         8.036887231960563E-076
   100.141875000000         1.048674365499913E-075
   100.355625000000         1.179167507599328E-075
   100.569375000000         1.097744535249230E-075
   100.783125000000         7.033530057021852E-076
   100.996875000000        -8.614526253932976E-077
   101.210625000000        -1.303491631794527E-075
   101.424375000000        -2.896631663641871E-075
   101.638125000000        -4.694261675439273E-075
   101.851875000000        -6.381136023224812E-075
   102.065625000000        -7.494365364564589E-075
   102.279375000000        -7.452945095610664E-075
   102.493125000000        -5.631368794140159E-075
   102.706875000000        -1.483472397946914E-075
   102.920625000000         5.286002695807022E-075
   103.134375000000         1.451725333957226E-074
   103.348125000000         2.538943430085237E-074
   103.561875000000         3.626017468406212E-074
   103.775625000000         4.461194756350334E-074
   103.989375000000         4.717358587687129E-074
   104.203125000000         4.027982257121244E-074
   104.416875000000         2.050893565436932E-074
   104.630625000000        -1.440512511006617E-074
   104.844375000000        -6.445481017605911E-074
   105.058125000000        -1.261860663333084E-073
   105.271875000000        -1.917101913154426E-073
   105.485625000000        -2.482188593209870E-073
   105.699375000000        -2.783661374898786E-073
   105.913125000000        -2.618666796374959E-073
   106.126875000000        -1.785583918474537E-073
   106.340625000000        -1.297127573966811E-074
   106.554375000000         2.398731234679101E-073
   106.768125000000         5.681176904444871E-073
   106.981875000000         9.373239480417094E-073
   107.195625000000         1.286890812827002E-072
   107.409375000000         1.530484282076130E-072
   107.623125000000         1.562330557862631E-072
   107.836875000000         1.270825780083678E-072
   108.050625000000         5.600069001115521E-073
   108.264375000000        -6.220301465145574E-073
   108.478125000000        -2.250625646654717E-072
   108.691875000000        -4.193064218618014E-072
   108.905625000000        -6.185375369655136E-072
   109.119375000000        -7.826327804750199E-072
   109.333125000000        -8.597974895922529E-072
   109.546875000000        -7.920766218451550E-072
   109.760625000000        -5.247565217840087E-072
   109.974375000000        -1.946305127548505E-073
   110.188125000000         7.301114565856454E-072
   110.401875000000         1.681963372895484E-071
   110.615625000000         2.732195182318269E-071
   110.829375000000         3.708156200990364E-071
   111.043125000000         4.372791616497316E-071
   111.256875000000         4.444360510032926E-071
   111.470625000000         3.634348462264821E-071
   111.684375000000         1.703888273656165E-071
   111.898125000000        -1.464680955275015E-071
   112.111875000000        -5.789090110979098E-071
   112.325625000000        -1.091420206932554E-070
   112.539375000000        -1.616229973156211E-070
   112.753125000000        -2.052691752870878E-070
   112.966875000000        -2.273052242481170E-070
   113.180625000000        -2.136222206108281E-070
   113.394375000000        -1.510251949352005E-070
   113.608125000000        -3.027663998167161E-071
   113.821875000000         1.503296808678212E-070
   114.035625000000         3.813491811269369E-070
   114.249375000000         6.392203735518095E-070
   114.463125000000         8.848176172405051E-070
   114.676875000000         1.064452765111286E-069
   114.890625000000         1.114164592452272E-069
   115.104375000000         9.678416298278388E-070
   115.318125000000         5.692032848254043E-070
   115.531875000000        -1.130755814841457E-070
   115.745625000000        -1.068715906225948E-069
   115.959375000000        -2.230242309492352E-069
   116.173125000000        -3.461885520294385E-069
   116.386875000000        -4.556964252098577E-069
   116.600625000000        -5.247740182063347E-069
   116.814375000000        -5.230993853789038E-069
   117.028125000000        -4.210909608478004E-069
   117.241875000000        -1.958233583602793E-069
   117.455625000000         1.618809912086048E-069
   117.669375000000         6.400380629291229E-069
   117.883125000000         1.199023358083788E-068
   118.096875000000         1.767615308773132E-068
   118.310625000000         2.243316313594909E-068
   118.524375000000         2.498617989830690E-068
   118.738125000000         2.394447633616845E-068
   118.951875000000         1.801207545752702E-068
   119.165625000000         6.265930100065424E-069
   119.379375000000        -1.152186500109657E-068
   119.593125000000        -3.455904628750551E-068
   119.806875000000        -6.076346032387200E-068
   120.020625000000        -8.661987094666573E-068
   120.234375000000        -1.072399949792189E-067
   120.448125000000        -1.166963649297820E-067
   120.661875000000        -1.086794815136860E-067
   120.875625000000        -7.748939240620997E-068
   121.089375000000        -1.931733092813409E-068
   121.303125000000         6.629660302139948E-068
   121.516875000000         1.750208444450980E-067
   121.730625000000         2.965698946624250E-067
   121.944375000000         4.141434655384644E-067
   122.158125000000         5.048107223060240E-067
   122.371875000000         5.411529782540823E-067
   122.585625000000         4.943802382893815E-067
   122.799375000000         3.389610852152047E-067
   123.013125000000         5.855103385144758E-068
   123.226875000000        -3.473152375357506E-067
   123.440625000000        -8.566573543014133E-067
   123.654375000000        -1.419839479864235E-066
   123.868125000000        -1.957209797775628E-066