  -1.60312500000000         0.000000000000000E+000
  -1.38937500000000        -7.840498969876603E-013
  -1.17562500000000        -5.477139506878969E-012
 -0.961875000000000        -2.617265402969759E-011
 -0.748125000000000        -1.008219265970949E-010
 -0.534375000000000        -3.261688368124337E-010
 -0.320625000000000        -9.017075743395936E-010
 -0.106875000000000        -2.160553566964794E-009
  0.106875000000000        -4.550817172627033E-009
  0.320625000000000        -8.550892890854851E-009
  0.534375000000000        -1.456118567828094E-008
  0.748125000000000        -2.281413451669220E-008
  0.961875000000000        -3.331536668502877E-008
   1.17562500000000        -4.593575397703087E-008
   1.38937500000000        -6.046030732837001E-008
   1.60312500000000        -7.650998687978926E-008
   1.81687500000000        -9.362083827528627E-008
   2.03062500000000        -1.112853655135224E-007
   2.24437500000000        -1.279490686583927E-007
   2.45812500000000        -1.452313466278082E-007
   2.67187500000000        -1.607699302466882E-007
   2.88562500000000        -1.768328442452638E-007
   3.09937500000000        -1.920976754827711E-007
   3.31312500000000        -2.058206581271832E-007
   3.52687500000000        -2.182107503422937E-007
   3.74062500000000        -2.295005033420496E-007
   3.95437500000000        -2.397604054707748E-007
   4.16812500000000        -2.490027017070731E-007
   4.38187500000000        -2.566786610459968E-007
   4.59562500000000        -2.626366795236669E-007
   4.80937500000000        -2.669242709111873E-007
   5.02312500000000        -2.692525269652315E-007
   5.23687500000000        -2.688959998446401E-007
   5.45062500000000        -2.656664763263409E-007
   5.66437500000000        -2.593610845332511E-007
   5.87812500000000        -2.500555327755606E-007
   6.09187500000000        -2.380128461271122E-007
   6.30562500000000        -2.234851013364484E-007
   6.51937500000000        -2.067488515713757E-007
   6.73312500000000        -1.901287994711726E-007
   6.94687500000000        -1.726159606697619E-007
   7.16062500000000        -1.578473645453331E-007
   7.37437500000000        -1.460564412199283E-007
   7.58812500000000        -1.377177077585391E-007
   7.80187500000000        -1.332096479327252E-007
   8.01562500000000        -1.325046668983062E-007
   8.22937500000000        -1.351792577868449E-007
   8.44312500000000        -1.405138055887897E-007
   8.65687500000000        -1.475194343308133E-007
   8.87062500000000        -1.550153285556407E-007
   9.08437500000000        -1.619846356720534E-007
   9.29812500000000        -1.672682427606489E-007
   9.51187500000000        -1.701678716032056E-007
   9.72562500000000        -1.695153508905007E-007
   9.93937500000000        -1.659236945143623E-007
   10.1531250000000        -1.598653913400971E-007
   10.3668750000000        -1.520142940407360E-007
   10.5806250000000        -1.434609130776504E-007
   10.7943750000000        -1.353536220867758E-007
   11.0081250000000        -1.288312089998031E-007
   11.2218750000000        -1.279617322102938E-007
   11.4356250000000        -1.271710242351716E-007
   11.6493750000000        -1.344804129792478E-007
   11.8631250000000        -1.391940940635090E-007
   12.0768750000000        -1.537148825150803E-007
   12.2906250000000        -1.629372134755221E-007
   12.5043750000000        -1.791400217399330E-007
   12.7181250000000        -1.879139908534118E-007
   12.9318750000000        -1.986333614559135E-007
   13.1456250000000        -2.016559940670253E-007
   13.3593750000000        -2.033947938924462E-007
   13.5731250000000        -2.013756303431776E-007
   13.7868750000000        -1.958398238926889E-007
   14.0006250000000        -1.873332647533527E-007
   14.2143750000000        -1.768337121368033E-007
   14.4281250000000        -1.656881519575611E-007
   14.6418750000000        -1.553938440081544E-007
   14.8556250000000        -1.472240141038497E-007
   15.0693750000000        -1.424069437149131E-007
   15.2831250000000        -1.412581177172142E-007
   15.4968750000000        -1.449461775842256E-007
   15.7106250000000        -1.531297534169457E-007
   15.9243750000000        -1.633497035579529E-007
   16.1381250000000        -1.747603975763782E-007
   16.3518750000000        -1.857128668430164E-007
   16.5656250000000        -1.949579421852414E-007
   16.7793750000000        -2.010640850179824E-007
   16.9931250000000        -2.026306316171603E-007
   17.2068750000000        -1.984672108791345E-007
   17.4206250000000        -1.853299237245664E-007
   17.6343750000000        -1.661028939035383E-007
   17.8481250000000        -1.513866143040230E-007
   18.0618750000000        -1.275664380980081E-007
   18.2756250000000        -1.122130773978683E-007
   18.4893750000000        -9.000835007989243E-008
   18.7031250000000        -7.395699848881400E-008
   18.9168750000000        -5.555417007236110E-008
   19.1306250000000        -3.809343162763920E-008
   19.3443750000000        -1.952083631479171E-008
   19.5581250000000         8.593531260455856E-010
   19.7718750000000         2.338801285811142E-008
   19.9856250000000         4.801519447392910E-008
   20.1993750000000         7.447311279218947E-008
   20.4131250000000         1.018396694261085E-007
   20.6268750000000         1.287811984650891E-007
   20.8406250000000         1.529818974440067E-007
   21.0543750000000         1.720876595919336E-007
   21.2681250000000         1.842379616424462E-007
   21.4818750000000         1.879513434331794E-007
   21.6956250000000         1.808684975016802E-007
   21.9093750000000         1.628067632204660E-007
   22.1231250000000         1.341743568853358E-007
   22.3368750000000         9.629640468713931E-008
   22.5506250000000         5.145794080494728E-008
   22.7643750000000         2.504550629902743E-009
   22.9781250000000        -4.704939151234846E-008
   23.1918750000000        -9.400065081673084E-008
   23.4056250000000        -1.358645651472762E-007
   23.6193750000000        -1.706231951338448E-007
   23.8331250000000        -1.973511562128226E-007
   24.0468750000000        -2.157838211864876E-007
   24.2606250000000        -2.264536411823044E-007
   24.4743750000000        -2.302016651721003E-007
   24.6881250000000        -2.284603525778749E-007
   24.9018750000000        -2.228817972283062E-007
   25.1156250000000        -2.151391221874296E-007
   25.3293750000000        -2.067092359106050E-007
   25.5431250000000        -1.968964031312392E-007
   25.7568750000000        -1.886313159063374E-007
   25.9706250000000        -1.822422486428026E-007
   26.1843750000000        -1.812016684034891E-007
   26.3981250000000        -1.738225237572962E-007
   26.6118750000000        -1.745219390975665E-007
   26.8256250000000        -1.675311011988338E-007
   27.0393750000000        -1.683375948510189E-007
   27.2531250000000        -1.638622043869184E-007
   27.4668750000000        -1.628448391665728E-007
   27.6806250000000        -1.648767180650924E-007
   27.8943750000000        -1.697581025635743E-007
   28.1081250000000        -1.769617121719031E-007
   28.3218750000000        -1.870229716213502E-007
   28.5356250000000        -1.984761353263338E-007
   28.7493750000000        -2.098441042217301E-007
   28.9631250000000        -2.192750265020122E-007
   29.1768750000000        -2.250110520227709E-007
   29.3906250000000        -2.253000975068315E-007
   29.6043750000000        -2.189370954408688E-007
   29.8181250000000        -2.056276925771353E-007
   30.0318750000000        -1.856158256787571E-007
   30.2456250000000        -1.582118659969784E-007
   30.4593750000000        -1.272161359525808E-007
   30.6731250000000        -9.354740603753865E-008
   30.8868750000000        -5.935769546575439E-008
   31.1006250000000        -2.684310832437843E-008
   31.3143750000000         2.190449700905914E-009
   31.5281250000000         2.647928504116400E-008
   31.7418750000000         4.557161926205880E-008
   31.9556250000000         5.979939645280036E-008
   32.1693750000000         7.027816577378795E-008
   32.3831250000000         7.871065673774274E-008
   32.5968750000000         8.693287205272624E-008
   32.8106250000000         9.727386981199924E-008
   33.0243750000000         1.113368891317348E-007
   33.2381250000000         1.300631568360510E-007
   33.4518750000000         1.535455248449814E-007
   33.6656250000000         1.808853106636638E-007
   33.8793750000000         2.102736301891571E-007
   34.0931250000000         2.391429339607432E-007
   34.3068750000000         2.644393695782097E-007
   34.5206250000000         2.829102366543137E-007
   34.7343750000000         2.920752215338690E-007
   34.9481250000000         2.899518901642551E-007
   35.1618750000000         2.752951903278000E-007
   35.3756250000000         2.480949659591206E-007
   35.5893750000000         2.096875577683498E-007
   35.8031250000000         1.624091829595965E-007
   36.0168750000000         1.095782543008662E-007
   36.2306250000000         5.474930835973733E-008
   36.4443750000000         1.441757143510678E-009
   36.6581250000000        -4.707529306420127E-008
   36.8718750000000        -9.188723311544894E-008
   37.0856250000000        -1.203048934878923E-007
   37.2993750000000        -1.423552036815040E-007
   37.5131250000000        -1.509623838684121E-007
   37.7268750000000        -1.591649620953850E-007
   37.9406250000000        -1.505704865685443E-007
   38.1543750000000        -1.392164332716125E-007
   38.3681250000000        -1.239310853456001E-007
   38.5818750000000        -1.056483861579371E-007
   38.7956250000000        -8.491912467924252E-008
   39.0093750000000        -6.178982904196290E-008
   39.2231250000000        -3.563631909177092E-008
   39.4368750000000        -5.552037399813907E-009
   39.6506250000000         3.207739595541748E-008
   39.8643750000000         6.884379118096136E-008
   40.0781250000000         1.077815982638360E-007
   40.2918750000000         1.468342317092765E-007
   40.5056250000000         1.826868861189010E-007
   40.7193750000000         2.128802059274221E-007
   40.9331250000000         2.313487980288386E-007
   41.1468750000000         2.460859561585050E-007
   41.3606250000000         2.428157762752728E-007
   41.5743750000000         2.273387406569044E-007
   41.7881250000000         2.002756356685813E-007
   42.0018750000000         1.629093291216118E-007
   42.2156250000000         1.178768901716617E-007
   42.4293750000000         6.872370004272548E-008
   42.6431250000000         1.917505782612460E-008
   42.8568750000000        -2.851242864153698E-008
   43.0706250000000        -6.039076411860488E-008
   43.2843750000000        -8.466311944676211E-008
   43.4981250000000        -8.993272543379502E-008
   43.7118750000000        -8.165549760731721E-008
   43.9256250000000        -6.060866040657675E-008
   44.1393750000000        -2.879242362170304E-008
   44.3531250000000         1.079214281164324E-008
   44.5668750000000         5.449116237031990E-008
   44.7806250000000         9.869140796846345E-008
   44.9943750000000         1.401831863540308E-007
   45.2081250000000         1.763924141053631E-007
   45.4218750000000         2.057517641797836E-007
   45.6356250000000         2.276162444189606E-007
   45.8493750000000         2.422376239072832E-007
   46.0631250000000         2.505371720059093E-007
   46.2768750000000         2.538321055824857E-007
   46.4906250000000         2.534161912350786E-007
   46.7043750000000         2.505175717886797E-007
   46.9181250000000         2.458396831413223E-007
   47.1318750000000         2.397994166518069E-007
   47.3456250000000         2.311667021039754E-007
   47.5593750000000         2.173340159119874E-007
   47.7731250000000         2.014979663403782E-007
   47.9868750000000         1.789164002635980E-007
   48.2006250000000         1.566077215430675E-007
   48.4143750000000         1.257008661174902E-007
   48.6281250000000         9.496361387486077E-008
   48.8418750000000         6.272433726379770E-008
   49.0556250000000         3.366861642991587E-008
   49.2693750000000         5.984403194448799E-009
   49.4831250000000        -1.679914208980784E-008
   49.6968750000000        -3.243381913217496E-008
   49.9106250000000        -3.932046314516544E-008
   50.1243750000000        -3.646224666712407E-008
   50.3381250000000        -2.356643477773000E-008
   50.5518750000000        -7.688502807425154E-010
   50.7656250000000         3.450883628004214E-008
   50.9793750000000         7.087736074990770E-008
   51.1931250000000         1.164108451138759E-007
   51.4068750000000         1.577612232035465E-007
   51.6206250000000         2.042631736971937E-007
   51.8343750000000         2.417397161323712E-007
   52.0481250000000         2.811768775993403E-007
   52.2618750000000         3.086976265447252E-007
   52.4756250000000         3.343684412150777E-007
   52.6893750000000         3.526738288651497E-007
   52.9031250000000         3.641048015190193E-007
   53.1168750000000         3.715456447151791E-007
   53.3306250000000         3.740294836365314E-007
   53.5443750000000         3.726392049599871E-007
   53.7581250000000         3.678406811022752E-007
   53.9718750000000         3.602007974025810E-007
   54.1856250000000         3.502609147114188E-007
   54.3993750000000         3.387463792958533E-007
   54.6131250000000         3.264619895686873E-007
   54.8268750000000         3.143527349876630E-007
   55.0406250000000         3.034609828369914E-007
   55.2543750000000         2.948645525295560E-007
   55.4681250000000         2.895987419904884E-007
   55.6818750000000         2.885513138305289E-007
   55.8956250000000         2.922786979030641E-007
   56.1093750000000         3.010321455659814E-007
   56.3231250000000         3.148073904920258E-007
   56.5368750000000         3.324860309164399E-007
   56.7506250000000         3.515776030201736E-007
   56.9643750000000         3.732991480751978E-007
   57.1781250000000         3.953517123278446E-007
   57.3918750000000         4.160397546280485E-007
   57.6056250000000         4.337370395837369E-007
   57.8193750000000         4.471689839930305E-007
   58.0331250000000         4.552353229040191E-007
   58.2468750000000         4.575049952995405E-007
   58.4606250000000         4.539347248601922E-007
   58.6743750000000         4.449713139668583E-007
   58.8881250000000         4.283313360314593E-007
   59.1018750000000         4.116836036113493E-007
   59.3156250000000         3.869652199156059E-007
   59.5293750000000         3.658524086765585E-007
   59.7431250000000         3.438702516786714E-007
   59.9568750000000         3.236538219884376E-007
   60.1706250000000         3.066944883928704E-007
   60.3843750000000         2.925343683516901E-007
   60.5981250000000         2.818575016143539E-007
   60.8118750000000         2.746129066018294E-007
   61.0256250000000         2.739010803332515E-007
   61.2393750000000         2.683291963204801E-007
   61.4531250000000         2.732075684642552E-007
   61.6668750000000         2.764364791645059E-007
   61.8806250000000         2.797875570269325E-007
   62.0943750000000         2.843216238175899E-007
   62.3081250000000         2.901333655778440E-007
   62.5218750000000         2.979258305926592E-007
   62.7356250000000         3.065248225195166E-007
   62.9493750000000         3.191957479949391E-007
   63.1631250000000         3.253356005635954E-007
   63.3768750000000         3.331876400436226E-007
   63.5906250000000         3.335855772724407E-007
   63.8043750000000         3.299042949778753E-007
   64.0181250000000         3.258819434621484E-007
   64.2318750000000         3.110565896264543E-007
   64.4456250000000         2.911194819923255E-007
   64.6593750000000         2.679501115749697E-007
   64.8731250000000         2.430216433716463E-007
   65.0868750000000         2.186957541031352E-007
   65.3006250000000         1.978813159173977E-007
   65.5143750000000         1.834353122722216E-007
   65.7281250000000         1.794408300078641E-007
   65.9418750000000         1.859574965720420E-007
   66.1556250000000         2.061009408202288E-007
   66.3693750000000         2.399573674841831E-007
   66.5831250000000         2.857225034806469E-007
   66.7968750000000         3.412068955791157E-007
   67.0106250000000         4.030845846519818E-007
   67.2243750000000         4.673793674690102E-007
   67.4381250000000         5.299853378437718E-007
   67.6518750000000         5.911934425760993E-007
   67.8656250000000         6.359796493467380E-007
   68.0793750000000         6.771154609611008E-007
   68.2931250000000         6.992198040907697E-007
   68.5068750000000         7.134816289853791E-007
   68.7206250000000         7.132617956129825E-007
   68.9343750000000         7.081080619979427E-007
   69.1481250000000         6.990706278415323E-007
   69.3618750000000         6.889924484312766E-007
   69.5756250000000         6.802406597526908E-007
   69.7893750000000         6.743569071186078E-007
   70.0031250000000         6.718615747053605E-007
   70.2168750000000         6.722004662005437E-007
   70.4306250000000         6.739639942652807E-007
   70.6443750000000         6.755802002941097E-007
   70.8581250000000         6.741624144741621E-007
   71.0718750000000         6.675168636328672E-007
   71.2856250000000         6.542854751887101E-007
   71.4993750000000         6.316503369180071E-007
   71.7131250000000         6.111847364135949E-007
   71.9268750000000         5.834228559172981E-007
   72.1406250000000         5.606260719777195E-007
   72.3543750000000         5.371447088582366E-007
   72.5681250000000         5.254630659636356E-007
   72.7818750000000         5.236263023859256E-007
   72.9956250000000         5.299404472865742E-007
   73.2093750000000         5.493628940026831E-007
   73.4231250000000         5.799855693608139E-007
   73.6368750000000         6.175068736243112E-007
   73.8506250000000         6.583336642119595E-007
   74.0643750000000         6.982274671274892E-007
   74.2781250000000         7.328200316534070E-007
   74.4918750000000         7.583454016369613E-007
   74.7056250000000         7.721471810106466E-007
   74.9193750000000         7.731626698242003E-007
   75.1331250000000         7.604065240734728E-007
   75.3468750000000         7.314497801573227E-007
   75.5606250000000         7.011439018049720E-007
   75.7743750000000         6.605637019859864E-007
   75.9881250000000         6.241620634887944E-007
   76.2018750000000         5.922747051481238E-007
   76.4156250000000         5.700046032353024E-007
   76.6293750000000         5.557065284629857E-007
   76.8431250000000         5.512159636166990E-007
   77.0568750000000         5.560298885319215E-007
   77.2706250000000         5.684777915480440E-007
   77.4843750000000         5.862433174901135E-007
   77.6981250000000         6.119234632567974E-007
   77.9118750000000         6.298867434071560E-007
   78.1256250000000         6.521577893297089E-007
   78.3393750000000         6.603626694016932E-007
   78.5531250000000         6.712459152758926E-007
   78.7668750000000         6.671326843544822E-007
   78.9806250000000         6.666421207274733E-007
   79.1943750000000         6.558083176695210E-007
   79.4081250000000         6.466353812703169E-007
   79.6218750000000         6.387322616049521E-007
   79.8356250000000         6.353932854878307E-007
   80.0493750000000         6.362881536247285E-007
   80.2631250000000         6.416552462556927E-007
   80.4768750000000         6.504596555315134E-007
   80.6906250000000         6.612486543248983E-007
   80.9043750000000         6.722519223236204E-007
   81.1181250000000         6.771956509822572E-007
   81.3318750000000         6.847344557568765E-007
   81.5456250000000         6.842413387623204E-007
   81.7593750000000         6.827464058603321E-007
   81.9731250000000         6.758252004468051E-007
   82.1868750000000         6.607339820981249E-007
   82.4006250000000         6.499312697535084E-007
   82.6143750000000         6.363043258355913E-007
   82.8281250000000         6.268333634977912E-007
   83.0418750000000         6.211576057026535E-007
   83.2556250000000         6.221492347236357E-007
   83.4693750000000         6.299291054581234E-007
   83.6831250000000         6.457387808925917E-007
   83.8968750000000         6.702889344554260E-007
   84.1106250000000         7.056619403003404E-007
   84.3243750000000         7.415852049445227E-007
   84.5381250000000         7.870660113509177E-007
   84.7518750000000         8.277099646278614E-007
   84.9656250000000         8.675551611028618E-007
   85.1793750000000         9.023923304318250E-007
   85.3931250000000         9.311280905168873E-007
   85.6068750000000         9.496392896561427E-007
   85.8206250000000         9.654491327451254E-007
   86.0343750000000         9.710064457385885E-007
   86.2481250000000         9.750259846097794E-007
   86.4618750000000         9.774450128445174E-007
   86.6756250000000         9.800925911099056E-007
   86.8893750000000         9.851797510503335E-007
   87.1031250000000         9.879351944628907E-007
   87.3168750000000         1.006415212845404E-006
   87.5306250000000         1.024284653545133E-006
   87.7443750000000         1.059124605181090E-006
   87.9581250000000         1.093295334192721E-006
   88.1718750000000         1.138836555347212E-006
   88.3856250000000         1.185349962198670E-006
   88.5993750000000         1.229276463182573E-006
   88.8131250000000         1.267515322793855E-006
   89.0268750000000         1.296851150128273E-006
   89.2406250000000         1.314301443279221E-006
   89.4543750000000         1.318134445177528E-006
   89.6681250000000         1.307682662934730E-006
   89.8818750000000         1.283543391522274E-006
   90.0956250000000         1.247643977074626E-006
   90.3093750000000         1.202236093667865E-006
   90.5231250000000         1.150820658675700E-006
   90.7368750000000         1.097259512217203E-006
   90.9506250000000         1.045158978953786E-006
   91.1643750000000         9.979110505398555E-007
   91.3781250000000         9.577923805553583E-007
   91.5918750000000         9.259809043442466E-007
   91.8056250000000         9.025828268203809E-007
   92.0193750000000         8.864313115011664E-007
   92.2331250000000         8.756885890286193E-007
   92.4468750000000         8.680270946703978E-007
   92.6606250000000         8.611054436948915E-007
   92.8743750000000         8.530891620850016E-007
   93.0881250000000         8.429025071270054E-007
   93.3018750000000         8.306139589137245E-007
   93.5156250000000         8.175359602966430E-007
   93.7293750000000         8.048387385452434E-007
   93.9431250000000         7.967118519829861E-007
   94.1568750000000         7.937136184057109E-007
   94.3706250000000         7.989432431513779E-007
   94.5843750000000         8.145278606034191E-007
   94.7981250000000         8.406631620008153E-007
   95.0118750000000         8.769198891243283E-007
   95.2256250000000         9.205422206064275E-007
   95.4393750000000         9.683170687313805E-007
   95.6531250000000         1.016032219256681E-006
   95.8668750000000         1.061567593644976E-006
   96.0806250000000         1.091780382688958E-006
   96.2943750000000         1.110967558223105E-006
   96.5081250000000         1.116927730004638E-006
   96.7218750000000         1.110081601677400E-006
   96.9356250000000         1.092108532919196E-006
   97.1493750000000         1.066273829449574E-006
   97.3631250000000         1.037437487274649E-006
   97.5768750000000         1.009213159560241E-006
   97.7906250000000         9.890892770612870E-007
   98.0043750000000         9.815068377772586E-007
   98.2181250000000         9.896388373110794E-007
   98.4318750000000         1.014330957472951E-006
   98.6456250000000         1.054579706957838E-006
   98.8593750000000         1.108045282658353E-006
   99.0731250000000         1.170177009565754E-006
   99.2868750000000         1.236155006583715E-006
   99.5006250000000         1.304779737207320E-006
   99.7143750000000         1.359247907639024E-006
   99.9281250000000         1.408125256171724E-006
   100.141875000000         1.435293281548612E-006
   100.355625000000         1.449397681141547E-006
   100.569375000000         1.446943399623125E-006
   100.783125000000         1.431651064904185E-006
   100.996875000000         1.409275500581423E-006
   101.210625000000         1.383917127443908E-006
   101.424375000000         1.360218334247970E-006
   101.638125000000         1.342084432538967E-006
   101.851875000000         1.332245638748251E-006
   102.065625000000         1.328569067478316E-006
   102.279375000000         1.338495468232709E-006
   102.493125000000         1.351773895456428E-006
   102.706875000000         1.375869803790082E-006
   102.920625000000         1.399790271889484E-006
   103.134375000000         1.420445576153027E-006
   103.348125000000         1.435453138954476E-006
   103.561875000000         1.444154447327448E-006
   103.775625000000         1.444929865373254E-006
   103.989375000000         1.438563139401088E-006
   104.203125000000         1.426938731505275E-006
   104.416875000000         1.413711063644706E-006
   104.630625000000         1.402509346448474E-006
   104.844375000000         1.396700161219277E-006
   105.058125000000         1.398822632573284E-006
   105.271875000000         1.410215249832547E-006
   105.485625000000         1.429611317140890E-006
   105.699375000000         1.455714731880808E-006
   105.913125000000         1.484444512496890E-006
   106.126875000000         1.511277930668063E-006
   106.340625000000         1.531690878657488E-006
   106.554375000000         1.541574241405398E-006
   106.768125000000         1.537912572042568E-006
   106.981875000000         1.519920027969647E-006
   107.195625000000         1.488636825963364E-006
   107.409375000000         1.447112924801319E-006
   107.623125000000         1.400193742987077E-006
   107.836875000000         1.353676015137583E-006
   108.050625000000         1.313650958599179E-006
   108.264375000000         1.285452304061675E-006
   108.478125000000         1.274516611022184E-006
   108.691875000000         1.284330399722244E-006
   108.905625000000         1.309690741162171E-006
   109.119375000000         1.351054511610802E-006
   109.333125000000         1.402606811486664E-006
   109.546875000000         1.457965756759552E-006
   109.760625000000         1.510550432967949E-006
   109.974375000000         1.553025104402124E-006
   110.188125000000         1.580291703617245E-006
   110.401875000000         1.589615035386182E-006
   110.615625000000         1.580286762202552E-006
   110.829375000000         1.554100720374764E-006
   111.043125000000         1.515248683018838E-006
   111.256875000000         1.474997221514022E-006
   111.470625000000         1.425301159815625E-006
   111.684375000000         1.383779070213241E-006
   111.898125000000         1.359768799120651E-006
   112.111875000000         1.341944717072781E-006
   112.325625000000         1.343135541280764E-006
   112.539375000000         1.360887755728060E-006
   112.753125000000         1.390603786957398E-006
   112.966875000000         1.429729962090387E-006
   113.180625000000         1.472611066284033E-006
   113.394375000000         1.514199746231727E-006
   113.608125000000         1.550339639802003E-006
   113.821875000000         1.578397452315479E-006
   114.035625000000         1.597043029375567E-006
   114.249375000000         1.607354225088693E-006
   114.463125000000         1.612045574066594E-006
   114.676875000000         1.614852692369946E-006
   114.890625000000         1.619867496952377E-006
   115.104375000000         1.630846580004802E-006
   115.318125000000         1.650529408982927E-006
   115.531875000000         1.680057895317742E-006
   115.745625000000         1.718821677423244E-006
   115.959375000000         1.764408444316494E-006
   116.173125000000         1.812984749724382E-006
   116.386875000000         1.859822056612696E-006
   116.600625000000         1.900013732855883E-006
   116.814375000000         1.929212030826660E-006
   117.028125000000         1.944343272944684E-006
   117.241875000000         1.944742812211782E-006
   117.455625000000         1.930415040107914E-006
   117.669375000000         1.903235097586371E-006
   117.883125000000         1.867365909704136E-006
   118.096875000000         1.828638800506317E-006
   118.310625000000         1.792094353757922E-006
   118.524375000000         1.762833433363976E-006
   118.738125000000         1.744783113728077E-006
   118.951875000000         1.740372407733243E-006
   119.165625000000         1.749667547900328E-006
   119.379375000000         1.773298900697759E-006
   119.593125000000         1.807894004279617E-006
   119.806875000000         1.849486676845785E-006
   120.020625000000         1.893456497475389E-006
   120.234375000000         1.935122405599459E-006
   120.448125000000         1.970863511157860E-006
   120.661875000000         1.998351532818055E-006
   120.875625000000         2.016673536067481E-006
   121.089375000000         2.025153150104132E-006
   121.303125000000         2.020241523024423E-006
   121.516875000000         2.005020118217472E-006
   121.730625000000         1.981005190459048E-006
   121.944375000000         1.951962217893957E-006
   122.158125000000         1.919979842179570E-006
   122.371875000000         1.887330683186806E-006
   122.585625000000         1.855654082325787E-006
   122.799375000000         1.826358680385666E-006
   123.013125000000         1.800468560000402E-006
   123.226875000000         1.779078113631127E-006
   123.440625000000         1.762578242412060E-006
   123.654375000000         1.751196691771055E-006
   123.868125000000         1.745340010487729E-006