  -1.60312500000000         0.000000000000000E+000
  -1.38937500000000         0.000000000000000E+000
  -1.17562500000000         0.000000000000000E+000
 -0.961875000000000         0.000000000000000E+000
 -0.748125000000000         0.000000000000000E+000
 -0.534375000000000         0.000000000000000E+000
 -0.320625000000000         0.000000000000000E+000
 -0.106875000000000         0.000000000000000E+000
  0.106875000000000         0.000000000000000E+000
  0.320625000000000         0.000000000000000E+000
  0.534375000000000         0.000000000000000E+000
  0.748125000000000         0.000000000000000E+000
  0.961875000000000         0.000000000000000E+000
   1.17562500000000         0.000000000000000E+000
   1.38937500000000         0.000000000000000E+000
   1.60312500000000         0.000000000000000E+000
   1.81687500000000         0.000000000000000E+000
   2.03062500000000         0.000000000000000E+000
   2.24437500000000         0.000000000000000E+000
   2.45812500000000         0.000000000000000E+000
   2.67187500000000         0.000000000000000E+000
   2.88562500000000         0.000000000000000E+000
   3.09937500000000         0.000000000000000E+000
   3.31312500000000         0.000000000000000E+000
   3.52687500000000         0.000000000000000E+000
   3.74062500000000         0.000000000000000E+000
   3.95437500000000         0.000000000000000E+000
   4.16812500000000         0.000000000000000E+000
   4.38187500000000         0.000000000000000E+000
   4.59562500000000         0.000000000000000E+000
   4.80937500000000         0.000000000000000E+000
   5.02312500000000         0.000000000000000E+000
   5.23687500000000         0.000000000000000E+000
   5.45062500000000         0.000000000000000E+000
   5.66437500000000         0.000000000000000E+000
   5.87812500000000         0.000000000000000E+000
   6.09187500000000         0.000000000000000E+000
   6.30562500000000         0.000000000000000E+000
   6.51937500000000         0.000000000000000E+000
   6.73312500000000         0.000000000000000E+000
   6.94687500000000         0.000000000000000E+000
   7.16062500000000         0.000000000000000E+000
   7.37437500000000         0.000000000000000E+000
   7.58812500000000         0.000000000000000E+000
   7.80187500000000         0.000000000000000E+000
   8.01562500000000         0.000000000000000E+000
   8.22937500000000         0.000000000000000E+000
   8.44312500000000         0.000000000000000E+000
   8.65687500000000         0.000000000000000E+000
   8.87062500000000         0.000000000000000E+000
   9.08437500000000         0.000000000000000E+000
   9.29812500000000         1.411271305590319E-203
   9.51187500000000         9.968161182445067E-190
   9.72562500000000         6.641218235736543E-187
   9.93937500000000         4.131292579594310E-185
   10.1531250000000         1.034090385787060E-182
   10.3668750000000         6.184817222290819E-181
   10.5806250000000         1.254293792448018E-179
   10.7943750000000         5.654798038218069E-180
   11.0081250000000        -4.419794143460576E-177
   11.2218750000000        -9.219278164768767E-176
   11.4356250000000        -8.825750938390456E-175
   11.6493750000000        -3.318408078040532E-174
   11.8631250000000        -2.029913900808553E-173
   12.0768750000000        -1.554061525385319E-171
   12.2906250000000        -4.402503000571227E-170
   12.5043750000000        -7.515580732733470E-169
   12.7181250000000        -9.363867325905721E-168
   12.9318750000000        -9.236493497534711E-167
   13.1456250000000        -7.552498366399121E-166
   13.3593750000000        -5.328825714495550E-165
   13.5731250000000        -3.442370081776816E-164
   13.7868750000000        -2.248320050563998E-163
   14.0006250000000        -1.647137423678394E-162
   14.2143750000000        -1.359854406641305E-161
   14.4281250000000        -1.155695976869141E-160
   14.6418750000000        -9.328431186553487E-160
   14.8556250000000        -6.893697824650380E-159
   15.0693750000000        -4.614906319520417E-158
   15.2831250000000        -2.795820906040360E-157
   15.4968750000000        -1.533983557199499E-156
   15.7106250000000        -7.613567926411310E-156
   15.9243750000000        -3.398066265826915E-155
   16.1381250000000        -1.342803964345640E-154
   16.3518750000000        -4.521922447873164E-154
   16.5656250000000        -1.157613592879653E-153
   16.7793750000000        -1.077094477255204E-153
   16.9931250000000         1.155991713825873E-152
   17.2068750000000         1.059556193359140E-151
   17.4206250000000         6.090363661880147E-151
   17.6343750000000         2.855873016905394E-150
   17.8481250000000         1.166931482895941E-149
   18.0618750000000         4.246780490400374E-149
   18.2756250000000         1.378995170514571E-148
   18.4893750000000         3.926508434421829E-148
   18.7031250000000         9.266394085033701E-148
   18.9168750000000         1.462738722825778E-147
   19.1306250000000        -9.287198230798662E-148
   19.3443750000000        -2.099751748260149E-146
   19.5581250000000        -1.172587890462590E-145
   19.7718750000000        -4.912382149709823E-145
   19.9856250000000        -1.766285263320149E-144
   20.1993750000000        -5.696596529105168E-144
   20.4131250000000        -1.678089392362513E-143
   20.6268750000000        -4.544394946992717E-143
   20.8406250000000        -1.129863717997742E-142
   21.0543750000000        -2.553945250674234E-142
   21.2681250000000        -5.122281489181600E-142
   21.4818750000000        -8.573678065181070E-142
   21.6956250000000        -9.626437510925280E-142
   21.9093750000000         4.336033111628877E-142
   22.1231250000000         6.931519087639768E-141
   22.3368750000000         2.704031104130235E-140
   22.5506250000000         7.763376760541882E-140
   22.7643750000000         1.853616629139753E-139
   22.9781250000000         3.762355919275901E-139
   23.1918750000000         6.305196581827108E-139
   23.4056250000000         7.646011424857920E-139
   23.6193750000000         2.107346244848200E-139
   23.8331250000000        -2.209838913364801E-138
   24.0468750000000        -7.955118596974488E-138
   24.2606250000000        -1.602325293039354E-137
   24.4743750000000        -1.312662461228777E-137
   24.6881250000000         5.290671463169083E-137
   24.9018750000000         3.323229305032238E-136
   25.1156250000000         1.181221241693594E-135
   25.3293750000000         3.305474763235274E-135
   25.5431250000000         7.816107866591290E-135
   25.7568750000000         1.576588030657033E-134
   25.9706250000000         2.606520951910495E-134
   26.1843750000000         2.946193966903820E-134
   26.3981250000000        -5.407605825354950E-135
   26.6118750000000        -1.590015713434332E-133
   26.8256250000000        -6.030924056217029E-133
   27.0393750000000        -1.645110078604769E-132
   27.2531250000000        -3.717212231210402E-132
   27.4668750000000        -7.153202762381364E-132
   27.6806250000000        -1.141282174590082E-131
   27.8943750000000        -1.314403338434118E-131
   28.1081250000000        -2.226168058714159E-132
   28.3218750000000         4.491207438622026E-131
   28.5356250000000         1.739361156403945E-130
   28.7493750000000         4.578678510612938E-130
   28.9631250000000         9.831276253105100E-130
   29.1768750000000         1.780963311612368E-129
   29.3906250000000         2.639637951750095E-129
   29.6043750000000         2.702873799489582E-129
   29.8181250000000        -2.376832785754960E-130
   30.0318750000000        -1.073517094661778E-128
   30.2456250000000        -3.657102761509407E-128
   30.4593750000000        -8.827194689762749E-128
   30.6731250000000        -1.744006230657359E-127
   30.8868750000000        -2.873667737564460E-127
   31.1006250000000        -3.719829876103720E-127
   31.3143750000000        -2.686841553005765E-127
   31.5281250000000         3.693079022695949E-127
   31.7418750000000         2.160528597067189E-126
   31.9556250000000         5.999663979343589E-126
   32.1693750000000         1.279477005708005E-125
   32.3831250000000         2.259579291588214E-125
   32.5968750000000         3.261168721078995E-125
   32.8106250000000         3.358630579146903E-125
   33.0243750000000         4.422294876343891E-126
   33.2381250000000        -9.364441709922454E-125
   33.4518750000000        -3.188474144614063E-124
   33.6656250000000        -7.365602273408585E-124
   33.8793750000000        -1.374705910616009E-123
   34.0931250000000        -2.120778836410754E-123
   34.3068750000000        -2.533525159137022E-123
   34.5206250000000        -1.563554158424959E-123
   34.7343750000000         2.754996720193824E-123
   34.9481250000000         1.343355626111897E-122
   35.1618750000000         3.402161141581547E-122
   35.3756250000000         6.666827932814088E-122
   35.5893750000000         1.076509724166547E-121
   35.8031250000000         1.392985420100826E-121
   36.0168750000000         1.181933512795378E-121
   36.2306250000000        -3.767916298218836E-122
   36.4443750000000        -4.545237545839984E-121
   36.6581250000000        -1.283695957849186E-120
   36.8718750000000        -2.629306615439914E-120
   37.0856250000000        -4.384999893076879E-120
   37.2993750000000        -5.947445954817583E-120
   37.5131250000000        -5.812197308359969E-120
   37.7268750000000        -1.155039440267691E-120
   37.9406250000000         1.231652974010599E-119
   38.1543750000000         3.968972323160407E-119
   38.3681250000000         8.450469603703863E-119
   38.5818750000000         1.437501941974104E-118
   38.7956250000000         1.995369757367675E-118
   39.0093750000000         2.081172127013578E-118
   39.2231250000000         8.981515480794303E-119
   39.4368750000000        -2.717767573640287E-118
   39.6506250000000        -1.006852032363428E-117
   39.8643750000000        -2.193078975985980E-117
   40.0781250000000        -3.727287029816904E-117
   40.2918750000000        -5.131900100519120E-117
   40.5056250000000        -5.332850501348342E-117
   40.7193750000000        -2.517762552012136E-117
   40.9331250000000         5.717325047673329E-117
   41.1468750000000         2.162861784816199E-116
   41.3606250000000         4.566978623562855E-116
   41.5743750000000         7.378082852776824E-116
   41.7881250000000         9.401812336689114E-116
   42.0018750000000         8.393866934978960E-116
   42.2156250000000         1.158814599874585E-116
   42.4293750000000        -1.556467708390284E-115
   42.6431250000000        -4.297515503549199E-115
   42.8568750000000        -7.663988337178014E-115
   43.0706250000000        -1.020701247159652E-114
   43.2843750000000        -9.149279208445422E-115
   43.4981250000000        -5.927958846149939E-116
   43.7118750000000         1.913677069625656E-114
   43.9256250000000         5.038225297156547E-114
   44.1393750000000         8.508245208841114E-114
   44.3531250000000         1.007414056879160E-113
   44.5668750000000         5.667159218814539E-114
   44.7806250000000        -1.012045241841585E-113
   44.9943750000000        -4.179416128502667E-113
   45.2081250000000        -8.805645496569823E-113
   45.4218750000000        -1.340606833455428E-112
   45.6356250000000        -1.425648094865791E-112
   45.8493750000000        -4.923441399288031E-113
   46.0631250000000         2.279001746728104E-112
   46.2768750000000         7.505938638922009E-112
   46.4906250000000         1.480274790370675E-111
   46.7043750000000         2.153578358708246E-111
   46.9181250000000         2.143142016934748E-111
   47.1318750000000         3.913415882903444E-112
   47.3456250000000        -4.414617868922652E-111
   47.5593750000000        -1.318098145228359E-110
   47.7731250000000        -2.500540658351728E-110
   47.9868750000000        -3.495403429152003E-110
   48.2006250000000        -3.144447478053156E-110
   48.4143750000000         5.354931114171420E-111
   48.6281250000000         1.012267127236126E-109
   48.8418750000000         2.771825943911643E-109
   49.0556250000000         5.249116840443200E-109
   49.2693750000000         7.646624478079691E-109
   49.4831250000000         7.887601674508176E-109
   49.6968750000000         2.093034119943082E-109
   49.9106250000000        -1.545606881552309E-108
   50.1243750000000        -5.108428921246523E-108
   50.3381250000000        -1.081053499315113E-107
   50.5518750000000        -1.796559190530263E-107
   50.7656250000000        -2.374477876231146E-107
   50.9793750000000        -2.178322429093961E-107
   51.1931250000000        -1.041121238974462E-108
   51.4068750000000         5.395119990323272E-107
   51.6206250000000         1.595731692846243E-106
   51.8343750000000         3.237644699040636E-106
   52.0481250000000         5.282748502815809E-106
   52.2618750000000         7.014841437840151E-106
   52.4756250000000         6.850928397485133E-106
   52.6893750000000         2.063443665579416E-106
   52.9031250000000        -1.119614244654765E-105
   53.1168750000000        -3.716473232416162E-105
   53.3306250000000        -7.847547496784574E-105
   53.5443750000000        -1.323383388945127E-104
   53.7581250000000        -1.846109604177808E-104
   53.9718750000000        -2.023030837710067E-104
   54.1856250000000        -1.266694718572992E-104
   54.3993750000000         1.284288182640079E-104
   54.6131250000000         6.649860643283290E-104
   54.8268750000000         1.565154557708934E-103
   55.0406250000000         2.819352745225030E-103
   55.2543750000000         4.210236088161095E-103
   55.4681250000000         5.158130057841329E-103
   55.6818750000000         4.561182970308536E-103
   55.8956250000000         7.083126872710823E-104
   56.1093750000000        -8.597144336428934E-103
   56.3231250000000        -2.550282139631074E-102
   56.5368750000000        -5.092557564654181E-102
   56.7506250000000        -8.252739736708639E-102
   56.9643750000000        -1.118436542012043E-101
   57.1781250000000        -1.209803695886742E-101
   57.3918750000000        -8.001743873008217E-102
   57.6056250000000         5.273076052491132E-102
   57.8193750000000         3.242902357244648E-101
   58.0331250000000         7.702346325008710E-101
   58.2468750000000         1.383424468304860E-100
   58.4606250000000         2.066387120051137E-100
   58.6743750000000         2.571127491274975E-100
   58.8881250000000         2.440576378046081E-100
   59.1018750000000         9.814855577326817E-101
   59.3156250000000        -2.682125047314468E-100
   59.5293750000000        -9.407764720993965E-100
   59.7431250000000        -1.961119525950690E-099
   59.9568750000000        -3.256616407240657E-099
   60.1706250000000        -4.543858088597045E-099
   60.3843750000000        -5.220117163713315E-099
   60.5981250000000        -4.279090874764576E-099
   60.8118750000000        -3.160399721763172E-100
   61.0256250000000         8.281560236529460E-099
   61.2393750000000         2.284025015005378E-098
   61.4531250000000         4.349387047781443E-098
   61.6668750000000         6.781885547466358E-098
   61.8806250000000         8.912010470175936E-098
   62.0943750000000         9.474470139053268E-098
   62.3081250000000         6.518794740568604E-098
   62.5218750000000        -2.478254381925397E-098
   62.7356250000000        -2.013458080918318E-097
   62.9493750000000        -4.814124331368176E-097
   63.1631250000000        -8.556756210239126E-097
   63.3768750000000        -1.265146046495365E-096
   63.5906250000000        -1.574358783096336E-096
   63.8043750000000        -1.549080995052134E-096
   64.0181250000000        -8.523936720011340E-097
   64.2318750000000         9.206436501300644E-097
   64.4456250000000         4.145240497224777E-096
   64.6593750000000         8.983051738964343E-096
   64.8731250000000         1.510171384716319E-095
   65.0868750000000         2.131604232971225E-095
   65.3006250000000         2.521876817043364E-095
   65.5143750000000         2.293894998434534E-095
   65.7281250000000         9.248789549009248E-096
   65.9418750000000        -2.168669455301949E-095
   66.1556250000000        -7.459548357578491E-095
   66.3693750000000        -1.501721451336463E-094
   66.5831250000000        -2.409322629253947E-094
   66.7968750000000        -3.263098144581056E-094
   67.0106250000000        -3.681859291489187E-094
   67.2243750000000        -3.089770196412156E-094
   67.4381250000000        -7.539649664201385E-095
   67.6518750000000         4.082985364858081E-094
   67.8656250000000         1.193884280396335E-093
   68.0793750000000         2.267508430025842E-093
   68.2931250000000         3.494602289902996E-093
   68.5068750000000         4.559847202919620E-093
   68.7206250000000         4.920116506658318E-093
   68.9343750000000         3.799456489086322E-093
   69.1481250000000         2.653728366987564E-094
   69.3618750000000        -6.569635388529861E-093
   69.5756250000000        -1.718472293751677E-092
   69.7893750000000        -3.111607958704178E-092
   70.0031250000000        -4.629556432931109E-092
   70.2168750000000        -5.839128384736245E-092
   70.4306250000000        -6.038846715419564E-092
   70.6443750000000        -4.276626424154000E-092
   70.8581250000000         5.284585625933992E-093
   71.0718750000000         9.315213740462170E-092
   71.2856250000000         2.242990651491628E-091
   71.4993750000000         3.900399368868725E-091
   71.7131250000000         5.623410697549997E-091
   71.9268750000000         6.873374250028728E-091
   72.1406250000000         6.824047953443745E-091
   72.3543750000000         4.407166954248105E-091
   72.5681250000000        -1.521663990744331E-091
   72.7818750000000        -1.185575540575099E-090
   72.9956250000000        -2.672991310902795E-090
   73.2093750000000        -4.486014588859186E-090
   73.4231250000000        -6.283145720099427E-090
   73.6368750000000        -7.453228430904391E-090
   73.8506250000000        -7.104149745112978E-090
   74.0643750000000        -4.136235708234088E-090
   74.2781250000000         2.557693239604201E-090
   74.4918750000000         1.373317585638183E-089
   74.7056250000000         2.927112069320170E-089
   74.9193750000000         4.753673177481296E-089
   75.1331250000000         6.474009655704952E-089
   75.3468750000000         7.450900444531025E-089
   75.5606250000000         6.797499706725863E-089
   75.7743750000000         3.473368459475653E-089
   75.9881250000000        -3.497244593475078E-089
   76.2018750000000        -1.466362984069227E-088
   76.4156250000000        -2.965269582353808E-088
   76.6293750000000        -4.659848192070368E-088
   76.8431250000000        -6.162476172155865E-088
   77.0568750000000        -6.858538345046794E-088
   77.2706250000000        -5.933456824236206E-088
   77.4843750000000        -2.482892519342164E-088
   77.6981250000000         4.268266622169302E-088
   77.9118750000000         1.462856580548174E-087
   78.1256250000000         2.800541464851917E-087
   78.3393750000000         4.244045254479376E-087
   78.5531250000000         5.423971883131343E-087
   78.7668750000000         5.788282839993173E-087
   78.9806250000000         4.643859164770772E-087
   79.1943750000000         1.271649945933556E-087
   79.4081250000000        -4.868564144786382E-087
   79.6218750000000        -1.384462484520050E-086
   79.8356250000000        -2.489898637596881E-086
   80.0493750000000        -3.610484212277643E-086
   80.2631250000000        -4.414523572232435E-086
   80.4768750000000        -4.437011361633663E-086
   80.6906250000000        -3.130738626537538E-086
   80.9043750000000         2.154409607019890E-088
   81.1181250000000         5.326479575756389E-086
   81.3318750000000         1.263983177639411E-085
   81.5456250000000         2.110026726182332E-085
   81.7593750000000         2.890233767575857E-085
   81.9731250000000         3.320664692589855E-085
   82.1868750000000         3.031001627979255E-085
   82.4006250000000         1.620194020681998E-085
   82.6143750000000        -1.240010523629013E-085
   82.8281250000000        -5.653001327441631E-085
   83.0418750000000        -1.131081335266513E-084
   83.2556250000000        -1.730784010981563E-084
   83.4693750000000        -2.201321625027540E-084
   83.6831250000000        -2.308229935498077E-084
   83.8968750000000        -1.769960700090699E-084
   84.1106250000000        -3.136805797540614E-085
   84.3243750000000         2.233160713085497E-084
   84.5381250000000         5.819481935085039E-084
   84.7518750000000         1.003212674804115E-083
   84.9656250000000         1.397524929562721E-083
   85.1793750000000         1.621761500274015E-083
   85.3931250000000         1.487128572833439E-083
   85.6068750000000         7.868012535458863E-084
   85.8206250000000        -6.516125808864166E-084
   86.0343750000000        -2.887962137232764E-083
   86.2481250000000        -5.772371889037014E-083
   86.4618750000000        -8.846008683684610E-083
   86.6756250000000        -1.126918487583598E-082
   86.8893750000000        -1.181798620366655E-082
   87.1031250000000        -8.997849044062544E-083
   87.3168750000000        -1.319860379582477E-083
   87.5306250000000         1.223290129362348E-082
   87.7443750000000         3.156104476357851E-082
   87.9581250000000         5.470116981038603E-082
   88.1718750000000         7.713187142168573E-082
   88.3856250000000         9.138150329900037E-082
   88.5993750000000         8.726363652890132E-082
   88.8131250000000         5.309876180199065E-082
   89.0268750000000        -2.177198538309430E-082
   89.2406250000000        -1.430548804131339E-081
   89.4543750000000        -3.063650007434057E-081
   89.6681250000000        -4.915938070542457E-081
   89.8818750000000        -6.581213872485688E-081
   90.0956250000000        -7.428602151961378E-081
   90.3093750000000        -6.636135132420036E-081
   90.5231250000000        -3.303303558870774E-081
   90.7368750000000         3.337480578915721E-081
   90.9506250000000         1.360610110895437E-080
   91.1643750000000         2.697923444822185E-080
   91.3781250000000         4.167489486002161E-080
   91.5918750000000         5.432341485140741E-080
   91.8056250000000         5.987609303555757E-080
   92.0193750000000         5.193355330556171E-080
   92.2331250000000         2.367489710292877E-080
   92.4468750000000        -3.048404010483610E-080
   92.6606250000000        -1.124977329025879E-079
   92.8743750000000        -2.177603373691235E-079
   93.0881250000000        -3.321108379633939E-079
   93.3018750000000        -4.295671619995565E-079
   93.5156250000000        -4.718840188637655E-079
   93.7293750000000        -4.112179181499468E-079
   93.9431250000000        -1.971364387250149E-079
   94.1568750000000         2.112056944098886E-079
   94.3706250000000         8.277979355747843E-079
   94.5843750000000         1.618918434537627E-078
   94.7981250000000         2.482103349859694E-078
   95.0118750000000         3.230507049007652E-078
   95.2256250000000         3.590193518002222E-078
   95.4393750000000         3.219054575017610E-078
   95.6531250000000         1.755584236444007E-078
   95.8668750000000        -1.097198722606104E-078
   96.0806250000000        -5.453494777826345E-078
   96.2943750000000        -1.110249860814214E-077
   96.5081250000000        -1.736508843861488E-077
   96.7218750000000        -2.298627020426160E-077
   96.9356250000000        -2.611280802165504E-077
   97.1493750000000        -2.441261691973487E-077
   97.3631250000000        -1.538915984730562E-077
   97.5768750000000         3.074945433095162E-078
   97.7906250000000         3.194981874417642E-077
   98.0043750000000         7.013066641834459E-077
   98.2181250000000         1.134939420127502E-076
   98.4318750000000         1.541675947245721E-076
   98.6456250000000         1.803238823771511E-076
   98.8593750000000         1.768479645524588E-076
   99.0731250000000         1.272166055110419E-076
   99.2868750000000         1.680782361772877E-077
   99.5006250000000        -1.623702410471089E-076
   99.7143750000000        -4.059028333478130E-076
   99.9281250000000        -6.909842470082803E-076
   100.141875000000        -9.715856391585896E-076
   100.355625000000        -1.176607240652632E-075
   100.569375000000        -1.213128914559967E-075
   100.783125000000        -9.767911386355839E-076
   100.996875000000        -3.707156729268937E-076
   101.210625000000         6.669291481762937E-076
   101.424375000000         2.128649295734999E-075
   101.638125000000         3.901229079920777E-075
   101.851875000000         5.734804925703256E-075
   102.065625000000         7.227761216192783E-075
   102.279375000000         7.839560802297861E-075
   102.493125000000         6.943427053277751E-075
   102.706875000000         3.927662736263090E-075
   102.920625000000        -1.652467247181229E-075
   103.134375000000        -9.881263744722709E-075
   103.348125000000        -2.027097538292326E-074
   103.561875000000        -3.157195479929093E-074
   103.775625000000        -4.166016464864635E-074
   103.989375000000        -4.756836787242778E-074
   104.203125000000        -4.572820052800593E-074
   104.416875000000        -3.247607415028906E-074
   104.630625000000        -4.842148110660390E-075
   104.844375000000         3.841356698024403E-074
   105.058125000000         9.562864558793679E-074
   105.271875000000         1.611268185815695E-073
   105.485625000000         2.244506089472548E-073
   105.699375000000         2.702845061418557E-073
   105.913125000000         2.794317709730297E-073
   106.126875000000         2.311508878300623E-073
   106.340625000000         1.070037914172070E-073
   106.554375000000        -1.038952209720405E-073
   106.768125000000        -3.987075339058215E-073
   106.981875000000        -7.546907831930132E-073
   107.195625000000        -1.124373692533859E-072
   107.409375000000        -1.433806391956370E-072
   107.623125000000        -1.585759528852570E-072
   107.836875000000        -1.469558451261682E-072
   108.050625000000        -9.785936373067943E-073
   108.264375000000        -3.537130320804126E-074
   108.478125000000         1.377733466056482E-072
   108.691875000000         3.185959057690790E-072
   108.905625000000         5.194042185771398E-072
   109.119375000000         7.070608264702689E-072
   109.333125000000         8.354261900071630E-072
   109.546875000000         8.490198764264010E-072
   109.760625000000         6.903734080434390E-072
   109.974375000000         3.112249576991913E-072
   110.188125000000        -3.130375731647220E-072
   110.401875000000        -1.167233582766663E-071
   110.615625000000        -2.181155098428598E-071
   110.829375000000        -3.218837018410853E-071
   111.043125000000        -4.076607421548615E-071
   111.256875000000        -4.494283270263033E-071
   111.470625000000        -4.183101016732627E-071
   111.684375000000        -2.872111204134741E-071
   111.898125000000        -3.717321451277092E-072
   112.111875000000         3.350935416087788E-071
   112.325625000000         8.095202214372412E-071
   112.539375000000         1.336323007255374E-070
   112.753125000000         1.832854669254391E-070
   112.966875000000         2.185699787531713E-070
   113.180625000000         2.259872587210321E-070
   113.394375000000         1.916349906248857E-070
   113.608125000000         1.038032902224949E-070
   113.821875000000        -4.374079978979577E-071
   114.035625000000        -2.481372741135821E-070
   114.249375000000        -4.940588322751782E-070
   114.463125000000        -7.513454024756680E-070
   114.676875000000        -9.745386827648579E-070
   114.890625000000        -1.105209048645016E-069
   115.104375000000        -1.077795133102771E-069
   115.318125000000        -8.292939643098328E-070
   115.531875000000        -3.125352815532245E-070
   115.745625000000         4.880259189928522E-070
   115.959375000000         1.539985028869747E-069
   116.173125000000         2.749032612629201E-069
   116.386875000000         3.951002132166815E-069
   116.600625000000         4.913895005668260E-069
   116.814375000000         5.353586251179056E-069
   117.028125000000         4.965840023682253E-069
   117.241875000000         3.475271212272732E-069
   117.455625000000         6.989850576046386E-070
   117.669375000000        -3.381009930005764E-069
   117.883125000000        -8.546508353807333E-069
   118.096875000000        -1.428657353558070E-068
   118.310625000000        -1.977213359034626E-068
   118.524375000000        -2.387890478106210E-068
   118.738125000000        -2.527386968702081E-068
   118.951875000000        -2.257504260828674E-068
   119.165625000000        -1.458484870210407E-068
   119.379375000000        -5.842851282303781E-070
   119.593125000000         1.934099894327001E-068
   119.806875000000         4.398875209018167E-068
   120.020625000000         7.080410805722980E-068
   120.234375000000         9.579232711913551E-068
   120.448125000000         1.136555819393183E-067
   120.661875000000         1.182192471451501E-067
   120.875625000000         1.031879017105267E-067
   121.089375000000         6.322891263783255E-068
   121.303125000000        -4.677348734340282E-069
   121.516875000000        -9.975321038620428E-068
   121.730625000000        -2.160149142943427E-067
   121.944375000000        -3.412201857339085E-067
   122.158125000000        -4.565037393788919E-067
   122.371875000000        -5.370453907603001E-067
   122.585625000000        -5.540732812429504E-067
   122.799375000000        -4.783921050114448E-067
   123.013125000000        -2.854339324384486E-067
   123.226875000000         3.844185744424856E-068
   123.440625000000         4.890078066499259E-067
   123.654375000000         1.037560875884527E-066
   123.868125000000         1.625967256857483E-066