  -1.60312500000000         0.000000000000000E+000
  -1.38937500000000         0.000000000000000E+000
  -1.17562500000000         0.000000000000000E+000
 -0.961875000000000         0.000000000000000E+000
 -0.748125000000000         0.000000000000000E+000
 -0.534375000000000         0.000000000000000E+000
 -0.320625000000000         0.000000000000000E+000
 -0.106875000000000         0.000000000000000E+000
  0.106875000000000         0.000000000000000E+000
  0.320625000000000         0.000000000000000E+000
  0.534375000000000         0.000000000000000E+000
  0.748125000000000         0.000000000000000E+000
  0.961875000000000         0.000000000000000E+000
   1.17562500000000         0.000000000000000E+000
   1.38937500000000         0.000000000000000E+000
   1.60312500000000         0.000000000000000E+000
   1.81687500000000         0.000000000000000E+000
   2.03062500000000         0.000000000000000E+000
   2.24437500000000         0.000000000000000E+000
   2.45812500000000         0.000000000000000E+000
   2.67187500000000         0.000000000000000E+000
   2.88562500000000         0.000000000000000E+000
   3.09937500000000         0.000000000000000E+000
   3.31312500000000         0.000000000000000E+000
   3.52687500000000         0.000000000000000E+000
   3.74062500000000         0.000000000000000E+000
   3.95437500000000         0.000000000000000E+000
   4.16812500000000         0.000000000000000E+000
   4.38187500000000         0.000000000000000E+000
   4.59562500000000         0.000000000000000E+000
   4.80937500000000         0.000000000000000E+000
   5.02312500000000         0.000000000000000E+000
   5.23687500000000         0.000000000000000E+000
   5.45062500000000         0.000000000000000E+000
   5.66437500000000         0.000000000000000E+000
   5.87812500000000         0.000000000000000E+000
   6.09187500000000         0.000000000000000E+000
   6.30562500000000         0.000000000000000E+000
   6.51937500000000         0.000000000000000E+000
   6.73312500000000         0.000000000000000E+000
   6.94687500000000         0.000000000000000E+000
   7.16062500000000         0.000000000000000E+000
   7.37437500000000         0.000000000000000E+000
   7.58812500000000         0.000000000000000E+000
   7.80187500000000         0.000000000000000E+000
   8.01562500000000         0.000000000000000E+000
   8.22937500000000         0.000000000000000E+000
   8.44312500000000         0.000000000000000E+000
   8.65687500000000         0.000000000000000E+000
   8.87062500000000         0.000000000000000E+000
   9.08437500000000         0.000000000000000E+000
   9.29812500000000         5.611490930249566E-202
   9.51187500000000        -2.355718890156116E-189
   9.72562500000000        -9.146869593780751E-187
   9.93937500000000        -3.029898916431769E-185
   10.1531250000000        -3.541111018954364E-182
   10.3668750000000        -2.052631115834708E-180
   10.5806250000000        -2.052453757462014E-179
   10.7943750000000         1.071390787442056E-177
   11.0081250000000         4.087936603922403E-176
   11.2218750000000         6.520598335431243E-175
   11.4356250000000         4.514358621959506E-174
   11.6493750000000        -2.570882485336771E-173
   11.8631250000000        -9.740212810365646E-172
   12.0768750000000        -1.006502915578840E-170
   12.2906250000000        -7.401953794924818E-171
   12.5043750000000         1.483900220511213E-168
   12.7181250000000         3.032232089501258E-167
   12.9318750000000         4.097982931498123E-166
   13.1456250000000         4.563681610099419E-165
   13.3593750000000         4.558987322572645E-164
   13.5731250000000         4.262235444310468E-163
   13.7868750000000         3.791876128822031E-162
   14.0006250000000         3.210263907963635E-161
   14.2143750000000         2.567794183480799E-160
   14.4281250000000         1.925668743324947E-159
   14.6418750000000         1.346891897188155E-158
   14.8556250000000         8.763770337728977E-158
   15.0693750000000         5.300704471445799E-157
   15.2831250000000         2.980868464634212E-156
   15.4968750000000         1.559138315641264E-155
   15.7106250000000         7.584991577891677E-155
   15.9243750000000         3.428819495920576E-154
   16.1381250000000         1.436635095713035E-153
   16.3518750000000         5.549863738093276E-153
   16.5656250000000         1.956859478768274E-152
   16.7793750000000         6.172243146627627E-152
   16.9931250000000         1.664516152758777E-151
   17.2068750000000         3.352295400082477E-151
   17.4206250000000         1.652362380388178E-151
   17.6343750000000        -2.922241019124800E-150
   17.8481250000000        -2.053420219750808E-149
   18.0618750000000        -9.609652148721718E-149
   18.2756250000000        -3.708086733181003E-148
   18.4893750000000        -1.246703125361426E-147
   18.7031250000000        -3.706989823875147E-147
   18.9168750000000        -9.677781883441350E-147
   19.1306250000000        -2.140338749636939E-146
   19.3443750000000        -3.572853735437957E-146
   19.5581250000000        -2.135923802522580E-146
   19.7718750000000         1.463302377414468E-145
   19.9856250000000         8.200723172190118E-145
   20.1993750000000         2.701648822855420E-144
   20.4131250000000         6.260333886114549E-144
   20.6268750000000         7.474908309391493E-144
   20.8406250000000        -2.018277841979731E-143
   21.0543750000000        -1.866936076148397E-142
   21.2681250000000        -8.630892883424547E-142
   21.4818750000000        -3.137420918680526E-141
   21.6956250000000        -9.843521452504667E-141
   21.9093750000000        -2.753748329101883E-140
   22.1231250000000        -6.939773077352009E-140
   22.3368750000000        -1.568416799481030E-139
   22.5506250000000        -3.104284530533583E-139
   22.7643750000000        -5.014664836490293E-139
   22.9781250000000        -4.925717718408233E-139
   23.1918750000000         5.875886984215891E-139
   23.4056250000000         5.219957415977117E-138
   23.6193750000000         1.944020988100360E-137
   23.8331250000000         5.612563071432272E-137
   24.0468750000000         1.392642275614422E-136
   24.2606250000000         3.063753395250840E-136
   24.4743750000000         6.003263822487301E-136
   24.6881250000000         1.030614206441247E-135
   24.9018750000000         1.468354902507437E-135
   25.1156250000000         1.428136051957512E-135
   25.3293750000000        -2.861999230189953E-136
   25.5431250000000        -5.968867797579034E-135
   25.7568750000000        -1.899371275913955E-134
   25.9706250000000        -4.231074563467486E-134
   26.1843750000000        -7.356994313244685E-134
   26.3981250000000        -9.493906198481784E-134
   26.6118750000000        -5.924249500777509E-134
   26.8256250000000         1.123575877454063E-133
   27.0393750000000         4.709299981267132E-133
   27.2531250000000         7.978837144177220E-133
   27.4668750000000        -4.947798192997484E-134
   27.6806250000000        -5.535850390901662E-132
   27.8943750000000        -2.382440000937624E-131
   28.1081250000000        -7.058531598255626E-131
   28.3218750000000        -1.692124643991920E-130
   28.5356250000000        -3.395698072434494E-130
   28.7493750000000        -5.551185859423386E-130
   28.9631250000000        -6.308557818478365E-130
   29.1768750000000         1.388593601278662E-131
   29.3906250000000         2.772139692844927E-129
   29.6043750000000         1.042478277316762E-128
   29.8181250000000         2.759709995087890E-128
   30.0318750000000         6.020126485123476E-128
   30.2456250000000         1.117690861924988E-127
   30.4593750000000         1.726717809802182E-127
   30.6731250000000         1.959675852267047E-127
   30.8868750000000         5.264689151900574E-128
   31.1006250000000        -5.364160132389431E-127
   31.3143750000000        -2.075941290349624E-126
   31.5281250000000        -5.316784984673648E-126
   31.7418750000000        -1.106714013902212E-125
   31.9556250000000        -1.949070018146705E-125
   32.1693750000000        -2.840056712657027E-125
   32.3831250000000        -2.993124121713766E-125
   32.5968750000000        -5.164539174676202E-126
   32.8106250000000         8.268595748252195E-125
   33.0243750000000         2.932317645459867E-124
   33.2381250000000         7.033067647430210E-124
   33.4518750000000         1.373277778121616E-123
   33.6656250000000         2.256391499641375E-123
   33.8793750000000         3.013400551617542E-123
   34.0931250000000         2.701128679347622E-123
   34.3068750000000        -6.497655802896664E-124
   34.5206250000000        -1.042688076929649E-122
   34.7343750000000        -3.140562855392495E-122
   34.9481250000000        -6.849680530100540E-122
   35.1618750000000        -1.229532844082589E-121
   35.3756250000000        -1.843006317567449E-121
   35.5893750000000        -2.164695733360166E-121
   35.8031250000000        -1.384230482486633E-121
   36.0168750000000         1.955771891738772E-121
   36.2306250000000         1.001449546969196E-120
   36.4443750000000         2.527072625091164E-120
   36.6581250000000         4.922833852124703E-120
   36.8718750000000         7.960202184726614E-120
   37.0856250000000         1.054729090106828E-119
   37.2993750000000         1.005370434201566E-119
   37.5131250000000         1.614895285930241E-120
   37.7268750000000        -2.212377161569914E-119
   37.9406250000000        -6.994039675773555E-119
   38.1543750000000        -1.483035061349191E-118
   38.3681250000000        -2.533974873603822E-118
   38.5818750000000        -3.578440847311889E-118
   38.7956250000000        -3.930765934527840E-118
   39.0093750000000        -2.326824882452707E-118
   39.2231250000000         3.108620277879346E-118
   39.4368750000000         1.454729984000656E-117
   39.6506250000000         3.351114269024405E-117
   39.8643750000000         5.903270028268831E-117
   40.0781250000000         8.489538110647653E-117
   40.2918750000000         9.650860434160049E-117
   40.5056250000000         6.897980593669000E-117
   40.7193750000000        -3.074690570554072E-117
   40.9331250000000        -2.337355945507512E-116
   41.1468750000000        -5.472167904703572E-116
   41.3606250000000        -9.207942387780417E-116
   41.5743750000000        -1.208948313876611E-115
   41.7881250000000        -1.152689904801670E-115
   42.0018750000000        -4.216154503539662E-116
   42.2156250000000         1.228992238061363E-115
   42.4293750000000         3.641306473605372E-115
   42.6431250000000         5.795001345276449E-115
   42.8568750000000         5.364594861806882E-115
   43.0706250000000        -1.305406223004057E-115
   43.2843750000000        -1.811026589612135E-114
   43.4981250000000        -4.607363888137721E-114
   43.7118750000000        -7.748695659957396E-114
   43.9256250000000        -8.759456078142687E-114
   44.1393750000000        -2.650024871288383E-114
   44.3531250000000         1.820278819884356E-113
   44.5668750000000         6.231097129633811E-113
   44.7806250000000         1.338953044790545E-112
   44.9943750000000         2.228690165823230E-112
   45.2081250000000         2.900301427507999E-112
   45.4218750000000         2.510432200540582E-112
   45.6356250000000        -3.111417542094438E-113
   45.8493750000000        -7.276285729865283E-112
   46.0631250000000        -1.974969655197011E-111
   46.2768750000000        -3.732651301789240E-111
   46.4906250000000        -5.564423714082378E-111
   46.7043750000000        -6.390256027240134E-111
   46.9181250000000        -4.345231805777082E-111
   47.1318750000000         3.001703623573777E-111
   47.3456250000000         1.771748155156880E-110
   47.5593750000000         3.953218478245416E-110
   47.7731250000000         6.279653850963822E-110
   47.9868750000000         7.312589814298175E-110
   48.2006250000000         4.588524671388403E-110
   48.4143750000000        -4.943926829258752E-110
   48.6281250000000        -2.332296469376957E-109
   48.8418750000000        -4.823864307370868E-109
   49.0556250000000        -6.784433904880951E-109
   49.2693750000000        -5.484514416444462E-109
   49.4831250000000         3.663958331978110E-109
   49.6968750000000         2.644614792772485E-108
   49.9106250000000         6.713005694388844E-108
   50.1243750000000         1.224327483506443E-107
   50.3381250000000         1.713256480717024E-107
   50.5518750000000         1.615130945521929E-107
   50.7656250000000        -2.922948885363829E-109
   50.9793750000000        -4.620891543459132E-107
   51.1931250000000        -1.370261897710588E-106
   51.4068750000000        -2.808649151377512E-106
   51.6206250000000        -4.612384572165266E-106
   51.8343750000000        -6.097020595383098E-106
   52.0481250000000        -5.713166085065346E-106
   52.2618750000000        -7.458028434827385E-107
   52.4756250000000         1.268428081871775E-105
   52.6893750000000         3.887745223690361E-105
   52.9031250000000         8.046076965704662E-105
   53.1168750000000         1.342916236097301E-104
   53.3306250000000         1.849995216041672E-104
   53.5443750000000         1.967072454078822E-104
   53.7581250000000         1.052852601770885E-104
   53.9718750000000        -1.836032144955855E-104
   54.1856250000000        -7.816151358615013E-104
   54.3993750000000        -1.777222565305311E-103
   54.6131250000000        -3.153321884983817E-103
   54.8268750000000        -4.653150349647838E-103
   55.0406250000000        -5.600344945077540E-103
   55.2543750000000        -4.711627111177058E-103
   55.4681250000000         5.685465610569822E-106
   55.6818750000000         1.110638861921606E-102
   55.8956250000000         3.106817488670070E-102
   56.1093750000000         6.087161215274518E-102
   56.3231250000000         9.755611983345766E-102
   56.5368750000000         1.307367279460923E-101
   56.7506250000000         1.385823563123690E-101
   56.9643750000000         8.464712373042075E-102
   57.1781250000000        -8.178612050171641E-102
   57.3918750000000        -4.177300146921908E-101
   57.6056250000000        -9.656072489022554E-101
   57.8193750000000        -1.714254118450146E-100
   58.0331250000000        -2.539332271892434E-100
   58.2468750000000        -3.127794302527405E-100
   58.4606250000000        -2.904244107447665E-100
   58.6743750000000        -9.969520490918691E-101
   58.8881250000000         3.693878433824634E-100
   59.1018750000000         1.223942478498172E-099
   59.3156250000000         2.514121223803447E-099
   59.5293750000000         4.143397767241153E-099
   59.7431250000000         5.744548855992338E-099
   59.9568750000000         6.540003200192065E-099
   60.1706250000000         5.233313970697507E-099
   60.3843750000000         1.625632438685260E-101
   60.5981250000000        -1.118314646100365E-098
   60.8118750000000        -3.005762486347429E-098
   61.0256250000000        -5.673791736521086E-098
   61.2393750000000        -8.800945663356608E-098
   61.4531250000000        -1.150687651013747E-097
   61.6668750000000        -1.213136103147371E-097
   61.8806250000000        -8.117317427851041E-098
   62.0943750000000         3.840234284888791E-098
   62.3081250000000         2.716201417087675E-097
   62.5218750000000         6.403268777141878E-097
   62.7356250000000         1.131554453972470E-096
   62.9493750000000         1.666400807030376E-096
   63.1631250000000         2.064473913730968E-096
   63.3768750000000         2.014330061187378E-096
   63.5906250000000         1.068441868545882E-096
   63.8043750000000        -1.310245954691819E-096
   64.0181250000000        -5.617303461509106E-096
   64.2318750000000        -1.206046537330018E-095
   64.4456250000000        -2.018372302593796E-095
   64.6593750000000        -2.838651059425725E-095
   64.8731250000000        -3.342952492910771E-095
   65.0868750000000        -3.011363877588202E-095
   65.3006250000000        -1.143004035386167E-095
   65.5143750000000         3.042060089569268E-095
   65.7281250000000         1.017056902601442E-094
   65.9418750000000         2.032018059741432E-094
   66.1556250000000         3.245942593272588E-094
   66.3693750000000         4.378686397806904E-094
   66.5831250000000         4.913161176735925E-094
   66.7968750000000         4.070510488739875E-094
   67.0106250000000         8.627569171124582E-095
   67.2243750000000        -5.725379364488101E-094
   67.4381250000000        -1.637568332128276E-093
   67.6518750000000        -3.086944894214058E-093
   67.8656250000000        -4.734038035465512E-093
   68.0793750000000        -6.146486387016357E-093
   68.2931250000000        -6.583600300659741E-093
   68.5068750000000        -4.991920732523302E-093
   68.7206250000000        -1.124368137465380E-094
   68.9343750000000         9.241053097342560E-093
   69.1481250000000         2.368365403360420E-092
   69.3618750000000         4.253025886038125E-092
   69.5756250000000         6.289928365362149E-092
   69.7893750000000         7.882845274305033E-092
   70.0031250000000         8.073125079536761E-092
   70.2168750000000         5.568075390276726E-092
   70.4306250000000        -1.087514681058931E-092
   70.6443750000000        -1.313626600288686E-091
   70.8581250000000        -3.099044325614139E-091
   71.0718750000000        -5.338540430082933E-091
   71.2856250000000        -7.640994980474504E-091
   71.4993750000000        -9.264949212032295E-091
   71.7131250000000        -9.083233921982407E-091
   71.9268750000000        -5.651368215415111E-091
   72.1406250000000         2.559208696929079E-091
   72.3543750000000         1.670932475510623E-090
   72.5681250000000         3.689953544234641E-090
   72.7818750000000         6.127901807763428E-090
   72.9956250000000         8.509890421841360E-090
   73.2093750000000         9.998480030929879E-090
   73.4231250000000         9.384538182232252E-090
   73.6368750000000         5.194657551026361E-090
   73.8506250000000        -4.029667488817690E-090
   74.0643750000000        -1.924035113627577E-089
   74.2781250000000        -4.017683326425174E-089
   74.4918750000000        -6.451376283637266E-089
   74.7056250000000        -8.702977198009426E-089
   74.9193750000000        -9.908483133830131E-089
   75.1331250000000        -8.880947754735368E-089
   75.3468750000000        -4.247971589642166E-089
   75.5606250000000         5.248006893940945E-089
   75.7743750000000         2.026223928786553E-088
   75.9881250000000         4.019101995743026E-088
   76.2018750000000         6.243152986162558E-088
   76.4156250000000         8.173329714276193E-088
   76.6293750000000         8.991459510580757E-088
   76.8431250000000         7.629871299805113E-088
   77.0568750000000         2.925190676614552E-088
   77.2706250000000        -6.087089352917492E-088
   77.4843750000000        -1.972938969500109E-087
   77.6981250000000        -3.712372567143610E-087
   77.9118750000000        -5.561196831421337E-087
   78.1256250000000        -7.032128469435146E-087
   78.3393750000000        -7.411286278144269E-087
   78.5531250000000        -5.819842398668695E-087
   78.7668750000000        -1.369803246728859E-087
   78.9806250000000         6.569221465251647E-087
   79.1943750000000         1.799849833686575E-086
   79.4081250000000         3.185726565338845E-086
   79.6218750000000         4.562094415588222E-086
   79.8356250000000         5.507684731674073E-086
   80.0493750000000         5.446864864695822E-086
   80.2631250000000         3.721633766682685E-086
   80.4768750000000        -2.620618814250048E-087
   80.6906250000000        -6.808774113113880E-086
   80.9043750000000        -1.564535361205155E-085
   81.1181250000000        -2.561765666187455E-085
   81.3318750000000        -3.445679377812016E-085
   81.5456250000000        -3.873518859926648E-085
   81.7593750000000        -3.415461337220373E-085
   81.9731250000000        -1.630018880299067E-085
   82.1868750000000         1.806188772896075E-085
   82.4006250000000         6.918438593627821E-085
   82.6143750000000         1.322658739131708E-084
   82.8281250000000         1.955761751705080E-084
   83.0418750000000         2.395109901167798E-084
   83.2556250000000         2.375092578679761E-084
   83.4693750000000         1.598112780103748E-084
   83.6831250000000        -1.920166920343072E-085
   83.8968750000000        -3.099825313287410E-084
   84.1106250000000        -6.941136870066315E-084
   84.3243750000000        -1.110479323106760E-083
   84.5381250000000        -1.445678102469295E-083
   84.7518750000000        -1.534698762429025E-083
   84.9656250000000        -1.178764621208589E-083
   85.1793750000000        -1.865423739237971E-084
   85.3931250000000         1.558270609739316E-083
   85.6068750000000         4.006317563149038E-083
   85.8206250000000         6.841951200704223E-083
   86.0343750000000         9.397940261843377E-083
   86.2481250000000         1.062366638180170E-082
   86.4618750000000         9.154601975225663E-083
   86.6756250000000         3.532094685860746E-083
   86.8893750000000        -7.390881824419144E-083
   87.1031250000000        -2.385621983918125E-082
   87.3168750000000        -4.447556964968497E-082
   87.5306250000000        -6.551037596626151E-082
   87.7443750000000        -8.038760132509986E-082
   87.9581250000000        -7.976874909247269E-082
   88.1718750000000        -5.253867215914835E-082
   88.3856250000000         1.194984997762941E-082
   88.5993750000000         1.201945704483038E-081
   88.8131250000000         2.695606584665320E-081
   89.0268750000000         4.426235742831417E-081
   89.2406250000000         6.021033212237524E-081
   89.4543750000000         6.883449693137968E-081
   89.6681250000000         6.218691042773274E-081
   89.8818750000000         3.137122466580637E-081
   90.0956250000000        -3.142071130367581E-081
   90.3093750000000        -1.297937758579649E-080
   90.5231250000000        -2.591494156148569E-080
   90.7368750000000        -4.023861539710587E-080
   90.9506250000000        -5.263682026073224E-080
   91.1643750000000        -5.807186564685801E-080
   91.3781250000000        -5.008525234525685E-080
   91.5918750000000        -2.172038978894225E-080
   91.8056250000000         3.278989998448258E-080
   92.0193750000000         1.155504170982335E-079
   92.2331250000000         2.219364071186752E-079
   92.4468750000000         3.374183295757434E-079
   92.6606250000000         4.351120650030532E-079
   92.8743750000000         4.752229834928514E-079
   93.0881250000000         4.077724145199665E-079
   93.3018750000000         1.799656221746919E-079
   93.5156250000000        -2.508681176439581E-079
   93.7293750000000        -8.987920818800360E-079
   93.9431250000000        -1.726820584745342E-078
   94.1568750000000        -2.624200616211499E-078
   94.3706250000000        -3.389491024397872E-078
   94.5843750000000        -3.727731070197919E-078
   94.7981250000000        -3.271317310908811E-078
   95.0118750000000        -1.633736751557556E-078
   95.2256250000000         1.497935897541150E-078
   95.4393750000000         6.232687127651527E-078
   95.6531250000000         1.231899762348568E-077
   95.8668750000000         1.898781474675190E-077
   96.0806250000000         2.483659015682203E-077
   96.2943750000000         2.781012086419944E-077
   96.5081250000000         2.534189034896265E-077
   96.7218750000000         1.471550113178957E-077
   96.9356250000000        -6.316415353834188E-078
   97.1493750000000        -3.866353930044129E-077
   97.3631250000000        -8.085681008502125E-077
   97.5768750000000        -1.280026257217631E-076
   97.7906250000000        -1.709994391484253E-076
   98.0043750000000        -1.963722053345439E-076
   98.2181250000000        -1.871280779671404E-076
   98.4318750000000        -1.250089433911125E-076
   98.6456250000000         5.623216141025351E-078
   98.8593750000000         2.123113262480735E-076
   99.0731250000000         4.879084792104382E-076
   99.2868750000000         8.038824736456233E-076
   99.5006250000000         1.105140317478152E-075
   99.7143750000000         1.308525667732562E-075
   99.9281250000000         1.307433400099112E-075
   100.141875000000         9.848299197030590E-076
   100.355625000000         2.361585443850372E-076
   100.569375000000        -9.980109172514592E-076
   100.783125000000        -2.692202224709191E-075
   100.996875000000        -4.694916074626623E-075
   101.210625000000        -6.695459310217327E-075
   101.424375000000        -8.211114087184723E-075
   101.638125000000        -8.608815847761739E-075
   101.851875000000        -7.174803780640968E-075
   102.065625000000        -3.241377190959301E-075
   102.279375000000         3.628935263042808E-075
   102.493125000000         1.341505352264614E-074
   102.706875000000         2.539567299144271E-074
   102.920625000000         3.794444484485144E-074
   103.134375000000         4.842983018453089E-074
   103.348125000000         5.329817880990294E-074
   103.561875000000         4.841635109147482E-074
   103.775625000000         2.972889222493424E-074
   103.989375000000        -5.760346602777872E-075
   104.203125000000        -5.874270187122302E-074
   104.416875000000        -1.262480529062564E-073
   104.630625000000        -2.004332174042512E-073
   104.844375000000        -2.678679294120569E-073
   105.058125000000        -3.097344673809193E-073
   105.271875000000        -3.033567605220902E-073
   105.485625000000        -2.253793143835884E-073
   105.699375000000        -5.670048134873072E-074
   105.913125000000         2.110813735347674E-073
   106.126875000000         5.684113777170902E-073
   106.340625000000         9.809417554551726E-073
   106.554375000000         1.384853792685910E-072
   106.768125000000         1.686440401246975E-072
   106.981875000000         1.768121073346919E-072
   107.195625000000         1.502680000667516E-072
   107.409375000000         7.765571385056133E-073
   107.623125000000        -4.785802890412793E-073
   107.836875000000        -2.248949795440152E-072
   108.050625000000        -4.401987093187927E-072
   108.264375000000        -6.658008664717192E-072
   108.478125000000        -8.580311804430505E-072
   108.691875000000        -9.594552026805021E-072
   108.905625000000        -9.046955819156364E-072
   109.119375000000        -6.306985094013812E-072
   109.333125000000        -9.131046479494908E-073
   109.546875000000         7.249560109666234E-072
   109.760625000000         1.776284691359891E-071
   109.974375000000         2.951607430357290E-071
   110.188125000000         4.061955216296562E-071
   110.401875000000         4.844261544497247E-071
   110.615625000000         4.982468836066836E-071
   110.829375000000         4.149330169052173E-071
   111.043125000000         2.069480736276038E-071
   111.256875000000        -1.399830270445775E-071
   111.470625000000        -6.179229825630060E-071
   111.684375000000        -1.188355556486029E-070
   111.898125000000        -1.776387581695193E-070
   112.111875000000        -2.269843207267693E-070
   112.325625000000        -2.525583186506757E-070
   112.539375000000        -2.384917550088863E-070
   112.753125000000        -1.698935359522058E-070
   112.966875000000        -3.629171748432435E-071
   113.180625000000         1.643198216928756E-070
   113.394375000000         4.213833425235236E-070
   113.608125000000         7.084276979773313E-070
   113.821875000000         9.814560058775724E-070
   114.035625000000         1.180129961459183E-069
   114.249375000000         1.232699909182900E-069
   114.463125000000         1.065285996676241E-069
   114.676875000000         6.155107085474457E-070
   114.890625000000        -1.503708036025511E-070
   115.104375000000        -1.218732940251793E-069
   115.318125000000        -2.511216486671572E-069
   115.531875000000        -3.872679338447024E-069
   115.745625000000        -5.068984518786211E-069
   115.959375000000        -5.799098786630441E-069
   116.173125000000        -5.725048215026007E-069
   116.386875000000        -4.521302491913802E-069
   116.600625000000        -1.942098022376434E-069
   116.814375000000         2.098788813247153E-069
   117.028125000000         7.445859096095853E-069
   117.241875000000         1.363181131209327E-068
   117.455625000000         1.983760151306547E-068
   117.669375000000         2.490224145493624E-068
   117.883125000000         2.740047622035409E-068
   118.096875000000         2.580110980905818E-068
   118.310625000000         1.870892572982159E-068
   118.524375000000         5.178950409198874E-069
   118.738125000000        -1.492588432394466E-068
   118.951875000000        -4.058196015457160E-068
   119.165625000000        -6.932349348249600E-068
   119.379375000000        -9.711201623597878E-068
   119.593125000000        -1.184405572041050E-067
   119.806875000000        -1.267469425513709E-067
   120.020625000000        -1.151843849133659E-067
   120.234375000000        -7.775244813976247E-068
   120.448125000000        -1.072820636843041E-068
   120.661875000000         8.573998102195979E-068
   120.875625000000         2.060971100421433E-067
   121.089375000000         3.382028803959937E-067
   121.303125000000         4.628631682546128E-067
   121.516875000000         5.544396754758998E-067
   121.730625000000         5.828613791891478E-067
   121.944375000000         5.172422079550808E-067
   122.158125000000         3.311063933788116E-067
   122.371875000000         8.938106719979621E-069
   122.585625000000        -4.465777789043160E-067
   122.799375000000        -1.007636518865759E-066
   123.013125000000        -1.616083259976414E-066
   123.226875000000        -2.181495887506143E-066
   123.440625000000        -2.584278304453275E-066
   123.654375000000        -2.685262051690083E-066
   123.868125000000        -2.342764314732312E-066