  -1.60312500000000         0.000000000000000E+000
  -1.38937500000000         0.000000000000000E+000
  -1.17562500000000         0.000000000000000E+000
 -0.961875000000000         0.000000000000000E+000
 -0.748125000000000         0.000000000000000E+000
 -0.534375000000000         0.000000000000000E+000
 -0.320625000000000         0.000000000000000E+000
 -0.106875000000000         0.000000000000000E+000
  0.106875000000000         0.000000000000000E+000
  0.320625000000000         0.000000000000000E+000
  0.534375000000000         0.000000000000000E+000
  0.748125000000000         0.000000000000000E+000
  0.961875000000000         0.000000000000000E+000
   1.17562500000000         0.000000000000000E+000
   1.38937500000000         0.000000000000000E+000
   1.60312500000000         0.000000000000000E+000
   1.81687500000000         0.000000000000000E+000
   2.03062500000000         0.000000000000000E+000
   2.24437500000000         0.000000000000000E+000
   2.45812500000000         0.000000000000000E+000
   2.67187500000000         0.000000000000000E+000
   2.88562500000000         0.000000000000000E+000
   3.09937500000000         0.000000000000000E+000
   3.31312500000000         0.000000000000000E+000
   3.52687500000000         0.000000000000000E+000
   3.74062500000000         0.000000000000000E+000
   3.95437500000000         0.000000000000000E+000
   4.16812500000000         0.000000000000000E+000
   4.38187500000000         0.000000000000000E+000
   4.59562500000000         0.000000000000000E+000
   4.80937500000000         0.000000000000000E+000
   5.02312500000000         0.000000000000000E+000
   5.23687500000000         0.000000000000000E+000
   5.45062500000000         0.000000000000000E+000
   5.66437500000000         0.000000000000000E+000
   5.87812500000000         0.000000000000000E+000
   6.09187500000000         0.000000000000000E+000
   6.30562500000000         0.000000000000000E+000
   6.51937500000000         0.000000000000000E+000
   6.73312500000000         0.000000000000000E+000
   6.94687500000000         0.000000000000000E+000
   7.16062500000000         0.000000000000000E+000
   7.37437500000000         0.000000000000000E+000
   7.58812500000000         0.000000000000000E+000
   7.80187500000000         0.000000000000000E+000
   8.01562500000000         0.000000000000000E+000
   8.22937500000000         0.000000000000000E+000
   8.44312500000000         0.000000000000000E+000
   8.65687500000000         0.000000000000000E+000
   8.87062500000000         0.000000000000000E+000
   9.08437500000000         0.000000000000000E+000
   9.29812500000000         0.000000000000000E+000
   9.51187500000000         2.563837598303555E-203
   9.72562500000000        -1.076305876047221E-190
   9.93937500000000        -4.200645083016929E-188
   10.1531250000000        -1.468237680688067E-186
   10.3668750000000        -1.620794895554991E-183
   10.5806250000000        -9.702291289424600E-182
   10.7943750000000        -1.130171910923355E-180
   11.0081250000000         4.678751974041182E-179
   11.2218750000000         1.962445121318231E-177
   11.4356250000000         3.367010521138745E-176
   11.6493750000000         2.716345785275783E-175
   11.8631250000000        -6.650130536833011E-175
   12.0768750000000        -4.610377987150385E-173
   12.2906250000000        -5.514042928524626E-172
   12.5043750000000        -1.394893135391854E-171
   12.7181250000000         6.555962794076936E-170
   12.9318750000000         1.517912563534216E-168
   13.1456250000000         2.169356532724275E-167
   13.3593750000000         2.503795524048842E-166
   13.5731250000000         2.562024106659817E-165
   13.7868750000000         2.434742282139636E-164
   14.0006250000000         2.193800869781407E-163
   14.2143750000000         1.881152234459332E-162
   14.4281250000000         1.527493527555959E-161
   14.6418750000000         1.166507178847298E-160
   14.8556250000000         8.334087812076318E-160
   15.0693750000000         5.554251351491987E-159
   15.2831250000000         3.449351571076800E-158
   15.4968750000000         1.996258656549955E-157
   15.7106250000000         1.077113895094007E-156
   15.9243750000000         5.420113467175685E-156
   16.1381250000000         2.542906786429072E-155
   16.3518750000000         1.110765329391321E-154
   16.5656250000000         4.502920692102007E-154
   16.7793750000000         1.683578355772880E-153
   16.9931250000000         5.736904671250221E-153
   17.2068750000000         1.739524924029309E-152
   17.4206250000000         4.436991721461904E-152
   17.6343750000000         7.889407399596541E-152
   17.8481250000000        -2.009622178554485E-152
   18.0618750000000        -1.057274965156638E-150
   18.2756250000000        -6.485013684789790E-150
   18.4893750000000        -2.885465305519570E-149
   18.7031250000000        -1.081849894391851E-148
   18.9168750000000        -3.568842155730701E-148
   19.1306250000000        -1.047752223040875E-147
   19.3443750000000        -2.716520939542018E-147
   19.5581250000000        -6.017693032260996E-147
   19.7718750000000        -1.029474868606689E-146
   19.9856250000000        -7.886112962063965E-147
   20.1993750000000         3.199085811787821E-146
   20.4131250000000         1.953036311183130E-145
   20.6268750000000         6.446451903123033E-145
   20.8406250000000         1.435508302435850E-144
   21.0543750000000         1.304239189913627E-144
   21.2681250000000        -7.356885829273479E-144
   21.4818750000000        -5.545175128661952E-143
   21.6956250000000        -2.468924371863675E-142
   21.9093750000000        -8.880743899496918E-142
   22.1231250000000        -2.787418137889081E-141
   22.3368750000000        -7.857479144498001E-141
   22.5506250000000        -2.009348946886080E-140
   22.7643750000000        -4.651268478655679E-140
   22.9781250000000        -9.584341361734852E-140
   23.1918750000000        -1.676792849175113E-139
   23.4056250000000        -2.126687794511966E-139
   23.6193750000000        -1.916331335896490E-140
   23.8331250000000         1.062547116999558E-138
   24.0468750000000         4.708584996916689E-138
   24.2606250000000         1.471747487390277E-137
   24.4743750000000         3.872436678690914E-137
   24.6881250000000         9.015960829887659E-137
   24.9018750000000         1.886826467023262E-136
   25.1156250000000         3.542934440186193E-136
   25.3293750000000         5.851544386713023E-136
   25.5431250000000         8.029392271536754E-136
   25.7568750000000         7.480120417782226E-136
   25.9706250000000        -1.747200729566041E-136
   26.1843750000000        -3.030590489415693E-135
   26.3981250000000        -9.247802635774590E-135
   26.6118750000000        -1.980269151884920E-134
   26.8256250000000        -3.306431445898999E-134
   27.0393750000000        -4.119242455028168E-134
   27.2531250000000        -2.780418452403708E-134
   27.4668750000000         2.203861439797096E-134
   27.6806250000000         6.962081071120650E-134
   27.8943750000000        -1.357248074761134E-133
   28.1081250000000        -1.429584926716824E-132
   28.3218750000000        -5.948421959466796E-132
   28.5356250000000        -1.819841785393047E-131
   28.7493750000000        -4.596303989465306E-131
   28.9631250000000        -9.909050970340676E-131
   29.1768750000000        -1.810411887574926E-130
   29.3906250000000        -2.623574324132192E-130
   29.6043750000000        -2.170172123838233E-130
   29.8181250000000         3.046215593177514E-130
   30.0318750000000         2.087145955493778E-129
   30.2456250000000         6.620209704036924E-129
   30.4593750000000         1.625989821719703E-128
   30.6731250000000         3.378879852354864E-128
   30.8868750000000         6.027127407929723E-128
   31.1006250000000         8.915913675208836E-128
   31.3143750000000         9.353865467000468E-128
   31.5281250000000         3.070361226806336E-129
   31.7418750000000        -3.303168536802078E-127
   31.9556250000000        -1.169351326095262E-126
   32.1693750000000        -2.898897617270125E-126
   32.3831250000000        -5.926039194926303E-126
   32.5968750000000        -1.032071112325486E-125
   32.8106250000000        -1.495134600471889E-125
   33.0243750000000        -1.580413700689164E-125
   33.2381250000000        -3.259443591737529E-126
   33.4518750000000         4.141867655443327E-125
   33.6656250000000         1.488405709350637E-124
   33.8793750000000         3.593548775672777E-124
   34.0931250000000         7.075486303398799E-124
   34.3068750000000         1.179154420163738E-123
   34.5206250000000         1.621073029779393E-123
   34.7343750000000         1.586597232246612E-123
   34.9481250000000         1.172277088617703E-124
   35.1618750000000        -4.481696632971038E-123
   35.3756250000000        -1.469824127071306E-122
   35.5893750000000        -3.333530899157848E-122
   35.8031250000000        -6.186266857794151E-122
   36.0168750000000        -9.671444746717821E-122
   36.2306250000000        -1.226304879366753E-121
   36.4443750000000        -1.027912374641002E-121
   36.6581250000000         3.250759211830428E-122
   36.8718750000000         3.927260852475500E-121
   37.0856250000000         1.116638753507406E-120
   37.2993750000000         2.322447254951853E-120
   37.5131250000000         3.987600082435174E-120
   37.7268750000000         5.726535961568315E-120
   37.9406250000000         6.454657456616055E-120
   38.1543750000000         3.987267792924818E-120
   38.3681250000000        -5.255970031533871E-120
   38.5818750000000        -2.607670149334401E-119
   38.7956250000000        -6.324699370769271E-119
   39.0093750000000        -1.183765869675928E-118
   39.2231250000000        -1.841372249755866E-118
   39.4368750000000        -2.356948683671006E-118
   39.6506250000000        -2.207872625989847E-118
   39.8643750000000        -5.277038754877108E-119
   40.0781250000000         3.849613607773938E-118
   40.2918750000000         1.210572146437072E-117
   40.5056250000000         2.477121697651864E-117
   40.7193750000000         4.058833515334587E-117
   40.9331250000000         5.500065603371104E-117
   41.1468750000000         5.873381672617230E-117
   41.3606250000000         3.746515527778399E-117
   41.5743750000000        -2.587373169577419E-117
   41.7881250000000        -1.444483337413105E-116
   42.0018750000000        -3.156882568904491E-116
   42.2156250000000        -5.061913947017758E-116
   42.4293750000000        -6.405430293363021E-116
   42.6431250000000        -6.085267849166179E-116
   42.8568750000000        -3.117423618450141E-116
   43.0706250000000         2.301453711548633E-116
   43.2843750000000         7.123903176440194E-116
   43.4981250000000         3.671941937136690E-116
   43.7118750000000        -2.083063296670354E-115
   43.9256250000000        -8.073627190067099E-115
   44.1393750000000        -1.806630444566650E-114
   44.3531250000000        -2.926975322097440E-114
   44.5668750000000        -3.215651871937003E-114
   44.7806250000000        -6.573985597824709E-115
   44.9943750000000         8.018405687172111E-114
   45.2081250000000         2.687688636206998E-113
   45.4218750000000         5.898657235599309E-113
   45.6356250000000         1.025661877211673E-112
   45.8493750000000         1.447242255808980E-112
   46.0631250000000         1.536375960926614E-112
   46.2768750000000         7.231645459252516E-113
   46.4906250000000        -1.795460255257659E-112
   46.7043750000000        -6.856418084932492E-112
   46.9181250000000        -1.483702398480308E-111
   47.1318750000000        -2.480292556018504E-111
   47.3456250000000        -3.339737689092760E-111
   47.5593750000000        -3.389687700214794E-111
   47.7731250000000        -1.633449250049731E-111
   47.9868750000000         2.991904172865848E-111
   48.2006250000000         1.095831132640475E-110
   48.4143750000000         2.102117238488223E-110
   48.6281250000000         2.882519962438541E-110
   48.8418750000000         2.597318294809926E-110
   49.0556250000000         1.081382488714448E-111
   49.2693750000000        -5.480786044139283E-110
   49.4831250000000        -1.357553355670083E-109
   49.6968750000000        -1.999625285699094E-109
   49.9106250000000        -1.433397510174040E-109
   50.1243750000000         2.199939632688892E-109
   50.3381250000000         1.142711426699118E-108
   50.5518750000000         2.848199714389449E-108
   50.7656250000000         5.291626189236136E-108
   50.9793750000000         7.721697984652050E-108
   51.1931250000000         8.040527754719710E-108
   51.4068750000000         2.098759376200607E-108
   51.6206250000000        -1.667546366410440E-107
   51.8343750000000        -5.652323940357886E-107
   52.0481250000000        -1.242277306476779E-106
   52.2618750000000        -2.180351421251199E-106
   52.4756250000000        -3.152500568754181E-106
   52.6893750000000        -3.545116817163217E-106
   52.9031250000000        -2.161458720479597E-106
   53.1168750000000         2.898376509862927E-106
   53.3306250000000         1.409387012453688E-105
   53.5443750000000         3.374181844425374E-105
   53.7581250000000         6.237713639361416E-105
   53.9718750000000         9.582283917553431E-105
   54.1856250000000         1.208798832151648E-104
   54.3993750000000         1.102256644614731E-104
   54.6131250000000         1.837181284513680E-105
   54.8268750000000        -2.175543594568429E-104
   55.0406250000000        -6.660786089057797E-104
   55.2543750000000        -1.370477368571923E-103
   55.4681250000000        -2.290145953797329E-103
   55.6818750000000        -3.209554775429113E-103
   55.8956250000000        -3.621523113288246E-103
   56.1093750000000        -2.614015666987980E-103
   56.3231250000000         1.174658671434820E-103
   56.5368750000000         9.420580666185951E-103
   56.7506250000000         2.363974119511160E-102
   56.9643750000000         4.419059966299033E-102
   57.1781250000000         6.860890585743349E-102
   57.3918750000000         8.929048088064119E-102
   57.6056250000000         9.088636315445145E-102
   57.8193750000000         4.836455548271357E-102
   58.0331250000000        -7.247991574777542E-102
   58.2468750000000        -3.093440978570249E-101
   58.4606250000000        -6.891142693415928E-101
   58.6743750000000        -1.201576631366594E-100
   58.8881250000000        -1.759588797872057E-100
   59.1018750000000        -2.148831121747103E-100
   59.3156250000000        -1.978865601657071E-100
   59.5293750000000        -6.602216642977165E-101
   59.7431250000000         2.551501868560052E-100
   59.9568750000000         8.387855918575195E-100
   60.1706250000000         1.721227611822809E-099
   60.3843750000000         2.842774840877421E-099
   60.5981250000000         3.965064806152963E-099
   60.8118750000000         4.576407293825056E-099
   61.0256250000000         3.814445080508318E-099
   61.2393750000000         4.601806145726259E-100
   61.4531250000000        -6.915153416085106E-099
   61.6668750000000        -1.954787144725736E-098
   61.8806250000000        -3.772329460220028E-098
   62.0943750000000        -5.960744399007747E-098
   62.3081250000000        -7.973702633538536E-098
   62.5218750000000        -8.745653904990253E-098
   62.7356250000000        -6.592011702810634E-098
   62.9493750000000         7.315967163391435E-099
   63.1631250000000         1.566883419773504E-097
   63.3768750000000         4.003845944653833E-097
   63.5906250000000         7.361136990146351E-097
   63.8043750000000         1.120658910873497E-096
   64.0181250000000         1.445340213418071E-096
   64.2318750000000         1.513372187028289E-096
   64.4456250000000         1.030372804418711E-096
   64.6593750000000        -3.748019610056363E-097
   64.8731250000000        -3.076929783127913E-096
   65.0868750000000        -7.306421259081501E-096
   65.3006250000000        -1.291177665916878E-095
   65.5143750000000        -1.903935988736118E-095
   65.7281250000000        -2.377705437994270E-095
   65.9418750000000        -2.386791123362287E-095
   66.1556250000000        -1.467466807403754E-095
   66.3693750000000         9.348982487092124E-096
   66.5831250000000         5.337844069795174E-095
   66.7968750000000         1.198556717164575E-094
   67.0106250000000         2.049306835476574E-094
   67.2243750000000         2.939475508496831E-094
   67.4381250000000         3.568056965896781E-094
   67.6518750000000         3.448448804550437E-094
   67.8656250000000         1.918444461146071E-094
   68.0793750000000        -1.774497479055903E-094
   68.2931250000000        -8.275711426175772E-094
   68.5068750000000        -1.778491062941425E-093
   68.7206250000000        -2.957487161608577E-093
   68.9343750000000        -4.141620392886294E-093
   69.1481250000000        -4.903538571633709E-093
   69.3618750000000        -4.583372801011405E-093
   69.5756250000000        -2.320039375175965E-093
   69.7893750000000         2.817103352715016E-093
   70.0031250000000         1.155584418476152E-092
   70.2168750000000         2.398312018010075E-092
   70.4306250000000         3.895439762055063E-092
   70.6443750000000         5.342879979867481E-092
   70.8581250000000         6.190136519257376E-092
   71.0718750000000         5.621468759814725E-092
   71.2856250000000         2.613671926683716E-092
   71.4993750000000        -3.885223878698153E-092
   71.7131250000000        -1.461718812015871E-091
   71.9268750000000        -2.949919678525502E-091
   72.1406250000000        -4.696326260639748E-091
   72.3543750000000        -6.325804996649455E-091
   72.5681250000000        -7.191850349590316E-091
   72.7818750000000        -6.371990521484850E-091
   72.9956250000000        -2.752349806491721E-091
   73.2093750000000         4.755380062018023E-091
   73.4231250000000         1.683132172090933E-090
   73.6368750000000         3.319497089521711E-090
   73.8506250000000         5.193201040467428E-090
   74.0643750000000         6.882793261662335E-090
   74.2781250000000         7.693311877269995E-090
   74.4918750000000         6.668188646815178E-090
   74.7056250000000         2.695492074019152E-090
   74.9193750000000        -5.253513190136148E-090
   75.1331250000000        -1.772961150610905E-089
   75.3468750000000        -3.426333159233535E-089
   75.5606250000000        -5.273791007313548E-089
   75.7743750000000        -6.881472340415865E-089
   75.9881250000000        -7.563390956304937E-089
   76.2018750000000        -6.409019549420231E-089
   76.4156250000000        -2.402210072717098E-089
   76.6293750000000         5.338917125472757E-089
   76.8431250000000         1.718815787911404E-088
   77.0568750000000         3.252341529959285E-088
   77.2706250000000         4.919516491655425E-088
   77.4843750000000         6.308578047463034E-088
   77.6981250000000         6.796222284408881E-088
   77.9118750000000         5.587718298919633E-088
   78.1256250000000         1.838355617374269E-088
   78.3393750000000        -5.123920635651611E-088
   78.5531250000000        -1.547234410835275E-087
   78.7668750000000        -2.847979901198313E-087
   78.9806250000000        -4.211310417713848E-087
   79.1943750000000        -5.274499364127160E-087
   79.4081250000000        -5.515353795121267E-087
   79.6218750000000        -4.300679624598607E-087
   79.8356250000000        -1.001627285228831E-087
   80.0493750000000         4.813834573498466E-087
   80.2631250000000         1.311791792454718E-086
   80.4768750000000         2.312238085327664E-086
   80.6906250000000         3.300711016521317E-086
   80.9043750000000         3.978097441712526E-086
   81.1181250000000         3.940662327888113E-086
   81.3318750000000         2.732780497735771E-086
   81.5456250000000        -4.939993689471209E-088
   81.7593750000000        -4.601354824386367E-086
   81.9731250000000        -1.071380197690397E-085
   82.1868750000000        -1.757098947440322E-085
   82.4006250000000        -2.360294625458600E-085
   82.6143750000000        -2.647393330170204E-085
   82.8281250000000        -2.330181656898212E-085
   83.0418750000000        -1.119400774538589E-085
   83.2556250000000         1.185683367509275E-085
   83.4693750000000         4.575925042262998E-085
   83.6831250000000         8.696329463938809E-085
   83.8968750000000         1.272900325918063E-084
   84.1106250000000         1.534539592964375E-084
   84.3243750000000         1.479044823733172E-084
   84.5381250000000         9.161824625181462E-085
   84.7518750000000        -3.071966704828906E-085
   84.9656250000000        -2.231765280236851E-084
   85.1793750000000        -4.694900394502691E-084
   85.3931250000000        -7.243264970579558E-084
   85.6068750000000        -9.079670313853501E-084
   85.8206250000000        -9.085626721751801E-084
   86.0343750000000        -5.965559769340850E-084
   86.2481250000000         1.448337983016384E-084
   86.4618750000000         1.371608930834649E-083
   86.6756250000000         3.016649245176368E-083
   86.8893750000000         4.823067654376294E-083
   87.1031250000000         6.291803601970223E-083
   87.3168750000000         6.670571230318059E-083
   87.5306250000000         5.017291777218333E-083
   87.7443750000000         3.709046621975912E-084
   87.9581250000000        -7.948316593990722E-083
   88.1718750000000        -1.991209721301184E-082
   88.3856250000000        -3.427632050797929E-082
   88.5993750000000        -4.809456636045323E-082
   88.8131250000000        -5.642123497155392E-082
   89.0268750000000        -5.243192981043612E-082
   89.2406250000000        -2.821956849992248E-082
   89.4543750000000         2.350232908544077E-082
   89.6681250000000         1.066740629953427E-081
   89.8818750000000         2.182584132773904E-081
   90.0956250000000         3.441759820040137E-081
   90.3093750000000         4.557377223051561E-081
   90.5231250000000         5.079979032334429E-081
   90.7368750000000         4.418551456930731E-081
   90.9506250000000         1.918659267735202E-081
   91.1643750000000        -2.986159892154190E-081
   91.3781250000000        -1.054422815107448E-080
   91.5918750000000        -2.039064463472548E-080
   91.8056250000000        -3.122944536496784E-080
   92.0193750000000        -4.057010630545040E-080
   92.2331250000000        -4.463137701723072E-080
   92.4468750000000        -3.855258135314045E-080
   92.6606250000000        -1.705745854041844E-080
   92.8743750000000         2.431752660473212E-080
   93.0881250000000         8.740500434412404E-080
   93.3018750000000         1.691232214162946E-079
   93.5156250000000         2.590638990478560E-079
   93.7293750000000         3.375426475731253E-079
   93.9431250000000         3.749564284948725E-079
   94.1568750000000         3.334733957939034E-079
   94.3706250000000         1.720930971263083E-079
   94.5843750000000        -1.441498687981899E-079
   94.7981250000000        -6.307093725721529E-079
   95.0118750000000        -1.266732297421561E-078
   95.2256250000000        -1.977399122821428E-078
   95.4393750000000        -2.619626661377545E-078
   95.6531250000000        -2.977088568215445E-078
   95.8668750000000        -2.771707022696557E-078
   96.0806250000000        -1.698790022474900E-078
   96.2943750000000         5.088874977086837E-079
   96.5081250000000         3.987183368189229E-078
   96.7218750000000         8.623326450691677E-078
   96.9356250000000         1.393180698412328E-077
   97.1493750000000         1.895169642167759E-077
   97.3631250000000         2.220508499566283E-077
   97.5768750000000         2.176420172012291E-077
   97.7906250000000         1.547499847781725E-077
   98.0043750000000         1.372991172794241E-078
   98.2181250000000        -2.170107809502157E-077
   98.4318750000000        -5.332485381258294E-077
   98.6456250000000        -9.066017095779981E-077
   98.8593750000000        -1.277385686292983E-076
   99.0731250000000        -1.551166608463908E-076
   99.2868750000000        -1.602026720625576E-076
   99.5006250000000        -1.285600466976749E-076
   99.7143750000000        -4.642459629626305E-077
   99.9281250000000         9.549616512103605E-077
   100.141875000000         2.971523328700510E-076
   100.355625000000         5.438044563722490E-076
   100.569375000000         8.012464423687638E-076
   100.783125000000         1.013090245191294E-075
   100.996875000000         1.101929852306448E-075
   101.210625000000         9.762631454557310E-076
   101.424375000000         5.446871797142880E-076
   101.638125000000        -2.620468907511683E-076
   101.851875000000        -1.462109686536001E-075
   102.065625000000        -2.989982540679775E-075
   102.279375000000        -4.665950879887364E-075
   102.493125000000        -6.176116569053335E-075
   102.706875000000        -7.073361039382280E-075
   102.920625000000        -6.810301019175639E-075
   103.134375000000        -4.813594886924779E-075
   103.348125000000        -6.041752165085011E-076
   103.561875000000         6.040388276689607E-075
   103.775625000000         1.489704946092805E-074
   103.989375000000         2.511199586008728E-074
   104.203125000000         3.506375742329053E-074
   104.416875000000         4.233162000928061E-074
   104.630625000000         4.383132741553341E-074
   104.844375000000         3.617342902472731E-074
   105.058125000000         1.627689606526815E-074
   105.271875000000        -1.777111433276203E-074
   105.485625000000        -6.567921072208353E-074
   105.699375000000        -1.238846766924840E-073
   105.913125000000        -1.846807344990066E-073
   106.126875000000        -2.358326822375135E-073
   106.340625000000        -2.610144470137931E-073
   106.554375000000        -2.413779026162216E-073
   106.768125000000        -1.584686867312615E-073
   106.981875000000         1.492410048796572E-075
   107.195625000000         2.422373010565692E-073
   107.409375000000         5.516382325323401E-073
   107.623125000000         8.965193316441149E-073
   107.836875000000         1.219534546018615E-072
   108.050625000000         1.439797352629887E-072
   108.264375000000         1.458937495816303E-072
   108.478125000000         1.173879464994914E-072
   108.691875000000         4.967950318714116E-073
   108.905625000000        -6.186554884642867E-073
   109.119375000000        -2.147452938656159E-072
   109.333125000000        -3.964410624994995E-072
   109.546875000000        -5.823087206663040E-072
   109.760625000000        -7.350538183383032E-072
   109.974375000000        -8.066421337289675E-072
   110.188125000000        -7.433742727585730E-072
   110.401875000000        -4.945194860386039E-072
   110.615625000000        -2.433493084575387E-073
   110.829375000000         6.734939544024561E-072
   111.043125000000         1.560901845077626E-071
   111.256875000000         2.542862370455059E-071
   111.470625000000         3.460865963116702E-071
   111.684375000000         4.096546338073269E-071
   111.898125000000         4.189278200104713E-071
   112.111875000000         3.470395229693202E-071
   112.325625000000         1.714442177661149E-071
   112.539375000000        -1.195426154943467E-071
   112.753125000000        -5.194940957581653E-071
   112.966875000000        -9.970683398466472E-071
   113.180625000000        -1.491223929418865E-070
   113.394375000000        -1.910303332957937E-070
   113.608125000000        -2.136856637766847E-070
   113.821875000000        -2.039735968879583E-070
   114.035625000000        -1.494197252056912E-070
   114.249375000000        -4.094682195619283E-071
   114.463125000000         1.238469844877074E-070
   114.676875000000         3.373127094141230E-070
   114.890625000000         5.789005415727822E-070
   115.104375000000         8.136180726874692E-070
   115.318125000000         9.926528383241833E-070
   115.531875000000         1.056952476950329E-069
   115.745625000000         9.443130272397111E-070
   115.959375000000         6.000764270387369E-070
   116.173125000000        -9.115560068269555E-072
   116.386875000000        -8.798796328871125E-070
   116.600625000000        -1.957217777840411E-069
   116.814375000000        -3.123288560719193E-069
   117.028125000000        -4.193467650335226E-069
   117.241875000000        -4.923452418343539E-069
   117.455625000000        -5.030612507325418E-069
   117.669375000000        -4.231411180926754E-069
   117.883125000000        -2.294449788303419E-069
   118.096875000000         8.944136748814389E-070
   118.310625000000         5.262105656701718E-069
   118.524375000000         1.048459091549967E-068
   118.738125000000         1.594369756322792E-068
   118.951875000000         2.072085454921169E-068
   119.165625000000         2.364385982132072E-068
   119.379375000000         2.339953966698965E-068
   119.593125000000         1.871826253335194E-068
   119.806875000000         8.625547379081044E-069
   120.020625000000        -7.258116755103339E-069
   120.234375000000        -2.840444745061856E-068
   120.448125000000        -5.310321460871941E-068
   120.661875000000        -7.829214345810035E-068
   120.875625000000        -9.956369295582017E-068
   121.089375000000        -1.114188587117551E-067
   121.303125000000        -1.078218519275975E-067
   121.516875000000        -8.307706092010685E-068
   121.730625000000        -3.300044092731810E-068
   121.944375000000         4.370656904807981E-068
   122.158125000000         1.440458905903754E-067
   122.371875000000         2.595131528339051E-067
   122.585625000000         3.753887887939956E-067
   122.799375000000         4.708607047026158E-067
   123.013125000000         5.202946527234956E-067
   123.226875000000         4.958912716741094E-067
   123.440625000000         3.718173886769623E-067
   123.654375000000         1.296702527102554E-067
   123.868125000000        -2.351639889649978E-067