  -1.42500000000000        -3.980229100110873E-019
  -1.23500000000000         7.552679389910999E-020
  -1.04500000000000         1.823634670373235E-018
 -0.855000000000000         8.609643928177681E-018
 -0.665000000000000         2.967628354934260E-017
 -0.475000000000000         9.286004808240963E-017
 -0.285000000000000         2.485721430330503E-016
 -9.499999999999975E-002    5.689084636192880E-016
  9.500000000000020E-002    1.210493538652171E-015
  0.285000000000000         2.343673897502613E-015
  0.475000000000000         4.039077892696407E-015
  0.665000000000000         6.052408769754116E-015
  0.855000000000000         8.175915944990529E-015
   1.04500000000000         1.146706433438229E-014
   1.23500000000000         1.504675106275391E-014
   1.42500000000000         1.624041563376218E-014
   1.61500000000000         1.870144434322558E-014
   1.80500000000000         2.171338774224669E-014
   1.99500000000000         2.459352269301362E-014
   2.18500000000000         2.768122509988125E-014
   2.37500000000000         3.084833457493878E-014
   2.56500000000000         3.378379495631269E-014
   2.75500000000000         3.638512667045431E-014
   2.94500000000000         3.861199701955341E-014
   3.13500000000000         4.009611292595384E-014
   3.32500000000000         4.059924491382467E-014
   3.51500000000000         4.160753166495915E-014
   3.70500000000000         4.196237123114619E-014
   3.89500000000000         4.233103700599642E-014
   4.08500000000000         4.261534483319833E-014
   4.27500000000000         4.288407894030240E-014
   4.46500000000000         4.318334936799887E-014
   4.65500000000000         4.341167379972337E-014
   4.84500000000000         4.344382183868940E-014
   5.03500000000000         4.314422382515723E-014
   5.22500000000000         4.303301087724821E-014
   5.41500000000000         4.232079668345473E-014
   5.60500000000000         4.150495222588225E-014
   5.79500000000000         4.061905189734522E-014
   5.98500000000000         3.996480655639372E-014
   6.17500000000000         3.991974743481563E-014
   6.36500000000000         4.077213616898306E-014
   6.55500000000000         4.231214684435787E-014
   6.74500000000000         4.417927202495893E-014
   6.93500000000000         4.651229265243506E-014
   7.12500000000000         4.986274263301993E-014
   7.31500000000000         5.318070591721305E-014
   7.50500000000000         5.579356452296888E-014
   7.69500000000000         5.736707220255560E-014
   7.88500000000000         5.799110132791904E-014
   8.07500000000000         5.784512328979665E-014
   8.26500000000000         5.739019464863341E-014
   8.45500000000000         5.632630589038487E-014
   8.64500000000000         5.487688115559172E-014
   8.83500000000000         5.308921349890168E-014
   9.02500000000000         4.924454138209985E-014
   9.21500000000000         4.219272761964391E-014
   9.40500000000000         3.318137827736053E-014
   9.59500000000000         2.596078734329459E-014
   9.78500000000000         2.031538565674438E-014
   9.97500000000000         1.603812379551381E-014
   10.1650000000000         1.363221263198024E-014
   10.3550000000000         1.211247679284300E-014
   10.5450000000000         1.068190702092359E-014
   10.7350000000000         1.045473144112074E-014
   10.9250000000000         1.032955932210469E-014
   11.1150000000000         1.010831971503612E-014
   11.3050000000000         9.771311401126127E-015
   11.4950000000000         9.473842883781744E-015
   11.6850000000000         9.457601951641657E-015
   11.8750000000000         9.987545240730441E-015
   12.0650000000000         1.114818681645898E-014
   12.2550000000000         1.270243437998037E-014
   12.4450000000000         1.499764626650735E-014
   12.6350000000000         1.558616376061625E-014
   12.8250000000000         1.793644482183620E-014
   13.0150000000000         2.010020276400671E-014
   13.2050000000000         2.216680845484620E-014
   13.3950000000000         2.476118000183828E-014
   13.5850000000000         2.719934362574992E-014
   13.7750000000000         2.892099261222803E-014
   13.9650000000000         3.004038884853023E-014
   14.1550000000000         3.025377829286849E-014
   14.3450000000000         3.089451572318853E-014
   14.5350000000000         3.106340875415375E-014
   14.7250000000000         3.141078006969085E-014
   14.9150000000000         3.218998939525255E-014
   15.1050000000000         3.398796364784325E-014
   15.2950000000000         3.732942401580965E-014
   15.4850000000000         4.173607982843709E-014
   15.6750000000000         4.596102529015057E-014
   15.8650000000000         5.022675169135049E-014
   16.0550000000000         5.454858863482888E-014
   16.2450000000000         5.785502987389089E-014
   16.4350000000000         6.005857441939643E-014
   16.6250000000000         6.143510386755588E-014
   16.8150000000000         6.233592003350803E-014
   17.0050000000000         6.248869736299374E-014
   17.1950000000000         6.271777001254449E-014
   17.3850000000000         6.273619355441534E-014
   17.5750000000000         6.246334155225330E-014
   17.7650000000000         6.233019846900373E-014
   17.9550000000000         6.204950856798402E-014
   18.1450000000000         6.178344548026105E-014
   18.3350000000000         6.148240559360587E-014
   18.5250000000000         6.105098941988710E-014
   18.7150000000000         5.998279114726476E-014
   18.9050000000000         5.814142854774751E-014
   19.0950000000000         5.542996773022529E-014
   19.2850000000000         5.189629189126350E-014
   19.4750000000000         4.813733748604270E-014
   19.6650000000000         4.443247498946888E-014
   19.8550000000000         4.058467443852585E-014
   20.0450000000000         3.713029355114364E-014
   20.2350000000000         3.425363517574329E-014
   20.4250000000000         3.168649004642952E-014
   20.6150000000000         2.895851403979088E-014
   20.8050000000000         2.613357280745620E-014
   20.9950000000000         2.329140220255478E-014
   21.1850000000000         2.260403496386764E-014
   21.3750000000000         1.939280919905780E-014
   21.5650000000000         1.881990060210264E-014
   21.7550000000000         1.746256313303617E-014
   21.9450000000000         1.518799511686015E-014
   22.1350000000000         1.236088967827674E-014
   22.3250000000000         8.808852798204845E-015
   22.5150000000000         7.009097995288058E-015
   22.7050000000000         7.427535117994490E-015
   22.8950000000000         1.021262350849063E-014
   23.0850000000000         1.397585776084509E-014
   23.2750000000000         1.815456379467706E-014
   23.4650000000000         2.246493348799746E-014
   23.6550000000000         2.779880149909428E-014
   23.8450000000000         3.368477866806498E-014
   24.0350000000000         3.945148274088876E-014
   24.2250000000000         4.519154412576570E-014
   24.4150000000000         5.055795266034575E-014
   24.6050000000000         5.614612731896086E-014
   24.7950000000000         5.926840551332797E-014
   24.9850000000000         6.199876965329414E-014
   25.1750000000000         6.307476842386572E-014
   25.3650000000000         6.355411494322558E-014
   25.5550000000000         6.328763311268562E-014
   25.7450000000000         6.213994832728361E-014
   25.9350000000000         6.051306552749047E-014
   26.1250000000000         5.885070442739897E-014
   26.3150000000000         5.753041459021244E-014
   26.5050000000000         5.602213529409732E-014
   26.6950000000000         5.471398890427394E-014
   26.8850000000000         5.336886587627357E-014
   27.0750000000000         5.178688994993557E-014
   27.2650000000000         5.018796323367929E-014
   27.4550000000000         4.922969488854141E-014
   27.6450000000000         4.888960126867632E-014
   27.8350000000000         4.899696757078063E-014
   28.0250000000000         4.926914891191863E-014
   28.2150000000000         4.980416078276412E-014
   28.4050000000000         5.073525129339518E-014
   28.5950000000000         5.193535876991539E-014
   28.7850000000000         5.251504003692577E-014
   28.9750000000000         5.123354930677539E-014
   29.1650000000000         4.829600131699612E-014
   29.3550000000000         4.402646266195452E-014
   29.5450000000000         3.752375698923686E-014
   29.7350000000000         3.070685273041138E-014
   29.9250000000000         2.411584962656485E-014
   30.1150000000000         1.847939573318126E-014
   30.3050000000000         1.290697608391961E-014
   30.4950000000000         8.313459459111071E-015
   30.6850000000000         7.485733614307133E-015
   30.8750000000000         4.492401644047211E-015
   31.0650000000000        -5.324919042517884E-017
   31.2550000000000        -2.999926824162639E-015
   31.4450000000000        -3.397958226504628E-015
   31.6350000000000        -1.553584310617314E-015
   31.8250000000000         8.298764735100671E-016
   32.0150000000000         3.561017397713693E-015
   32.2050000000000         6.619060587794394E-015
   32.3950000000000         1.082576514046422E-014
   32.5850000000000         1.337782323064333E-014
   32.7750000000000         1.513025763695169E-014
   32.9650000000000         1.736111132084833E-014
   33.1550000000000         1.810725002304369E-014
   33.3450000000000         1.931213567598809E-014
   33.5350000000000         2.101790070558870E-014
   33.7250000000000         2.345063277186868E-014
   33.9150000000000         2.709622917612408E-014
   34.1050000000000         3.158384648511923E-014
   34.2950000000000         3.591156310417856E-014
   34.4850000000000         3.875729953653489E-014
   34.6750000000000         4.180910469015365E-014
   34.8650000000000         4.479388750268111E-014
   35.0550000000000         4.770850170648856E-014
   35.2450000000000         5.099446542535982E-014
   35.4350000000000         5.391884303121783E-014
   35.6250000000000         5.603025373311536E-014
   35.8150000000000         5.736738607246256E-014
   36.0050000000000         5.783771327811403E-014
   36.1950000000000         5.773582286810668E-014
   36.3850000000000         5.765400700332988E-014
   36.5750000000000         5.716539522244607E-014
   36.7650000000000         5.693043338816606E-014
   36.9550000000000         5.627218853651661E-014
   37.1450000000000         5.541248023326695E-014
   37.3350000000000         5.447979259908021E-014
   37.5250000000000         5.361426984763602E-014
   37.7150000000000         5.278706378898989E-014
   37.9050000000000         5.204616061538192E-014
   38.0950000000000         5.162274288258033E-014
   38.2850000000000         5.082338769267081E-014
   38.4750000000000         4.940520472712749E-014
   38.6650000000000         4.817386503433348E-014
   38.8550000000000         4.752378566319176E-014
   39.0450000000000         4.703065559922262E-014
   39.2350000000000         4.617079822111655E-014
   39.4250000000000         4.485239782002572E-014
   39.6150000000000         4.309712986225320E-014
   39.8050000000000         4.062706245038309E-014
   39.9950000000000         3.967819161284147E-014
   40.1850000000000         3.802533529039652E-014
   40.3750000000000         3.782190232717532E-014
   40.5650000000000         3.730630733969041E-014
   40.7550000000000         3.627141238439683E-014
   40.9450000000000         3.402382976033116E-014
   41.1350000000000         2.948152210142804E-014
   41.3250000000000         2.265484110345483E-014
   41.5150000000000         1.604440440320463E-014
   41.7050000000000         1.132300140750363E-014
   41.8950000000000         8.483655923146942E-015
   42.0850000000000         7.537238430842990E-015
   42.2750000000000         7.855291781215169E-015
   42.4650000000000         9.220545174294540E-015
   42.6550000000000         1.149557494341307E-014
   42.8450000000000         1.455319889587504E-014
   43.0350000000000         1.785948517147188E-014
   43.2250000000000         2.089448243683893E-014
   43.4150000000000         2.480305268440917E-014
   43.6050000000000         2.594818587979608E-014
   43.7950000000000         2.770447715224356E-014
   43.9850000000000         2.917364089185243E-014
   44.1750000000000         3.113203639697624E-014
   44.3650000000000         3.404109966690462E-014
   44.5550000000000         3.855905231370988E-014
   44.7450000000000         4.435259416486602E-014
   44.9350000000000         4.887677097878745E-014
   45.1250000000000         5.028569073219671E-014
   45.3150000000000         4.987506153696572E-014
   45.5050000000000         4.838501183122771E-014
   45.6950000000000         4.685759651515635E-014
   45.8850000000000         4.566166193053597E-014
   46.0750000000000         4.585734534073752E-014
   46.2650000000000         4.589884585290569E-014
   46.4550000000000         4.615301952284790E-014
   46.6450000000000         4.623525370409530E-014
   46.8350000000000         4.640316179001463E-014
   47.0250000000000         4.718711115960875E-014
   47.2150000000000         4.861829974712805E-014
   47.4050000000000         4.977050691060724E-014
   47.5950000000000         4.994309062906278E-014
   47.7850000000000         4.980040027943874E-014
   47.9750000000000         4.877073930138023E-014
   48.1650000000000         4.759666860960472E-014
   48.3550000000000         4.639541381585812E-014
   48.5450000000000         4.548644879258520E-014
   48.7350000000000         4.425813126501489E-014
   48.9250000000000         4.383173604339983E-014
   49.1150000000000         4.317095664706164E-014
   49.3050000000000         4.139320927759420E-014
   49.4950000000000         3.815136370205855E-014
   49.6850000000000         3.510192132803965E-014
   49.8750000000000         3.341806251725680E-014
   50.0650000000000         3.370552936054330E-014
   50.2550000000000         3.543181325253081E-014
   50.4450000000000         3.784726507470457E-014
   50.6350000000000         3.855791799776716E-014
   50.8250000000000         4.135176969368840E-014
   51.0150000000000         4.206759727824017E-014
   51.2050000000000         4.332987207364592E-014
   51.3950000000000         4.513432189267815E-014
   51.5850000000000         4.743720717833599E-014
   51.7750000000000         4.860272411295109E-014
   51.9650000000000         4.615834609815271E-014
   52.1550000000000         4.114801165878283E-014
   52.3450000000000         3.458863420014732E-014
   52.5350000000000         2.713547174837527E-014
   52.7250000000000         2.081402398379085E-014
   52.9150000000000         1.764664874593078E-014
   53.1050000000000         1.256188321111909E-014
   53.2950000000000         8.121155694274225E-015
   53.4850000000000         4.102743542064323E-015
   53.6750000000000        -1.019231609826924E-016
   53.8650000000000        -1.124116037212509E-015
   54.0550000000000         9.002957547324184E-016
   54.2450000000000         5.404679410523261E-015
   54.4350000000000         1.193680582155750E-014
   54.6250000000000         1.903288040914703E-014
   54.8150000000000         2.624916218019250E-014
   55.0050000000000         3.293993246452713E-014
   55.1950000000000         3.832253117755358E-014
   55.3850000000000         4.447097268891301E-014
   55.5750000000000         4.735542597037568E-014
   55.7650000000000         5.067560488613577E-014
   55.9550000000000         5.466962525656361E-014
   56.1450000000000         6.032456218706629E-014
   56.3350000000000         6.579712979279297E-014
   56.5250000000000         6.837482174571339E-014
   56.7150000000000         6.821085842568624E-014
   56.9050000000000         6.679245887284298E-014
   57.0950000000000         6.466148222955438E-014
   57.2850000000000         6.285672115165798E-014
   57.4750000000000         5.995096727784158E-014
   57.6650000000000         5.670758366028356E-014
   57.8550000000000         5.396136330199111E-014
   58.0450000000000         5.221146164462872E-014
   58.2350000000000         5.037549229815734E-014
   58.4250000000000         4.852763699000740E-014
   58.6150000000000         4.716524893871153E-014
   58.8050000000000         4.622923578889051E-014
   58.9950000000000         4.555642824984768E-014
   59.1850000000000         4.534492930756632E-014
   59.3750000000000         4.540108148899383E-014
   59.5650000000000         4.557641563418323E-014
   59.7550000000000         4.568763072403775E-014
   59.9450000000000         4.567251712643520E-014
   60.1350000000000         4.549382402402827E-014
   60.3250000000000         4.513811958274359E-014
   60.5150000000000         4.443767191325355E-014
   60.7050000000000         4.309039773600563E-014
   60.8950000000000         4.087920889968064E-014
   61.0850000000000         3.806983157428903E-014
   61.2750000000000         3.500660333523909E-014
   61.4650000000000         3.218900429028250E-014
   61.6550000000000         2.976209230733611E-014
   61.8450000000000         2.778556598205383E-014
   62.0350000000000         2.623231392458418E-014
   62.2250000000000         2.537674353963052E-014
   62.4150000000000         2.402965568048998E-014
   62.6050000000000         2.289949885690056E-014
   62.7950000000000         2.275030943829782E-014
   62.9850000000000         2.199254292030032E-014
   63.1750000000000         2.066120943285278E-014
   63.3650000000000         1.877067810801243E-014
   63.5550000000000         1.619598304711756E-014
   63.7450000000000         1.310193058782467E-014
   63.9350000000000         1.033034564574012E-014
   64.1250000000000         8.192937713049950E-015
   64.3150000000000         7.089642496865206E-015
   64.5050000000000         7.163565491903494E-015
   64.6950000000000         8.483274774591037E-015
   64.8850000000000         1.049169509153397E-014
   65.0750000000000         1.320987843821578E-014
   65.2650000000000         1.667569579757849E-014
   65.4550000000000         2.024575922788416E-014
   65.6450000000000         2.394571360830810E-014
   65.8350000000000         2.775978097868074E-014
   66.0250000000000         3.103557056561429E-014
   66.2150000000000         3.394957935510431E-014
   66.4050000000000         3.698749548777632E-014
   66.5950000000000         3.771425964192069E-014
   66.7850000000000         4.032997749845116E-014
   66.9750000000000         4.180342396030233E-014
   67.1650000000000         4.379486508418979E-014
   67.3550000000000         4.622488822076572E-014
   67.5450000000000         4.924219757079599E-014
   67.7350000000000         5.279111939766004E-014
   67.9250000000000         5.643562728220600E-014
   68.1150000000000         5.928396763861104E-014
   68.3050000000000         6.106553175017724E-014
   68.4950000000000         6.131591633039505E-014
   68.6850000000000         6.017015617114763E-014
   68.8750000000000         5.817176483544996E-014
   69.0650000000000         5.581146274841078E-014
   69.2550000000000         5.344535453715907E-014
   69.4450000000000         5.147141236794860E-014
   69.6350000000000         5.025932529977282E-014
   69.8250000000000         4.996889326421318E-014
   70.0150000000000         4.998164130203163E-014
   70.2050000000000         5.041558812113624E-014
   70.3950000000000         5.105386243664487E-014
   70.5850000000000         5.172899264349436E-014
   70.7750000000000         5.221748263525873E-014
   70.9650000000000         5.219452458921434E-014
   71.1550000000000         5.147786961331100E-014
   71.3450000000000         5.003924053944961E-014
   71.5350000000000         4.786451236223747E-014
   71.7250000000000         4.627074246192224E-014
   71.9150000000000         4.420421102459276E-014
   72.1050000000000         4.361596597616100E-014
   72.2950000000000         4.360267216043091E-014
   72.4850000000000         4.414857291763843E-014
   72.6750000000000         4.513955706708180E-014
   72.8650000000000         4.558677574712887E-014
   73.0550000000000         4.554548635484443E-014
   73.2450000000000         4.447074401872147E-014
   73.4350000000000         4.128548040143660E-014
   73.6250000000000         3.572370484817274E-014
   73.8150000000000         2.917726050694123E-014
   74.0050000000000         2.233221008641597E-014
   74.1950000000000         1.756277444703722E-014
   74.3850000000000         1.499245208915155E-014
   74.5750000000000         1.457329927118783E-014
   74.7650000000000         1.558458935675017E-014
   74.9550000000000         1.735245279733280E-014
   75.1450000000000         1.945272478910221E-014
   75.3350000000000         2.083492819235122E-014
   75.5250000000000         2.357780114576017E-014
   75.7150000000000         2.451711255788991E-014
   75.9050000000000         2.567988863255094E-014
   76.0950000000000         2.767980474712789E-014
   76.2850000000000         3.074421851671118E-014
   76.4750000000000         3.508670714500873E-014
   76.6650000000000         3.953198138704531E-014
   76.8550000000000         4.199187656801567E-014
   77.0450000000000         4.443817262824440E-014
   77.2350000000000         4.841723517960231E-014
   77.4250000000000         5.419561958902920E-014
   77.6150000000000         6.084145157699188E-014
   77.8050000000000         6.540245603116946E-014
   77.9950000000000         6.761213930360069E-014
   78.1850000000000         6.811646445143186E-014
   78.3750000000000         6.758181997414849E-014
   78.5650000000000         6.658175895371723E-014
   78.7550000000000         6.469793245405751E-014
   78.9450000000000         6.369954181849795E-014
   79.1350000000000         6.168809617582597E-014
   79.3250000000000         5.998794742260595E-014
   79.5150000000000         5.772238625719549E-014
   79.7050000000000         5.484661907173727E-014
   79.8950000000000         5.094959865715424E-014
   80.0850000000000         4.611775140270409E-014
   80.2750000000000         4.166749856208524E-014
   80.4650000000000         3.877896911988225E-014
   80.6550000000000         3.781954840808962E-014
   80.8450000000000         3.754115833175070E-014
   81.0350000000000         3.724862499281619E-014
   81.2250000000000         3.634175961624925E-014
   81.4150000000000         3.519777967015484E-014
   81.6050000000000         3.347390556247287E-014
   81.7950000000000         3.181283957238660E-014
   81.9850000000000         2.971312793754325E-014
   82.1750000000000         2.822706284288703E-014
   82.3650000000000         2.696806751589584E-014
   82.5550000000000         2.580671540703472E-014
   82.7450000000000         2.443069172070030E-014
   82.9350000000000         2.322047734980788E-014
   83.1250000000000         2.238064962336558E-014
   83.3150000000000         2.204787779342786E-014
   83.5050000000000         2.190126835961547E-014
   83.6950000000000         2.190598985519222E-014
   83.8850000000000         2.155851924057889E-014
   84.0750000000000         2.141070476143906E-014
   84.2650000000000         2.110615903267655E-014
   84.4550000000000         2.069160290481552E-014
   84.6450000000000         2.020521460431025E-014
   84.8350000000000         1.967930941813683E-014
   85.0250000000000         1.932319068133749E-014
   85.2150000000000         1.946980496426892E-014
   85.4050000000000         2.064373190525426E-014
   85.5950000000000         2.344372096481186E-014
   85.7850000000000         2.734586753328998E-014
   85.9750000000000         3.144192993573656E-014
   86.1650000000000         3.522677752443318E-014
   86.3550000000000         3.839358493809714E-014
   86.5450000000000         4.124601567506741E-014
   86.7350000000000         4.380869372047125E-014
   86.9250000000000         4.599172826047778E-014
   87.1150000000000         4.783015703277444E-014
   87.3050000000000         4.956714140870242E-014
   87.4950000000000         5.139132506142221E-014
   87.6850000000000         5.330067968082986E-014
   87.8750000000000         5.468345878795009E-014
   88.0650000000000         5.652371088150871E-014
   88.2550000000000         5.819460561700916E-014
   88.4450000000000         6.026276335240607E-014
   88.6350000000000         6.233329673580601E-014
   88.8250000000000         6.461835552301105E-014
   89.0150000000000         6.669026996963337E-014
   89.2050000000000         6.832242538506154E-014
   89.3950000000000         6.823857854753491E-014
   89.5850000000000         6.551419499351199E-014
   89.7750000000000         6.120020063589276E-014
   89.9650000000000         5.643926189067023E-014
   90.1550000000000         5.136776646384551E-014
   90.3450000000000         4.710908657205311E-014
   90.5350000000000         4.358391996832834E-014
   90.7250000000000         4.099590411622882E-014
   90.9150000000000         3.930965733877556E-014
   91.1050000000000         3.842159564112468E-014
   91.2950000000000         3.809669039402384E-014
   91.4850000000000         3.802430759167310E-014
   91.6750000000000         3.818650326509638E-014
   91.8650000000000         3.864764851799334E-014
   92.0550000000000         3.923100739534538E-014
   92.2450000000000         3.953245824385525E-014
   92.4350000000000         3.963827779176761E-014
   92.6250000000000         3.988579933256481E-014
   92.8150000000000         4.000326695770686E-014
   93.0050000000000         4.028359851071163E-014
   93.1950000000000         4.076825450782794E-014
   93.3850000000000         4.105910079225555E-014
   93.5750000000000         4.016345827911589E-014
   93.7650000000000         3.737233730356223E-014
   93.9550000000000         3.352007286782605E-014
   94.1450000000000         2.969016521700530E-014
   94.3350000000000         2.643238110492657E-014
   94.5250000000000         2.359414621362644E-014
   94.7150000000000         2.137843124461791E-014
   94.9050000000000         1.901542391519356E-014
   95.0950000000000         1.727356034900446E-014
   95.2850000000000         1.556383354204227E-014
   95.4750000000000         1.471923754880964E-014
   95.6650000000000         1.374465468479378E-014
   95.8550000000000         1.357877016373294E-014
   96.0450000000000         1.399441621693249E-014
   96.2350000000000         1.522633516994376E-014
   96.4250000000000         1.749374661162616E-014
   96.6150000000000         2.069425861487919E-014
   96.8050000000000         2.535747927853680E-014
   96.9950000000000         3.043251247975803E-014
   97.1850000000000         3.518023989700635E-014
   97.3750000000000         3.774782813745811E-014
   97.5650000000000         4.077572856397634E-014
   97.7550000000000         4.359704273790096E-014
   97.9450000000000         4.691749302479305E-014
   98.1350000000000         5.098917708709646E-014
   98.3250000000000         5.517158433455889E-014
   98.5150000000000         5.888838762625572E-014
   98.7050000000000         6.175364965897414E-014
   98.8950000000000         6.361089097575745E-014
   99.0850000000000         6.451889338169151E-014
   99.2750000000000         6.441151518291546E-014
   99.4650000000000         6.258427442164072E-014
   99.6550000000000         5.966306400670043E-014
   99.8450000000000         5.560555808254564E-014
   100.035000000000         5.145567718372029E-014
   100.225000000000         4.744635384710596E-014
   100.415000000000         4.385504636771222E-014
   100.605000000000         4.052376457372325E-014
   100.795000000000         3.783455488939033E-014
   100.985000000000         3.587982815577901E-014
   101.175000000000         3.498145532170292E-014
   101.365000000000         3.393653275639560E-014
   101.555000000000         3.378495139304963E-014
   101.745000000000         3.385091091647405E-014
   101.935000000000         3.393417858052536E-014
   102.125000000000         3.433497932748456E-014
   102.315000000000         3.509374710907082E-014
   102.505000000000         3.621564273994204E-014
   102.695000000000         3.735102709791687E-014
   102.885000000000         3.810215690050366E-014
   103.075000000000         3.782612420212140E-014
   103.265000000000         3.758095295558738E-014
   103.455000000000         3.697709597015730E-014
   103.645000000000         3.644431105289695E-014
   103.835000000000         3.620560274198208E-014
   104.025000000000         3.634407441290304E-014
   104.215000000000         3.707541095479364E-014
   104.405000000000         3.798923522277570E-014
   104.595000000000         3.877232457686567E-014
   104.785000000000         3.896896267216288E-014
   104.975000000000         3.808182332640467E-014
   105.165000000000         3.587503427060431E-014
   105.355000000000         3.285893862418021E-014
   105.545000000000         2.947388566536465E-014
   105.735000000000         2.618712322141566E-014
   105.925000000000         2.366076261887172E-014
   106.115000000000         2.225036689568069E-014
   106.305000000000         2.156288840785072E-014
   106.495000000000         2.198299705642831E-014
   106.685000000000         2.272585182154291E-014
   106.875000000000         2.375689906261081E-014
   107.065000000000         2.489989342231570E-014
   107.255000000000         2.606757560245478E-014
   107.445000000000         2.732309501717288E-014
   107.635000000000         2.867250320947001E-014
   107.825000000000         3.008590093043631E-014
   108.015000000000         3.144658242653035E-014
   108.205000000000         3.298242451003500E-014
   108.395000000000         3.545678476438325E-014
   108.585000000000         3.911500951811575E-014
   108.775000000000         4.283475149994991E-014
   108.965000000000         4.716220962938307E-014
   109.155000000000         4.794270736679791E-014
   109.345000000000         5.142383578399282E-014
   109.535000000000         5.224790191821708E-014
   109.725000000000         5.366684849014714E-014
   109.915000000000         5.554997793948829E-014
   110.105000000000         5.826347967222617E-014