  -1.42500000000000        -7.960458200222313E-019
  -1.23500000000000        -1.274064991797682E-018
  -1.04500000000000        -3.116414473173384E-019
 -0.855000000000000         2.408334167090870E-017
 -0.665000000000000         1.567945788568492E-016
 -0.475000000000000         6.699544051274872E-016
 -0.285000000000000         1.516604219432489E-015
 -9.499999999999975E-002    3.656770280660854E-015
  9.500000000000020E-002    7.820493953498703E-015
  0.285000000000000         2.198689292345917E-014
  0.475000000000000         2.932655952726482E-014
  0.665000000000000         3.790380351502400E-014
  0.855000000000000         3.927045829887256E-014
   1.04500000000000         7.313900804184961E-014
   1.23500000000000         1.964340898990605E-013
   1.42500000000000         1.564155261500270E-013
   1.61500000000000         1.928031969003564E-013
   1.80500000000000         2.437692009114552E-013
   1.99500000000000         2.969208553170809E-013
   2.18500000000000         3.536446565328855E-013
   2.37500000000000         4.126373649494995E-013
   2.56500000000000         4.719719513277557E-013
   2.75500000000000         5.321186098976280E-013
   2.94500000000000         5.894703177992610E-013
   3.13500000000000         6.381428232252433E-013
   3.32500000000000         6.431947086555432E-013
   3.51500000000000         6.628983415737016E-013
   3.70500000000000         6.727340731410784E-013
   3.89500000000000         6.850737348150300E-013
   4.08500000000000         6.938602941974892E-013
   4.27500000000000         6.988167012595268E-013
   4.46500000000000         6.985208289878207E-013
   4.65500000000000         6.880416326889069E-013
   4.84500000000000         6.686719619485834E-013
   5.03500000000000         6.482349555857984E-013
   5.22500000000000         6.501026911723507E-013
   5.41500000000000         6.222056960341673E-013
   5.60500000000000         5.779961565012958E-013
   5.79500000000000         5.419836856939523E-013
   5.98500000000000         5.054483161282084E-013
   6.17500000000000         4.606868001231911E-013
   6.36500000000000         3.702625342831673E-013
   6.55500000000000         3.519474808322043E-013
   6.74500000000000         3.244532639584801E-013
   6.93500000000000         2.499680791805170E-013
   7.12500000000000         1.786721545064528E-013
   7.31500000000000         1.647343457108882E-013
   7.50500000000000         1.203848594604347E-013
   7.69500000000000         1.260753888309834E-013
   7.88500000000000         1.450007061872667E-013
   8.07500000000000         1.563376686405573E-013
   8.26500000000000         1.433563950430360E-013
   8.45500000000000         1.595178747552454E-013
   8.64500000000000         1.875839216011466E-013
   8.83500000000000         2.212388756361680E-013
   9.02500000000000         3.666524294970137E-013
   9.21500000000000         3.801881014173699E-013
   9.40500000000000         3.604719551780595E-013
   9.59500000000000         3.720394925368074E-013
   9.78500000000000         4.767564516016981E-013
   9.97500000000000         4.727833620530746E-013
   10.1650000000000         4.604573385236859E-013
   10.3550000000000         4.598825187014811E-013
   10.5450000000000         4.723539111847513E-013
   10.7350000000000         4.810301771977629E-013
   10.9250000000000         4.896262889609605E-013
   11.1150000000000         4.963796255861726E-013
   11.3050000000000         5.022475722477944E-013
   11.4950000000000         5.116985495462509E-013
   11.6850000000000         5.234671388191972E-013
   11.8750000000000         5.336728260155061E-013
   12.0650000000000         5.390134357035758E-013
   12.2550000000000         5.398627356248174E-013
   12.4450000000000         5.357090853795446E-013
   12.6350000000000         5.396538090977315E-013
   12.8250000000000         5.339857605883958E-013
   13.0150000000000         5.060670678349936E-013
   13.2050000000000         4.902322682072373E-013
   13.3950000000000         4.614320287675894E-013
   13.5850000000000         4.297031052217523E-013
   13.7750000000000         3.931853255488849E-013
   13.9650000000000         3.592071928518491E-013
   14.1550000000000         3.366832523086756E-013
   14.3450000000000         3.162241668497773E-013
   14.5350000000000         2.989774211094988E-013
   14.7250000000000         2.854375538547864E-013
   14.9150000000000         2.796746227732111E-013
   15.1050000000000         2.749664067239844E-013
   15.2950000000000         2.885273548376734E-013
   15.4850000000000         3.278999948851284E-013
   15.6750000000000         3.249010762717594E-013
   15.8650000000000         3.436581796869059E-013
   16.0550000000000         3.866790785302720E-013
   16.2450000000000         3.953401523738197E-013
   16.4350000000000         4.185132086479103E-013
   16.6250000000000         4.461125180658450E-013
   16.8150000000000         4.730091315987707E-013
   17.0050000000000         4.772153602687415E-013
   17.1950000000000         4.893230961781374E-013
   17.3850000000000         4.980912232914881E-013
   17.5750000000000         5.196145110331759E-013
   17.7650000000000         5.277606414183510E-013
   17.9550000000000         5.385891527378589E-013
   18.1450000000000         5.458232349237507E-013
   18.3350000000000         5.530465179698032E-013
   18.5250000000000         5.616700373750770E-013
   18.7150000000000         5.707425820895985E-013
   18.9050000000000         5.625138404847078E-013
   19.0950000000000         5.434409916278563E-013
   19.2850000000000         5.132502634590223E-013
   19.4750000000000         4.807533742321636E-013
   19.6650000000000         4.409293937756456E-013
   19.8550000000000         3.923691626659515E-013
   20.0450000000000         3.391233888838370E-013
   20.2350000000000         2.844981224085295E-013
   20.4250000000000         2.353900773176109E-013
   20.6150000000000         1.924732559356058E-013
   20.8050000000000         1.579337754892830E-013
   20.9950000000000         1.324773702204731E-013
   21.1850000000000         1.122293600147938E-013
   21.3750000000000         9.540135005787081E-014
   21.5650000000000         9.206116736494329E-014
   21.7550000000000         9.843332659970079E-014
   21.9450000000000         9.537206549144411E-014
   22.1350000000000         9.570057262088235E-014
   22.3250000000000         1.282082874352370E-013
   22.5150000000000         1.397182091437291E-013
   22.7050000000000         1.557770689090190E-013
   22.8950000000000         1.861142979730950E-013
   23.0850000000000         2.045281260828533E-013
   23.2750000000000         2.806449968684773E-013
   23.4650000000000         2.288740369577193E-013
   23.6550000000000         2.676219611288003E-013
   23.8450000000000         3.199205281212195E-013
   24.0350000000000         3.707595848604838E-013
   24.2250000000000         4.262046597354226E-013
   24.4150000000000         5.077856403900903E-013
   24.6050000000000         7.233207584662387E-013
   24.7950000000000         6.067863635216158E-013
   24.9850000000000         6.674625665545153E-013
   25.1750000000000         6.618892898144676E-013
   25.3650000000000         6.784874098443733E-013
   25.5550000000000         6.887344587030987E-013
   25.7450000000000         6.962505861262217E-013
   25.9350000000000         6.948878655656203E-013
   26.1250000000000         6.808453907287282E-013
   26.3150000000000         6.590663942770812E-013
   26.5050000000000         6.430624885689255E-013
   26.6950000000000         6.310900418599935E-013
   26.8850000000000         6.185960276644510E-013
   27.0750000000000         5.956120081624386E-013
   27.2650000000000         5.705855986917476E-013
   27.4550000000000         5.436313142257594E-013
   27.6450000000000         5.115168652297681E-013
   27.8350000000000         5.036527315276402E-013
   28.0250000000000         4.644859734558292E-013
   28.2150000000000         4.338639084191971E-013
   28.4050000000000         3.939318703212383E-013
   28.5950000000000         2.607403348300519E-013
   28.7850000000000         2.450202313814636E-013
   28.9750000000000         2.021407441658798E-013
   29.1650000000000         2.310078922108760E-013
   29.3550000000000         2.113644506079446E-013
   29.5450000000000         1.682118573204017E-013
   29.7350000000000         1.561425950416392E-013
   29.9250000000000         1.582223965301817E-013
   30.1150000000000         1.733203008234818E-013
   30.3050000000000         1.699439829145753E-013
   30.4950000000000         1.831477401250469E-013
   30.6850000000000         1.638575185918734E-013
   30.8750000000000         2.012328428959919E-013
   31.0650000000000         2.073385936887308E-013
   31.2550000000000         1.593289488647566E-013
   31.4450000000000         3.059046309076741E-013
   31.6350000000000         3.299201022429915E-013
   31.8250000000000         4.498444823512369E-013
   32.0150000000000         4.386916590918434E-013
   32.2050000000000         5.350336721999744E-013
   32.3950000000000         6.666743676517646E-013
   32.5850000000000         7.161209488083634E-013
   32.7750000000000         6.913629002360035E-013
   32.9650000000000         7.197428960201423E-013
   33.1550000000000         7.441962983818505E-013
   33.3450000000000         7.556207555362434E-013
   33.5350000000000         7.775426338537739E-013
   33.7250000000000         7.844141113848910E-013
   33.9150000000000         7.789988488126481E-013
   34.1050000000000         7.637264685129553E-013
   34.2950000000000         7.384975729277949E-013
   34.4850000000000         7.052257346241203E-013
   34.6750000000000         6.693641023261378E-013
   34.8650000000000         6.341287785617078E-013
   35.0550000000000         5.906859467671642E-013
   35.2450000000000         5.432302814642229E-013
   35.4350000000000         4.646237819985046E-013
   35.6250000000000         4.213702480847528E-013
   35.8150000000000         3.852435590790840E-013
   36.0050000000000         3.698265763318006E-013
   36.1950000000000         3.358320792303723E-013
   36.3850000000000         2.933448773054649E-013
   36.5750000000000         2.739235067106543E-013
   36.7650000000000         2.494415832177975E-013
   36.9550000000000         2.304919823841821E-013
   37.1450000000000         2.068096159315702E-013
   37.3350000000000         1.939511135809887E-013
   37.5250000000000         1.838845343687297E-013
   37.7150000000000         1.781975828947557E-013
   37.9050000000000         1.815728191291434E-013
   38.0950000000000         1.948196609065687E-013
   38.2850000000000         2.185754267937622E-013
   38.4750000000000         3.070306287279491E-013
   38.6650000000000         2.998672175864435E-013
   38.8550000000000         3.463312690241921E-013
   39.0450000000000         3.683156029523324E-013
   39.2350000000000         4.121043669739251E-013
   39.4250000000000         4.337455716161664E-013
   39.6150000000000         3.637386853713907E-013
   39.8050000000000         5.090784545731857E-013
   39.9950000000000         4.923564235043603E-013
   40.1850000000000         4.951246273245576E-013
   40.3750000000000         5.015424676564622E-013
   40.5650000000000         5.061079111278849E-013
   40.7550000000000         4.971265594097505E-013
   40.9450000000000         4.773593199080122E-013
   41.1350000000000         4.598828702165274E-013
   41.3250000000000         4.327560339964786E-013
   41.5150000000000         3.875294592333234E-013
   41.7050000000000         3.856294204792907E-013
   41.8950000000000         4.272875225603113E-013
   42.0850000000000         4.338908590298777E-013
   42.2750000000000         4.164614738289392E-013
   42.4650000000000         4.323843372982688E-013
   42.6550000000000         4.748725266229880E-013
   42.8450000000000         4.833148827671432E-013
   43.0350000000000         4.995098747884294E-013
   43.2250000000000         5.163063186578723E-013
   43.4150000000000         5.201550477244096E-013
   43.6050000000000         5.096090702756242E-013
   43.7950000000000         5.102538621481286E-013
   43.9850000000000         5.041874995372927E-013
   44.1750000000000         4.904930075390991E-013
   44.3650000000000         4.611700413609306E-013
   44.5550000000000         4.283699453167364E-013
   44.7450000000000         4.037854731268457E-013
   44.9350000000000         3.717087873478287E-013
   45.1250000000000         3.912284807728783E-013
   45.3150000000000         4.259298322245351E-013
   45.5050000000000         4.424508358757818E-013
   45.6950000000000         4.684217849298834E-013
   45.8850000000000         5.486985061171885E-013
   46.0750000000000         5.336425110265884E-013
   46.2650000000000         5.630793932946128E-013
   46.4550000000000         5.871353741073806E-013
   46.6450000000000         5.908886450446698E-013
   46.8350000000000         5.829178148644700E-013
   47.0250000000000         5.525606585427773E-013
   47.2150000000000         5.474345941254840E-013
   47.4050000000000         5.215299697182034E-013
   47.5950000000000         4.814503260523101E-013
   47.7850000000000         5.058838010654504E-013
   47.9750000000000         3.302030959237659E-013
   48.1650000000000         3.321740659869094E-013
   48.3550000000000         3.226125267719327E-013
   48.5450000000000         3.438689053630249E-013
   48.7350000000000         3.340112995932727E-013
   48.9250000000000         3.152341191116560E-013
   49.1150000000000         3.107878561691431E-013
   49.3050000000000         2.909883545642320E-013
   49.4950000000000         1.949727633128442E-013
   49.6850000000000         2.107612680529723E-013
   49.8750000000000         9.899808379698030E-014
   50.0650000000000         1.536289421347346E-013
   50.2550000000000         1.288785022274466E-013
   50.4450000000000         1.260548254948764E-013
   50.6350000000000         1.252855424298935E-013
   50.8250000000000         1.328579633405478E-013
   51.0150000000000         1.208679506901616E-013
   51.2050000000000         1.198784218608872E-013
   51.3950000000000         1.489971094160331E-013
   51.5850000000000         2.120166581706453E-013
   51.7750000000000         3.359015109470197E-013
   51.9650000000000         3.714256464194726E-013
   52.1550000000000         2.826907508350354E-013
   52.3450000000000         5.194322215420873E-013
   52.5350000000000         6.248006377993992E-013
   52.7250000000000         6.121026498193118E-013
   52.9150000000000         6.598325840916876E-013
   53.1050000000000         6.638577320654112E-013
   53.2950000000000         6.988384111133277E-013
   53.4850000000000         7.518330083467073E-013
   53.6750000000000         8.061758766934224E-013
   53.8650000000000         8.288161683597212E-013
   54.0550000000000         8.196477669561856E-013
   54.2450000000000         8.194965190545736E-013
   54.4350000000000         8.072841063172735E-013
   54.6250000000000         8.078704576320419E-013
   54.8150000000000         7.863672743970884E-013
   55.0050000000000         7.585276225635052E-013
   55.1950000000000         7.662868339140904E-013
   55.3850000000000         7.443428144493531E-013
   55.5750000000000         7.196076277137515E-013
   55.7650000000000         6.923989210971228E-013
   55.9550000000000         6.712761562639195E-013
   56.1450000000000         6.052312295325785E-013
   56.3350000000000         5.135002710326246E-013
   56.5250000000000         4.961944237487718E-013
   56.7150000000000         4.294120224111862E-013
   56.9050000000000         3.406185706828428E-013
   57.0950000000000         3.244341003657840E-013
   57.2850000000000         3.368472799954258E-013
   57.4750000000000         2.891330685524535E-013
   57.6650000000000         2.402728239343481E-013
   57.8550000000000         1.986756001912875E-013
   58.0450000000000         1.525189814391086E-013
   58.2350000000000         1.266266972949603E-013
   58.4250000000000         1.013692724222772E-013
   58.6150000000000         8.661608545151595E-014
   58.8050000000000         8.337612277857760E-014
   58.9950000000000         8.190225085102137E-014
   59.1850000000000         7.997122411766603E-014
   59.3750000000000         7.305292958097724E-014
   59.5650000000000         6.451691889930437E-014
   59.7550000000000         5.891831584001868E-014
   59.9450000000000         5.706629598322111E-014
   60.1350000000000         5.712071493801308E-014
   60.3250000000000         6.372479748077410E-014
   60.5150000000000         7.426627731595676E-014
   60.7050000000000         9.835792394079830E-014
   60.8950000000000         2.726911347962271E-013
   61.0850000000000         2.575606836801476E-013
   61.2750000000000         3.601247818572280E-013
   61.4650000000000         4.429199336009346E-013
   61.6550000000000         4.933038761577139E-013
   61.8450000000000         5.766218075058526E-013
   62.0350000000000         6.191584753942896E-013
   62.2250000000000         6.372319222373428E-013
   62.4150000000000         6.601117273941739E-013
   62.6050000000000         7.114037452870804E-013
   62.7950000000000         7.634612166103984E-013
   62.9850000000000         7.902700832145672E-013
   63.1750000000000         8.215861684820755E-013
   63.3650000000000         8.389164360211502E-013
   63.5550000000000         8.469325393585040E-013
   63.7450000000000         8.461042353928716E-013
   63.9350000000000         8.255430767328572E-013
   64.1250000000000         7.876125055251531E-013
   64.3150000000000         7.429339300413518E-013
   64.5050000000000         7.030528274901889E-013
   64.6950000000000         4.755747253914139E-013
   64.8850000000000         6.144298903157761E-013
   65.0750000000000         5.660222899026540E-013
   65.2650000000000         5.141110057157595E-013
   65.4550000000000         4.636676684881655E-013
   65.6450000000000         4.118962453618619E-013
   65.8350000000000         3.591678674179514E-013
   66.0250000000000         3.049790794808780E-013
   66.2150000000000         2.508028408600343E-013
   66.4050000000000         2.075623992003705E-013
   66.5950000000000         1.979615225284230E-013
   66.7850000000000         1.792624752934532E-013
   66.9750000000000         1.649315644169404E-013
   67.1650000000000         1.479052644301453E-013
   67.3550000000000         1.359190754367396E-013
   67.5450000000000         1.352485216576751E-013
   67.7350000000000         1.466383875786289E-013
   67.9250000000000         1.563476850440121E-013
   68.1150000000000         1.682793466178108E-013
   68.3050000000000         1.926373817893693E-013
   68.4950000000000         2.357424715646821E-013
   68.6850000000000         2.925344126181033E-013
   68.8750000000000         3.517836864346156E-013
   69.0650000000000         4.078779899495629E-013
   69.2550000000000         4.583127331034920E-013
   69.4450000000000         5.012372947977151E-013
   69.6350000000000         5.328248526666789E-013
   69.8250000000000         5.561198055521259E-013
   70.0150000000000         5.657695596517193E-013
   70.2050000000000         5.665377607623260E-013
   70.3950000000000         5.660074781532611E-013
   70.5850000000000         5.633410702115765E-013
   70.7750000000000         5.552689429898479E-013
   70.9650000000000         5.415291960869891E-013
   71.1550000000000         4.778553223378679E-013
   71.3450000000000         5.238065068119949E-013
   71.5350000000000         5.020988995675252E-013
   71.7250000000000         5.361347924267105E-013
   71.9150000000000         5.380412813667764E-013
   72.1050000000000         5.368203187080042E-013
   72.2950000000000         5.383561262776442E-013
   72.4850000000000         5.388219711065743E-013
   72.6750000000000         5.418797658135752E-013
   72.8650000000000         5.446619138509485E-013
   73.0550000000000         5.515294963247491E-013
   73.2450000000000         5.646642922928558E-013
   73.4350000000000         5.806627767779199E-013
   73.6250000000000         5.876685417457015E-013
   73.8150000000000         5.980702876570498E-013
   74.0050000000000         5.911976614113659E-013
   74.1950000000000         5.879387008591803E-013
   74.3850000000000         5.765068287704843E-013
   74.5750000000000         5.714116935720392E-013
   74.7650000000000         5.749827573308955E-013
   74.9550000000000         5.499588838612192E-013
   75.1450000000000         5.291678648929305E-013
   75.3350000000000         5.252202515142636E-013
   75.5250000000000         5.204593176360999E-013
   75.7150000000000         5.147668183213847E-013
   75.9050000000000         5.126029345491426E-013
   76.0950000000000         4.908239684805067E-013
   76.2850000000000         4.618643836854886E-013
   76.4750000000000         4.323511780051912E-013
   76.6650000000000         4.053568627717825E-013
   76.8550000000000         3.839337646133076E-013
   77.0450000000000         3.750248119956353E-013
   77.2350000000000         3.646030119443087E-013
   77.4250000000000         3.381646813503764E-013
   77.6150000000000         3.075304231956194E-013
   77.8050000000000         2.923179299261203E-013
   77.9950000000000         2.810392370977683E-013
   78.1850000000000         2.617867984141745E-013
   78.3750000000000         2.637632909852923E-013
   78.5650000000000         2.498454067815065E-013
   78.7550000000000         2.514711892533043E-013
   78.9450000000000         2.529183748576393E-013
   79.1350000000000         2.787088492155450E-013
   79.3250000000000         3.117868025792933E-013
   79.5150000000000         3.371346737415996E-013
   79.7050000000000         3.425143403021099E-013
   79.8950000000000         3.390561368122249E-013
   80.0850000000000         3.575663907373172E-013
   80.2750000000000         4.055832835862699E-013
   80.4650000000000         4.010813392805042E-013
   80.6550000000000         3.736007797804905E-013
   80.8450000000000         3.382461069774926E-013
   81.0350000000000         3.377763290291995E-013
   81.2250000000000         5.615380139241811E-013
   81.4150000000000         5.926770635438807E-013
   81.6050000000000         5.991250762446200E-013
   81.7950000000000         6.003256084313810E-013
   81.9850000000000         6.142524806541284E-013
   82.1750000000000         6.383577634765163E-013
   82.3650000000000         6.531908680790292E-013
   82.5550000000000         6.894601043071972E-013
   82.7450000000000         7.480183341149396E-013
   82.9350000000000         7.551400582856295E-013
   83.1250000000000         7.488665340998895E-013
   83.3150000000000         7.400347884074151E-013
   83.5050000000000         7.678480548270164E-013
   83.6950000000000         7.742680913928529E-013
   83.8850000000000         8.032248618226185E-013
   84.0750000000000         7.911822442011800E-013
   84.2650000000000         7.595922433100320E-013
   84.4550000000000         7.177458947145787E-013
   84.6450000000000         6.901024946855845E-013
   84.8350000000000         6.889678136720517E-013
   85.0250000000000         7.033539903753588E-013
   85.2150000000000         7.053003636186751E-013
   85.4050000000000         6.860987311496273E-013
   85.5950000000000         6.451205277344307E-013
   85.7850000000000         5.192640754241070E-013
   85.9750000000000         4.292304099896749E-013
   86.1650000000000         3.899363869134373E-013
   86.3550000000000         3.809176297446380E-013
   86.5450000000000         3.092780690338876E-013
   86.7350000000000         2.238839257248690E-013
   86.9250000000000         1.924449393109707E-013
   87.1150000000000         1.892393058020655E-013
   87.3050000000000         1.631536131636722E-013
   87.4950000000000         1.576235843500844E-013
   87.6850000000000         1.401246383951921E-013
   87.8750000000000         9.676052828452881E-014
   88.0650000000000         6.316543650856418E-014
   88.2550000000000         5.949165207977533E-014
   88.4450000000000         5.795230588755117E-014
   88.6350000000000         4.874591682127450E-014
   88.8250000000000         3.595735325287530E-014
   89.0150000000000         4.438207483139426E-014
   89.2050000000000         6.911328567734940E-014
   89.3950000000000         1.816228509714892E-013
   89.5850000000000         3.025041279289687E-013
   89.7750000000000         4.755065362011274E-013
   89.9650000000000         5.332016261965664E-013
   90.1550000000000         5.687475446611497E-013
   90.3450000000000         5.156957508345004E-013
   90.5350000000000         5.536677955257742E-013
   90.7250000000000         5.903912795790459E-013
   90.9150000000000         6.284170399658933E-013
   91.1050000000000         6.520816882004786E-013
   91.2950000000000         6.737329380436207E-013
   91.4850000000000         6.972727339556220E-013
   91.6750000000000         7.587419436489145E-013
   91.8650000000000         8.202997260799269E-013
   92.0550000000000         8.795204839901687E-013
   92.2450000000000         9.338879601152314E-013
   92.4350000000000         9.586572042728771E-013
   92.6250000000000         9.546766597383004E-013
   92.8150000000000         9.439600485955319E-013
   93.0050000000000         9.413936347641062E-013
   93.1950000000000         9.378885572744211E-013
   93.3850000000000         9.101055448477788E-013
   93.5750000000000         7.398816732658448E-013
   93.7650000000000         6.253647382530510E-013
   93.9550000000000         4.984856357810501E-013
   94.1450000000000         4.844610205612361E-013
   94.3350000000000         4.468040147496392E-013
   94.5250000000000         3.765692553300939E-013
   94.7150000000000         2.988737422144183E-013
   94.9050000000000         2.058018515052739E-013
   95.0950000000000         2.559256385507256E-013
   95.2850000000000         2.216728763411263E-013
   95.4750000000000         2.046613400282614E-013
   95.6650000000000         1.902413100067337E-013
   95.8550000000000         1.770720547602873E-013
   96.0450000000000         1.682339306478840E-013
   96.2350000000000         1.453965614485633E-013
   96.4250000000000         1.342599465595793E-013
   96.6150000000000         1.451838030263870E-013
   96.8050000000000         1.654850186711594E-013
   96.9950000000000         1.753838028780813E-013
   97.1850000000000         1.662375673512391E-013
   97.3750000000000         1.545018856079592E-013
   97.5650000000000         1.591550850109737E-013
   97.7550000000000         1.845439104132039E-013
   97.9450000000000         2.271865795438588E-013
   98.1350000000000         2.643565822062434E-013
   98.3250000000000         2.879512480540942E-013
   98.5150000000000         3.035284658841216E-013
   98.7050000000000         3.197647393040827E-013
   98.8950000000000         3.508540788641845E-013
   99.0850000000000         4.010862408412210E-013
   99.2750000000000         4.704351432092550E-013
   99.4650000000000         5.532747625957337E-013
   99.6550000000000         6.440096450704771E-013
   99.8450000000000         7.214377074995525E-013
   100.035000000000         8.089453808432266E-013
   100.225000000000         8.506303142931757E-013
   100.415000000000         8.868749860420806E-013
   100.605000000000         8.905141092005795E-013
   100.795000000000         8.915358640766307E-013
   100.985000000000         8.814502123827740E-013
   101.175000000000         8.620845058396540E-013
   101.365000000000         8.558926386881348E-013
   101.555000000000         8.469926467128644E-013
   101.745000000000         8.312093750861625E-013
   101.935000000000         8.021550309485546E-013
   102.125000000000         7.406932462206157E-013
   102.315000000000         7.881666871869516E-013
   102.505000000000         7.850107410040269E-013
   102.695000000000         8.238051823593952E-013
   102.885000000000         8.035592449950391E-013
   103.075000000000         7.588576740751635E-013
   103.265000000000         6.451920302074809E-013
   103.455000000000         5.006568730965623E-013
   103.645000000000         4.463528241948911E-013
   103.835000000000         4.686772504873301E-013
   104.025000000000         4.589396868890869E-013
   104.215000000000         4.058912140696488E-013
   104.405000000000         3.701059505745463E-013
   104.595000000000         3.336681408649802E-013
   104.785000000000         3.243465505508780E-013
   104.975000000000         3.289796422822633E-013
   105.165000000000         3.277828089967243E-013
   105.355000000000         3.198611927339157E-013
   105.545000000000         3.146448739780410E-013
   105.735000000000         3.211635880097444E-013
   105.925000000000         3.382496370115427E-013
   106.115000000000         3.510965570719813E-013
   106.305000000000         3.421232593554833E-013
   106.495000000000         3.100448707213876E-013
   106.685000000000         2.720941751642782E-013
   106.875000000000         2.538600603376987E-013
   107.065000000000         2.627052350562526E-013
   107.255000000000         2.881136971782911E-013
   107.445000000000         3.212668005499134E-013
   107.635000000000         3.492749143344077E-013
   107.825000000000         3.722787685531237E-013
   108.015000000000         4.004730632452307E-013
   108.205000000000         4.444570500025476E-013
   108.395000000000         5.005018962651813E-013
   108.585000000000         5.451904228692188E-013
   108.775000000000         5.517134390335687E-013
   108.965000000000         5.262206389079915E-013
   109.155000000000         4.770564045821676E-013
   109.345000000000         4.502319489135071E-013
   109.535000000000         4.489024270137944E-013
   109.725000000000         4.762086378080854E-013
   109.915000000000         5.103828777580255E-013
   110.105000000000         5.462249170042541E-013