  -1.42500000000000         0.000000000000000E+000
  -1.23500000000000        -1.436862705140024E-020
  -1.04500000000000        -2.896276870692663E-019
 -0.855000000000000        -1.977984833424236E-018
 -0.665000000000000        -9.664159470686183E-018
 -0.475000000000000        -3.566961666598831E-017
 -0.285000000000000        -1.249694022752754E-016
 -9.499999999999975E-002   -3.708930322460520E-016
  9.500000000000020E-002   -9.834964424128594E-016
  0.285000000000000        -2.344425833772790E-015
  0.475000000000000        -5.025443834931616E-015
  0.665000000000000        -9.912659823166397E-015
  0.855000000000000        -1.792341787980925E-014
   1.04500000000000        -2.999984466693419E-014
   1.23500000000000        -4.743673267800955E-014
   1.42500000000000        -7.150152480635968E-014
   1.61500000000000        -1.025654508715126E-013
   1.80500000000000        -1.413509389417095E-013
   1.99500000000000        -1.885802571120778E-013
   2.18500000000000        -2.447901384754591E-013
   2.37500000000000        -3.104044180370193E-013
   2.56500000000000        -3.856801895419878E-013
   2.75500000000000        -4.706849788314169E-013
   2.94500000000000        -5.653395637481159E-013
   3.13500000000000        -6.694537704570869E-013
   3.32500000000000        -7.828103638881330E-013
   3.51500000000000        -9.053167992163381E-013
   3.70500000000000        -1.036750722739605E-012
   3.89500000000000        -1.177017895821739E-012
   4.08500000000000        -1.326004550493246E-012
   4.27500000000000        -1.483616245839255E-012
   4.46500000000000        -1.649747570660241E-012
   4.65500000000000        -1.824228374621225E-012
   4.84500000000000        -2.006820164195620E-012
   5.03500000000000        -2.197215598864673E-012
   5.22500000000000        -2.395093910967580E-012
   5.41500000000000        -2.600390427591106E-012
   5.60500000000000        -2.812848351431669E-012
   5.79500000000000        -3.032262158832767E-012
   5.98500000000000        -3.258375308419156E-012
   6.17500000000000        -3.490830302309478E-012
   6.36500000000000        -3.729158821834230E-012
   6.55500000000000        -3.972760738189655E-012
   6.74500000000000        -4.221115432274874E-012
   6.93500000000000        -4.473844349379196E-012
   7.12500000000000        -4.730709082991790E-012
   7.31500000000000        -4.991745122366935E-012
   7.50500000000000        -5.257514311268938E-012
   7.69500000000000        -5.528921066617013E-012
   7.88500000000000        -5.807060290658644E-012
   8.07500000000000        -6.093043717166492E-012
   8.26500000000000        -6.388031993498991E-012
   8.45500000000000        -6.692761124155954E-012
   8.64500000000000        -7.008056776700666E-012
   8.83500000000000        -7.334620194443784E-012
   9.02500000000000        -7.673002322162363E-012
   9.21500000000000        -8.023821673154790E-012
   9.40500000000000        -8.387044963843779E-012
   9.59500000000000        -8.761569557675500E-012
   9.78500000000000        -9.145766429312151E-012
   9.97500000000000        -9.537833022288029E-012
   10.1650000000000        -9.936127061368805E-012
   10.3550000000000        -1.033955632459135E-011
   10.5450000000000        -1.074734867432191E-011
   10.7350000000000        -1.115861281876522E-011
   10.9250000000000        -1.157318109818080E-011
   11.1150000000000        -1.199094636684892E-011
   11.3050000000000        -1.241173185878281E-011
   11.4950000000000        -1.283525126170545E-011
   11.6850000000000        -1.326114098810983E-011
   11.8750000000000        -1.368902583704167E-011
   12.0650000000000        -1.411859671226031E-011
   12.2550000000000        -1.454967673921659E-011
   12.4450000000000        -1.498222065490893E-011
   12.6350000000000        -1.541631485705609E-011
   12.8250000000000        -1.585199848344100E-011
   13.0150000000000        -1.628950129039082E-011
   13.2050000000000        -1.672909433315860E-011
   13.3950000000000        -1.717106615632561E-011
   13.5850000000000        -1.761578604296570E-011
   13.7750000000000        -1.806354237712361E-011
   13.9650000000000        -1.851442071828133E-011
   14.1550000000000        -1.896836072801239E-011
   14.3450000000000        -1.942533316680889E-011
   14.5350000000000        -1.988518152035328E-011
   14.7250000000000        -2.034784626004640E-011
   14.9150000000000        -2.081320963754818E-011
   15.1050000000000        -2.128109626778190E-011
   15.2950000000000        -2.175140457537776E-011
   15.4850000000000        -2.222432400822072E-011
   15.6750000000000        -2.270028428662219E-011
   15.8650000000000        -2.317981387694614E-011
   16.0550000000000        -2.366350895418678E-011
   16.2450000000000        -2.415203022980667E-011
   16.4350000000000        -2.464594185362521E-011
   16.6250000000000        -2.514568037775140E-011
   16.8150000000000        -2.565157540345687E-011
   17.0050000000000        -2.616392990449889E-011
   17.1950000000000        -2.668280594774102E-011
   17.3850000000000        -2.720842883886657E-011
   17.5750000000000        -2.774086049966872E-011
   17.7650000000000        -2.828027167802527E-011
   17.9550000000000        -2.882671097190951E-011
   18.1450000000000        -2.938023241746311E-011
   18.3350000000000        -2.994086790151642E-011
   18.5250000000000        -3.050864395849275E-011
   18.7150000000000        -3.108359599437845E-011
   18.9050000000000        -3.166579898108622E-011
   19.0950000000000        -3.225535335365617E-011
   19.2850000000000        -3.285239127989040E-011
   19.4750000000000        -3.345710881481955E-011
   19.6650000000000        -3.406977230669323E-011
   19.8550000000000        -3.469065380977655E-011
   20.0450000000000        -3.531999327792163E-011
   20.2350000000000        -3.595792774338002E-011
   20.4250000000000        -3.660444964174277E-011
   20.6150000000000        -3.725941484823648E-011
   20.8050000000000        -3.792252610401597E-011
   20.9950000000000        -3.859336299982631E-011
   21.1850000000000        -3.927145584396049E-011
   21.3750000000000        -3.995668573548812E-011
   21.5650000000000        -4.064854172650162E-011
   21.7550000000000        -4.134694634785635E-011
   21.9450000000000        -4.205172194227660E-011
   22.1350000000000        -4.276262859100871E-011
   22.3250000000000        -4.347947699597127E-011
   22.5150000000000        -4.420237212648468E-011
   22.7050000000000        -4.493188622666955E-011
   22.8950000000000        -4.566898284314030E-011
   23.0850000000000        -4.641485543534079E-011
   23.2750000000000        -4.717071473200195E-011
   23.4650000000000        -4.793762501615853E-011
   23.6550000000000        -4.871650034537825E-011
   23.8450000000000        -4.950830445475671E-011
   24.0350000000000        -5.031391285723415E-011
   24.2250000000000        -5.113401006722801E-011
   24.4150000000000        -5.196910666529188E-011
   24.6050000000000        -5.281949124962168E-011
   24.7950000000000        -5.368519506604623E-011
   24.9850000000000        -5.456601803422584E-011
   25.1750000000000        -5.546152503665599E-011
   25.3650000000000        -5.637120975338518E-011
   25.5550000000000        -5.729436904347427E-011
   25.7450000000000        -5.823044441919782E-011
   25.9350000000000        -5.917841235165251E-011
   26.1250000000000        -6.013730296049946E-011
   26.3150000000000        -6.110629437369837E-011
   26.5050000000000        -6.208476424091923E-011
   26.6950000000000        -6.307204071496268E-011
   26.8850000000000        -6.406756652935719E-011
   27.0750000000000        -6.507080634826575E-011
   27.2650000000000        -6.608120107369255E-011
   27.4550000000000        -6.709828087970501E-011
   27.6450000000000        -6.812185555725524E-011
   27.8350000000000        -6.915194307590653E-011
   28.0250000000000        -7.018858653364786E-011
   28.2150000000000        -7.123198158755339E-011
   28.4050000000000        -7.228229397653843E-011
   28.5950000000000        -7.333971103187187E-011
   28.7850000000000        -7.440421762249685E-011
   28.9750000000000        -7.547521512333291E-011
   29.1650000000000        -7.655117580302885E-011
   29.3550000000000        -7.763008103410679E-011
   29.5450000000000        -7.870982052091389E-011
   29.7350000000000        -7.978756370797348E-011
   29.9250000000000        -8.086063869795188E-011
   30.1150000000000        -8.192659175936416E-011
   30.3050000000000        -8.298348642483609E-011
   30.4950000000000        -8.402955252871684E-011
   30.6850000000000        -8.506353973289984E-011
   30.8750000000000        -8.608525010729287E-011
   31.0650000000000        -8.709413416513640E-011
   31.2550000000000        -8.809016690111644E-011
   31.4450000000000        -8.907421640997326E-011
   31.6350000000000        -9.004837613220857E-011
   31.8250000000000        -9.101551322831807E-011
   32.0150000000000        -9.197814333762932E-011
   32.2050000000000        -9.293820814195291E-011
   32.3950000000000        -9.389807419990674E-011
   32.5850000000000        -9.486001007988125E-011
   32.7750000000000        -9.582511145740346E-011
   32.9650000000000        -9.679404791118328E-011
   33.1550000000000        -9.776754950826278E-011
   33.3450000000000        -9.874585407050185E-011
   33.5350000000000        -9.972934405264264E-011
   33.7250000000000        -1.007184901711133E-010
   33.9150000000000        -1.017137679923333E-010
   34.1050000000000        -1.027155168786115E-010
   34.2950000000000        -1.037237010937518E-010
   34.4850000000000        -1.047379322883312E-010
   34.6750000000000        -1.057578050355132E-010
   34.8650000000000        -1.067827833033229E-010
   35.0550000000000        -1.078122713993084E-010
   35.2450000000000        -1.088456836613823E-010
   35.4350000000000        -1.098824773019036E-010
   35.6250000000000        -1.109224570416156E-010
   35.8150000000000        -1.119658330973481E-010
   36.0050000000000        -1.130131489547870E-010
   36.1950000000000        -1.140650905114601E-010
   36.3850000000000        -1.151224110407168E-010
   36.5750000000000        -1.161852439184175E-010
   36.7650000000000        -1.172541109320460E-010
   36.9550000000000        -1.183291824986410E-010
   37.1450000000000        -1.194108875416373E-010
   37.3350000000000        -1.204996465427940E-010
   37.5250000000000        -1.215958097182928E-010
   37.7150000000000        -1.226996275746657E-010
   37.9050000000000        -1.238112723946426E-010
   38.0950000000000        -1.249308223550659E-010
   38.2850000000000        -1.260582831538228E-010
   38.4750000000000        -1.271935619137836E-010
   38.6650000000000        -1.283365929908901E-010
   38.8550000000000        -1.294881564762854E-010
   39.0450000000000        -1.306494864454852E-010
   39.2350000000000        -1.318225134604152E-010
   39.4250000000000        -1.330094427568083E-010
   39.6150000000000        -1.342122899470094E-010
   39.8050000000000        -1.354332472486657E-010
   39.9950000000000        -1.366741583439058E-010
   40.1850000000000        -1.379354404822341E-010
   40.3750000000000        -1.392178604298815E-010
   40.5650000000000        -1.405213915980451E-010
   40.7550000000000        -1.418461453608718E-010
   40.9450000000000        -1.431924112630355E-010
   41.1350000000000        -1.445606313663547E-010
   41.3250000000000        -1.459510946458086E-010
   41.5150000000000        -1.473633677566577E-010
   41.7050000000000        -1.487961797620543E-010
   41.8950000000000        -1.502478041680471E-010
   42.0850000000000        -1.517161596184024E-010
   42.2750000000000        -1.531989175572086E-010
   42.4650000000000        -1.546938494993038E-010
   42.6550000000000        -1.561986526232385E-010
   42.8450000000000        -1.577112536560167E-010
   43.0350000000000        -1.592296042618342E-010
   43.2250000000000        -1.607519723762145E-010
   43.4150000000000        -1.622770689570110E-010
   43.6050000000000        -1.638034970023235E-010
   43.7950000000000        -1.653309441614136E-010
   43.9850000000000        -1.668589359512164E-010
   44.1750000000000        -1.683871069181137E-010
   44.3650000000000        -1.699149738284364E-010
   44.5550000000000        -1.714418869914175E-010
   44.7450000000000        -1.729671170647302E-010
   44.9350000000000        -1.744905137940092E-010
   45.1250000000000        -1.760133355632727E-010
   45.3150000000000        -1.775379039325645E-010
   45.5050000000000        -1.790666646528183E-010
   45.6950000000000        -1.806022110666738E-010
   45.8850000000000        -1.821470121896954E-010
   46.0750000000000        -1.837029532456149E-010
   46.2650000000000        -1.852703747328404E-010
   46.4550000000000        -1.868498953041424E-010
   46.6450000000000        -1.884417183252999E-010
   46.8350000000000        -1.900462071293805E-010
   47.0250000000000        -1.916636370556565E-010
   47.2150000000000        -1.932935037414549E-010
   47.4050000000000        -1.949340242959562E-010
   47.5950000000000        -1.965832689402434E-010
   47.7850000000000        -1.982389605650713E-010
   47.9750000000000        -1.998990392465992E-010
   48.1650000000000        -2.015615209630426E-010
   48.3550000000000        -2.032248740376154E-010
   48.5450000000000        -2.048878263618237E-010
   48.7350000000000        -2.065494081138862E-010
   48.9250000000000        -2.082086869854064E-010
   49.1150000000000        -2.098652973311083E-010
   49.3050000000000        -2.115189704880376E-010
   49.4950000000000        -2.131693422880462E-010
   49.6850000000000        -2.148163749307137E-010
   49.8750000000000        -2.164610968800216E-010
   50.0650000000000        -2.181057361580798E-010
   50.2550000000000        -2.197528878887742E-010
   50.4450000000000        -2.214051658928399E-010
   50.6350000000000        -2.230647751859396E-010
   50.8250000000000        -2.247323421005187E-010
   51.0150000000000        -2.264096918848591E-010
   51.2050000000000        -2.280970148527037E-010
   51.3950000000000        -2.297948736968319E-010
   51.5850000000000        -2.315041865963873E-010
   51.7750000000000        -2.332260751068197E-010
   51.9650000000000        -2.349608874215300E-010
   52.1550000000000        -2.367072773856876E-010
   52.3450000000000        -2.384633171874873E-010
   52.5350000000000        -2.402268706235803E-010
   52.7250000000000        -2.419957226493298E-010
   52.9150000000000        -2.437682864919473E-010
   53.1050000000000        -2.455437843012186E-010
   53.2950000000000        -2.473212193864512E-010
   53.4850000000000        -2.490999778520274E-010
   53.6750000000000        -2.508797267166214E-010
   53.8650000000000        -2.526605820886588E-010
   54.0550000000000        -2.544433677185922E-010
   54.2450000000000        -2.562292366780961E-010
   54.4350000000000        -2.580195794510155E-010
   54.6250000000000        -2.598158883966160E-010
   54.8150000000000        -2.616194490952718E-010
   55.0050000000000        -2.634314815281335E-010
   55.1950000000000        -2.652529889077489E-010
   55.3850000000000        -2.670848061421261E-010
   55.5750000000000        -2.689279114098026E-010
   55.7650000000000        -2.707827997095779E-010
   55.9550000000000        -2.726500783364379E-010
   56.1450000000000        -2.745304057853464E-010
   56.3350000000000        -2.764244082710876E-010
   56.5250000000000        -2.783321307470059E-010
   56.7150000000000        -2.802528295764635E-010
   56.9050000000000        -2.821853023799796E-010
   57.0950000000000        -2.841281817763766E-010
   57.2850000000000        -2.860803224239995E-010
   57.4750000000000        -2.880410133231502E-010
   57.6650000000000        -2.900094127665124E-010
   57.8550000000000        -2.919847783588378E-010
   58.0450000000000        -2.939666409205404E-010
   58.2350000000000        -2.959548093901617E-010
   58.4250000000000        -2.979489492138680E-010
   58.6150000000000        -2.999485639526984E-010
   58.8050000000000        -3.019531315149988E-010
   58.9950000000000        -3.039621435130167E-010
   59.1850000000000        -3.059751680213805E-010
   59.3750000000000        -3.079919451159795E-010
   59.5650000000000        -3.100124102621002E-010
   59.7550000000000        -3.120366846620690E-010
   59.9450000000000        -3.140650386467902E-010
   60.1350000000000        -3.160978110399528E-010
   60.3250000000000        -3.181353465944239E-010
   60.5150000000000        -3.201779575879842E-010
   60.7050000000000        -3.222258149612052E-010
   60.8950000000000        -3.242787492609394E-010
   61.0850000000000        -3.263361744834530E-010
   61.2750000000000        -3.283970890181445E-010
   61.4650000000000        -3.304602125238638E-010
   61.6550000000000        -3.325243862443872E-010
   61.8450000000000        -3.345885553367181E-010
   62.0350000000000        -3.366519899450314E-010
   62.2250000000000        -3.387141172326295E-010
   62.4150000000000        -3.407745333046237E-010
   62.6050000000000        -3.428326454743111E-010
   62.7950000000000        -3.448879150531508E-010
   62.9850000000000        -3.469400573897855E-010
   63.1750000000000        -3.489886884853621E-010
   63.3650000000000        -3.510334277955423E-010
   63.5550000000000        -3.530740096292468E-010
   63.7450000000000        -3.551103799600442E-010
   63.9350000000000        -3.571428515782932E-010
   64.1250000000000        -3.591720999590923E-010
   64.3150000000000        -3.611990229123855E-010
   64.5050000000000        -3.632245985374185E-010
   64.6950000000000        -3.652497391190353E-010
   64.8850000000000        -3.672754969081765E-010
   65.0750000000000        -3.693024213026952E-010
   65.2650000000000        -3.713311226151541E-010
   65.4550000000000        -3.733622516212809E-010
   65.6450000000000        -3.753964343450395E-010
   65.8350000000000        -3.774343407678235E-010
   66.0250000000000        -3.794766513862897E-010
   66.2150000000000        -3.815239074535174E-010
   66.4050000000000        -3.835764734867627E-010
   66.5950000000000        -3.856345329015930E-010
   66.7850000000000        -3.876978889777809E-010
   66.9750000000000        -3.897663720192736E-010
   67.1650000000000        -3.918396934106996E-010
   67.3550000000000        -3.939176894011881E-010
   67.5450000000000        -3.960004160062006E-010
   67.7350000000000        -3.980881841765872E-010
   67.9250000000000        -4.001814927693876E-010
   68.1150000000000        -4.022808732007834E-010
   68.3050000000000        -4.043867282891757E-010
   68.4950000000000        -4.064992072100244E-010
   68.6850000000000        -4.086181777558691E-010
   68.8750000000000        -4.107433039431546E-010
   69.0650000000000        -4.128741690914320E-010
   69.2550000000000        -4.150104251548169E-010
   69.4450000000000        -4.171519477860857E-010
   69.6350000000000        -4.192989418437342E-010
   69.8250000000000        -4.214519203138050E-010
   70.0150000000000        -4.236114742511820E-010
   70.2050000000000        -4.257783851633409E-010
   70.3950000000000        -4.279534229393746E-010
   70.5850000000000        -4.301373508974536E-010
   70.7750000000000        -4.323307864764025E-010
   70.9650000000000        -4.345343658776720E-010
   71.1550000000000        -4.367486393415970E-010
   71.3450000000000        -4.389745671946929E-010
   71.5350000000000        -4.412128604752698E-010
   71.7250000000000        -4.434647862539584E-010
   71.9150000000000        -4.457309624877974E-010
   72.1050000000000        -4.480126880389370E-010
   72.2950000000000        -4.503105285312787E-010
   72.4850000000000        -4.526249727987995E-010
   72.6750000000000        -4.549562705044557E-010
   72.8650000000000        -4.573043836992930E-010
   73.0550000000000        -4.596693030797880E-010
   73.2450000000000        -4.620509508502883E-010
   73.4350000000000        -4.644493117593410E-010
   73.6250000000000        -4.668645267203568E-010
   73.8150000000000        -4.692966908517570E-010
   74.0050000000000        -4.717455462982523E-010
   74.1950000000000        -4.742102852407237E-010
   74.3850000000000        -4.766894288965902E-010
   74.5750000000000        -4.791809496922189E-010
   74.7650000000000        -4.816826228387564E-010
   74.9550000000000        -4.841921718899270E-010
   75.1450000000000        -4.867077329435431E-010
   75.3350000000000        -4.892279007531771E-010
   75.5250000000000        -4.917521957819930E-010
   75.7150000000000        -4.942797590125346E-010
   75.9050000000000        -4.968108967874970E-010
   76.0950000000000        -4.993459190810569E-010
   76.2850000000000        -5.018849529530063E-010
   76.4750000000000        -5.044279181768503E-010
   76.6650000000000        -5.069746539002128E-010
   76.8550000000000        -5.095249177616746E-010
   77.0450000000000        -5.120782887487534E-010
   77.2350000000000        -5.146342801936475E-010
   77.4250000000000        -5.171925508060745E-010
   77.6150000000000        -5.197529461599195E-010
   77.8050000000000        -5.223151630717227E-010
   77.9950000000000        -5.248784844079600E-010
   78.1850000000000        -5.274420463506164E-010
   78.3750000000000        -5.300049090561069E-010
   78.5650000000000        -5.325661194288021E-010
   78.7550000000000        -5.351247710875704E-010
   78.9450000000000        -5.376796934230106E-010
   79.1350000000000        -5.402302574242685E-010
   79.3250000000000        -5.427755711878478E-010
   79.5150000000000        -5.453151005160802E-010
   79.7050000000000        -5.478483747809809E-010
   79.8950000000000        -5.503750185558816E-010
   80.0850000000000        -5.528948438431229E-010
   80.2750000000000        -5.554083329117172E-010
   80.4650000000000        -5.579169247775327E-010
   80.6550000000000        -5.604228538848665E-010
   80.8450000000000        -5.629288332959697E-010
   81.0350000000000        -5.654372295167368E-010
   81.2250000000000        -5.679505229464334E-010
   81.4150000000000        -5.704710421885386E-010
   81.6050000000000        -5.730010474954401E-010
   81.7950000000000        -5.755425487017899E-010
   81.9850000000000        -5.780964627731308E-010
   82.1750000000000        -5.806643170625406E-010
   82.3650000000000        -5.832468198751830E-010
   82.5550000000000        -5.858448152926430E-010
   82.7450000000000        -5.884591140980854E-010
   82.9350000000000        -5.910897818649512E-010
   83.1250000000000        -5.937358541927071E-010
   83.3150000000000        -5.963956650257054E-010
   83.5050000000000        -5.990677066334918E-010
   83.6950000000000        -6.017508654543697E-010
   83.8850000000000        -6.044446619125669E-010
   84.0750000000000        -6.071481770611007E-010
   84.2650000000000        -6.098615548505856E-010
   84.4550000000000        -6.125846550537437E-010
   84.6450000000000        -6.153172626639522E-010
   84.8350000000000        -6.180589003797334E-010
   85.0250000000000        -6.208088869984896E-010
   85.2150000000000        -6.235663183332610E-010
   85.4050000000000        -6.263302947410891E-010
   85.5950000000000        -6.291001221835025E-010
   85.7850000000000        -6.318755631152163E-010
   85.9750000000000        -6.346570392481347E-010
   86.1650000000000        -6.374454876858703E-010
   86.3550000000000        -6.402420841502372E-010
   86.5450000000000        -6.430479302829242E-010
   86.7350000000000        -6.458639010119492E-010
   86.9250000000000        -6.486905907508578E-010
   87.1150000000000        -6.515283298724499E-010
   87.3050000000000        -6.543772686747993E-010
   87.4950000000000        -6.572375537780449E-010
   87.6850000000000        -6.601094279685811E-010
   87.8750000000000        -6.629932644760427E-010
   88.0650000000000        -6.658894864654249E-010
   88.2550000000000        -6.687985832597909E-010
   88.4450000000000        -6.717209510057650E-010
   88.6350000000000        -6.746568523118186E-010
   88.8250000000000        -6.776063588500657E-010
   89.0150000000000        -6.805693957505538E-010
   89.2050000000000        -6.835457903983281E-010
   89.3950000000000        -6.865353369067234E-010
   89.5850000000000        -6.895376461479077E-010
   89.7750000000000        -6.925520248606640E-010
   89.9650000000000        -6.955778101554557E-010
   90.1550000000000        -6.986143736734397E-010
   90.3450000000000        -7.016609990209081E-010
   90.5350000000000        -7.047169820138796E-010
   90.7250000000000        -7.077815616955120E-010
   90.9150000000000        -7.108539555323033E-010
   91.1050000000000        -7.139334135556373E-010
   91.2950000000000        -7.170192950799773E-010
   91.4850000000000        -7.201111016119678E-010
   91.6750000000000        -7.232084290794119E-010
   91.8650000000000        -7.263108662044186E-010
   92.0550000000000        -7.294179477032106E-010
   92.2450000000000        -7.325290751382300E-010
   92.4350000000000        -7.356436339146673E-010
   92.6250000000000        -7.387608970638586E-010
   92.8150000000000        -7.418799233987814E-010
   93.0050000000000        -7.449998038833038E-010
   93.1950000000000        -7.481196345861237E-010
   93.3850000000000        -7.512385742875681E-010
   93.5750000000000        -7.543560190650548E-010
   93.7650000000000        -7.574718852480381E-010
   93.9550000000000        -7.605870142529520E-010
   94.1450000000000        -7.637029494513317E-010
   94.3350000000000        -7.668214631581088E-010
   94.5250000000000        -7.699440784549915E-010
   94.7150000000000        -7.730721680950971E-010
   94.9050000000000        -7.762065528492990E-010
   95.0950000000000        -7.793479757382699E-010
   95.2850000000000        -7.824968493431820E-010
   95.4750000000000        -7.856536875576020E-010
   95.6650000000000        -7.888185212470855E-010
   95.8550000000000        -7.919921404083567E-010
   96.0450000000000        -7.951747756804874E-010
   96.2350000000000        -7.983667597976015E-010
   96.4250000000000        -8.015684282760665E-010
   96.6150000000000        -8.047799988433698E-010
   96.8050000000000        -8.080014744715725E-010
   96.9950000000000        -8.112325829670146E-010
   97.1850000000000        -8.144728043206901E-010
   97.3750000000000        -8.177214997056872E-010
   97.5650000000000        -8.209781955569204E-010
   97.7550000000000        -8.242424331900885E-010
   97.9450000000000        -8.275138577077914E-010
   98.1350000000000        -8.307921646942283E-010
   98.3250000000000        -8.340770915617026E-010
   98.5150000000000        -8.373684943467822E-010
   98.7050000000000        -8.406663602970185E-010
   98.8950000000000        -8.439707796792929E-010
   99.0850000000000        -8.472818864443792E-010
   99.2750000000000        -8.505997992496905E-010
   99.4650000000000        -8.539245772554677E-010
   99.6550000000000        -8.572559775358802E-010
   99.8450000000000        -8.605932353717515E-010
   100.035000000000        -8.639349302450835E-010
   100.225000000000        -8.672790745351709E-010
   100.415000000000        -8.706233740224040E-010
   100.605000000000        -8.739653811884015E-010
   100.795000000000        -8.773026422485053E-010
   100.985000000000        -8.806331365799652E-010
   101.175000000000        -8.839553621595641E-010
   101.365000000000        -8.872690328127491E-010
   101.555000000000        -8.905735215109157E-010
   101.745000000000        -8.938689413997779E-010
   101.935000000000        -8.971551461038327E-010
   102.125000000000        -9.004315063892084E-010
   102.315000000000        -9.036978786363192E-010
   102.505000000000        -9.069556444468723E-010
   102.695000000000        -9.102072259366437E-010
   102.885000000000        -9.134554261960657E-010
   103.075000000000        -9.167032356246019E-010
   103.265000000000        -9.199537318820658E-010
   103.455000000000        -9.232100914644415E-010
   103.645000000000        -9.264750798335749E-010
   103.835000000000        -9.297506168424804E-010
   104.025000000000        -9.330375110363239E-010
   104.215000000000        -9.363368284583341E-010
   104.405000000000        -9.396486870091078E-010
   104.595000000000        -9.429732242900415E-010
   104.785000000000        -9.463106207888032E-010
   104.975000000000        -9.496611419688829E-010
   105.165000000000        -9.530251084536242E-010
   105.355000000000        -9.564027531240657E-010
   105.545000000000        -9.597941994796167E-010
   105.735000000000        -9.631995086217587E-010
   105.925000000000        -9.666186572682395E-010
   106.115000000000        -9.700515668671588E-010
   106.305000000000        -9.734981604949659E-010
   106.495000000000        -9.769581874974315E-010
   106.685000000000        -9.804315659101383E-010
   106.875000000000        -9.839179290922860E-010
   107.065000000000        -9.874171577290191E-010
   107.255000000000        -9.909289618526144E-010
   107.445000000000        -9.944530510917160E-010
   107.635000000000        -9.979891146154120E-010
   107.825000000000        -1.001536791346115E-009
   108.015000000000        -1.005095659411842E-009
   108.205000000000        -1.008665239719712E-009
   108.395000000000        -1.012244984601782E-009
   108.585000000000        -1.015834254340765E-009
   108.775000000000        -1.019432408318153E-009
   108.965000000000        -1.023038995846110E-009
   109.155000000000        -1.026653695438797E-009
   109.345000000000        -1.030276677952923E-009
   109.535000000000        -1.033907925428730E-009
   109.725000000000        -1.037547708344648E-009
   109.915000000000        -1.041196171343682E-009
   110.105000000000        -1.044853296706092E-009