  -1.42500000000000        -3.781217645105329E-020
  -1.23500000000000        -6.844930748169115E-020
  -1.04500000000000         1.119710316241817E-019
 -0.855000000000000         1.103132498486518E-018
 -0.665000000000000         4.740295608850944E-018
 -0.475000000000000         1.638124711386740E-017
 -0.285000000000000         4.881730526983610E-017
 -9.499999999999975E-002    1.264779629018083E-016
  9.500000000000020E-002    2.955211531175968E-016
  0.285000000000000         6.331670595523013E-016
  0.475000000000000         1.239528479621208E-015
  0.665000000000000         2.198219712554008E-015
  0.855000000000000         3.549910560454749E-015
   1.04500000000000         5.415993686995167E-015
   1.23500000000000         7.934806149723107E-015
   1.42500000000000         1.090708698589213E-014
   1.61500000000000         1.422656368370597E-014
   1.80500000000000         1.806597273182584E-014
   1.99500000000000         2.246512922317557E-014
   2.18500000000000         2.743123026350058E-014
   2.37500000000000         3.299153843260848E-014
   2.56500000000000         3.913159073807737E-014
   2.75500000000000         4.579763829262023E-014
   2.94500000000000         5.292236504317098E-014
   3.13500000000000         6.039963548799415E-014
   3.32500000000000         6.806569448277310E-014
   3.51500000000000         7.587533825775758E-014
   3.70500000000000         8.381447903288760E-014
   3.89500000000000         9.182235281541617E-014
   4.08500000000000         9.989225909013967E-014
   4.27500000000000         1.080147043486222E-013
   4.46500000000000         1.161911100379108E-013
   4.65500000000000         1.244176372388444E-013
   4.84500000000000         1.326689093244936E-013
   5.03500000000000         1.408947736625591E-013
   5.22500000000000         1.490816109592876E-013
   5.41500000000000         1.571902226775543E-013
   5.60500000000000         1.651536688239414E-013
   5.79500000000000         1.729554492156480E-013
   5.98500000000000         1.806109157687532E-013
   6.17500000000000         1.881999483979180E-013
   6.36500000000000         1.958656773402789E-013
   6.55500000000000         2.037586842265463E-013
   6.74500000000000         2.119753690191314E-013
   6.93500000000000         2.205910676634838E-013
   7.12500000000000         2.297466960156021E-013
   7.31500000000000         2.395358236278742E-013
   7.50500000000000         2.498883793196915E-013
   7.69500000000000         2.606386398086163E-013
   7.88500000000000         2.715976662940114E-013
   8.07500000000000         2.826021076326944E-013
   8.26500000000000         2.935494628368453E-013
   8.45500000000000         3.043525303880521E-013
   8.64500000000000         3.149168331574199E-013
   8.83500000000000         3.251736121495967E-013
   9.02500000000000         3.348953188632918E-013
   9.21500000000000         3.435818594184575E-013
   9.40500000000000         3.507423994786730E-013
   9.59500000000000         3.563609052126351E-013
   9.78500000000000         3.607571416476388E-013
   9.97500000000000         3.642107250456034E-013
   10.1650000000000         3.670294070062154E-013
   10.3550000000000         3.694751525015735E-013
   10.5450000000000         3.716406189638813E-013
   10.7350000000000         3.736485996177755E-013
   10.9250000000000         3.756231072402820E-013
   11.1150000000000         3.775647057488103E-013
   11.3050000000000         3.794532707048457E-013
   11.4950000000000         3.812815603619120E-013
   11.6850000000000         3.830800476212771E-013
   11.8750000000000         3.849273366045525E-013
   12.0650000000000         3.869352311499856E-013
   12.2550000000000         3.892010401636474E-013
   12.4450000000000         3.918325478250637E-013
   12.6350000000000         3.947380097776405E-013
   12.8250000000000         3.979226575929735E-013
   13.0150000000000         4.015361391136287E-013
   13.2050000000000         4.055515051794197E-013
   13.3950000000000         4.100096640828047E-013
   13.5850000000000         4.149459138274255E-013
   13.7750000000000         4.202773457700335E-013
   13.9650000000000         4.258786770088055E-013
   14.1550000000000         4.316066228872384E-013
   14.3450000000000         4.374157108187638E-013
   14.5350000000000         4.433017136441112E-013
   14.7250000000000         4.492367615823765E-013
   14.9150000000000         4.552788346815460E-013
   15.1050000000000         4.615657402206403E-013
   15.2950000000000         4.683408920486873E-013
   15.4850000000000         4.758521149138906E-013
   15.6750000000000         4.841833399001565E-013
   15.8650000000000         4.933211787133990E-013
   16.0550000000000         5.032748360443862E-013
   16.2450000000000         5.139531798027146E-013
   16.4350000000000         5.251549722105768E-013
   16.6250000000000         5.366968716478375E-013
   16.8150000000000         5.484551189184386E-013
   17.0050000000000         5.603134575711061E-013
   17.1950000000000         5.722080719717822E-013
   17.3850000000000         5.841261985106434E-013
   17.5750000000000         5.960201543457769E-013
   17.7650000000000         6.078755406477963E-013
   17.9550000000000         6.196916128163101E-013
   18.1450000000000         6.314557434508933E-013
   18.3350000000000         6.431659993029106E-013
   18.5250000000000         6.548066718291924E-013
   18.7150000000000         6.663048809830721E-013
   18.9050000000000         6.775266818540980E-013
   19.0950000000000         6.883159645005053E-013
   19.2850000000000         6.985119591645469E-013
   19.4750000000000         7.080151539553909E-013
   19.6650000000000         7.168092861405645E-013
   19.8550000000000         7.248859153362239E-013
   20.0450000000000         7.322688372952425E-013
   20.2350000000000         7.390503105242966E-013
   20.4250000000000         7.453146224204031E-013
   20.6150000000000         7.510758978085939E-013
   20.8050000000000         7.563096460590823E-013
   20.9950000000000         7.610050186850334E-013
   21.1850000000000         7.653650852158437E-013
   21.3750000000000         7.693547854113218E-013
   21.5650000000000         7.729849928424317E-013
   21.7550000000000         7.764318268972697E-013
   21.9450000000000         7.795336299310101E-013
   22.1350000000000         7.821507739865478E-013
   22.3250000000000         7.841618995218135E-013
   22.5150000000000         7.856646048471954E-013
   22.7050000000000         7.870360849929574E-013
   22.8950000000000         7.887119000624733E-013
   23.0850000000000         7.910098057830601E-013
   23.2750000000000         7.940621958308346E-013
   23.4650000000000         7.979210480726889E-013
   23.6550000000000         8.026961028964624E-013
   23.8450000000000         8.085370430123423E-013
   24.0350000000000         8.154849878461931E-013
   24.2250000000000         8.235260753985254E-013
   24.4150000000000         8.326222775932059E-013
   24.6050000000000         8.427591651912400E-013
   24.7950000000000         8.537235458103074E-013
   24.9850000000000         8.652439274511367E-013
   25.1750000000000         8.771259135684671E-013
   25.3650000000000         8.891556574883407E-013
   25.5550000000000         9.012056235536520E-013
   25.7450000000000         9.131212437904490E-013
   25.9350000000000         9.247732801066528E-013
   26.1250000000000         9.361128382523672E-013
   26.3150000000000         9.471690445590405E-013
   26.5050000000000         9.579565367980499E-013
   26.6950000000000         9.684764685968952E-013
   26.8850000000000         9.787443398010470E-013
   27.0750000000000         9.887341366045371E-013
   27.2650000000000         9.984217476569803E-013
   27.4550000000000         1.007866425178592E-012
   27.6450000000000         1.017187758313527E-012
   27.8350000000000         1.026486982353276E-012
   28.0250000000000         1.035822263419132E-012
   28.2150000000000         1.045234227840127E-012
   28.4050000000000         1.054785471987362E-012
   28.5950000000000         1.064539179943377E-012
   28.7850000000000         1.074461967830026E-012
   28.9750000000000         1.084318083817678E-012
   29.1650000000000         1.093773391126937E-012
   29.3550000000000         1.102544025204937E-012
   29.5450000000000         1.110291296071800E-012
   29.7350000000000         1.116773203995167E-012
   29.9250000000000         1.121981360719080E-012
   30.1150000000000         1.126027909028255E-012
   30.3050000000000         1.129009614350880E-012
   30.4950000000000         1.131025555727468E-012
   30.6850000000000         1.132526479069443E-012
   30.8750000000000         1.133664401918987E-012
   31.0650000000000         1.134086121402080E-012
   31.2550000000000         1.133796069680695E-012
   31.4450000000000         1.133188270600881E-012
   31.6350000000000         1.132717874059854E-012
   31.8250000000000         1.132649121815329E-012
   32.0150000000000         1.133066256733095E-012
   32.2050000000000         1.134033364141719E-012
   32.3950000000000         1.135690622585903E-012
   32.5850000000000         1.137989963481158E-012
   32.7750000000000         1.140698231163580E-012
   32.9650000000000         1.143784911214571E-012
   33.1550000000000         1.147154405542241E-012
   33.3450000000000         1.150709247183649E-012
   33.5350000000000         1.154540600639899E-012
   33.7250000000000         1.158765111320257E-012
   33.9150000000000         1.163567063205316E-012
   34.1050000000000         1.169141670393135E-012
   34.2950000000000         1.175553734304118E-012
   34.4850000000000         1.182647276254986E-012
   34.6750000000000         1.190301084656521E-012
   34.8650000000000         1.198528368914840E-012
   35.0550000000000         1.207316095889712E-012
   35.2450000000000         1.216692877767237E-012
   35.4350000000000         1.226659642070612E-012
   35.6250000000000         1.237104806263224E-012
   35.8150000000000         1.247877582044754E-012
   36.0050000000000         1.258822066483058E-012
   36.1950000000000         1.269801552416949E-012
   36.3850000000000         1.280763586254736E-012
   36.5750000000000         1.291671429466185E-012
   36.7650000000000         1.302510533184192E-012
   36.9550000000000         1.313264782267037E-012
   37.1450000000000         1.323874825800167E-012
   37.3350000000000         1.334314591719240E-012
   37.5250000000000         1.344583527651678E-012
   37.7150000000000         1.354691654347158E-012
   37.9050000000000         1.364650810665573E-012
   38.0950000000000         1.374499356497879E-012
   38.2850000000000         1.384231738902528E-012
   38.4750000000000         1.393753455182409E-012
   38.6650000000000         1.403023466809748E-012
   38.8550000000000         1.412114743626013E-012
   39.0450000000000         1.421097415545942E-012
   39.2350000000000         1.429951553658874E-012
   39.4250000000000         1.438598757282782E-012
   39.6150000000000         1.446953962412599E-012
   39.8050000000000         1.454907760682299E-012
   39.9950000000000         1.462536759818306E-012
   40.1850000000000         1.469918594874113E-012
   40.3750000000000         1.477124082447782E-012
   40.5650000000000         1.484261262366134E-012
   40.7550000000000         1.491251145739923E-012
   40.9450000000000         1.497929193743672E-012
   41.1350000000000         1.503962202170539E-012
   41.3250000000000         1.508915156675003E-012
   41.5150000000000         1.512591584998136E-012
   41.7050000000000         1.515191488550153E-012
   41.8950000000000         1.517073120996565E-012
   42.0850000000000         1.518595105960194E-012
   42.2750000000000         1.520057396330339E-012
   42.4650000000000         1.521679600841113E-012
   42.6550000000000         1.523647632252295E-012
   42.8450000000000         1.526122265767028E-012
   43.0350000000000         1.529201470753425E-012
   43.2250000000000         1.532883097676214E-012
   43.4150000000000         1.537224363512734E-012
   43.6050000000000         1.542045731176333E-012
   43.7950000000000         1.547142734164376E-012
   43.9850000000000         1.552546155378565E-012
   44.1750000000000         1.558275194721004E-012
   44.3650000000000         1.564466642647072E-012
   44.5550000000000         1.571363657085231E-012
   44.7450000000000         1.579240263500695E-012
   44.9350000000000         1.588097053189342E-012
   45.1250000000000         1.597517487051886E-012
   45.3150000000000         1.607032758517457E-012
   45.5050000000000         1.616367465487435E-012
   45.6950000000000         1.625415513280341E-012
   45.8850000000000         1.634204842832682E-012
   46.0750000000000         1.642899148523453E-012
   46.2650000000000         1.651615986686849E-012
   46.4550000000000         1.660360913897545E-012
   46.6450000000000         1.669137799854105E-012
   46.8350000000000         1.677938449326046E-012
   47.0250000000000         1.686829525256260E-012
   47.2150000000000         1.695931039292400E-012
   47.4050000000000         1.705277975924885E-012
   47.5950000000000         1.714750767691154E-012
   47.7850000000000         1.724226399327461E-012
   47.9750000000000         1.733590657587639E-012
   48.1650000000000         1.742745561339183E-012
   48.3550000000000         1.751674809169602E-012
   48.5450000000000         1.760403586117404E-012
   48.7350000000000         1.768929321222876E-012
   48.9250000000000         1.777297858617176E-012
   49.1150000000000         1.785563114422770E-012
   49.3050000000000         1.793596710185613E-012
   49.4950000000000         1.801153444618679E-012
   49.6850000000000         1.808112506696538E-012
   49.8750000000000         1.814621905161842E-012
   50.0650000000000         1.820998646390232E-012
   50.2550000000000         1.827566693938475E-012
   50.4450000000000         1.834528206379562E-012
   50.6350000000000         1.841786698771447E-012
   50.8250000000000         1.849378119102136E-012
   51.0150000000000         1.857302958964469E-012
   51.2050000000000         1.865415718552898E-012
   51.3950000000000         1.873819816979698E-012
   51.5850000000000         1.882614112241445E-012
   51.7750000000000         1.891737905714117E-012
   51.9650000000000         1.900740207384171E-012
   52.1550000000000         1.909034311371080E-012
   52.3450000000000         1.916229292727679E-012
   52.5350000000000         1.922093082792789E-012
   52.7250000000000         1.926648284887345E-012
   52.9150000000000         1.930302048796668E-012
   53.1050000000000         1.933171859332587E-012
   53.2950000000000         1.935136748028600E-012
   53.4850000000000         1.936298018456052E-012
   53.6750000000000         1.936678096392256E-012
   53.8650000000000         1.936561622668427E-012
   54.0550000000000         1.936540359741591E-012
   54.2450000000000         1.937139332382290E-012
   54.4350000000000         1.938786773479338E-012
   54.6250000000000         1.941728893671255E-012
   54.8150000000000         1.946030687717242E-012
   55.0050000000000         1.951653651708490E-012
   55.1950000000000         1.958423585754488E-012
   55.3850000000000         1.966288968621802E-012
   55.5750000000000         1.975012476494435E-012
   55.7650000000000         1.984325424425803E-012
   55.9550000000000         1.994333221289360E-012
   56.1450000000000         2.005257669096505E-012
   56.3350000000000         2.017239229834591E-012
   56.5250000000000         2.029985565230750E-012
   56.7150000000000         2.042961204847033E-012
   56.9050000000000         2.055786519990393E-012
   57.0950000000000         2.068274644395121E-012
   57.2850000000000         2.080388873716336E-012
   57.4750000000000         2.092055604117138E-012
   57.6650000000000         2.103138166456260E-012
   57.8550000000000         2.113651716417677E-012
   58.0450000000000         2.123738134787606E-012
   58.2350000000000         2.133483895412171E-012
   58.4250000000000         2.142879692694546E-012
   58.6150000000000         2.151970516857775E-012
   58.8050000000000         2.160842992906897E-012
   58.9950000000000         2.169562630990577E-012
   59.1850000000000         2.178198259958531E-012
   59.3750000000000         2.186819130984205E-012
   59.5650000000000         2.195461993210906E-012
   59.7550000000000         2.204132077614937E-012
   59.9450000000000         2.212811291660732E-012
   60.1350000000000         2.221472094070027E-012
   60.3250000000000         2.230082128712669E-012
   60.5150000000000         2.238591828904789E-012
   60.7050000000000         2.246906995521469E-012
   60.8950000000000         2.254884108151859E-012
   61.0850000000000         2.262384266996885E-012
   61.2750000000000         2.269326528313291E-012
   61.4650000000000         2.275710111037715E-012
   61.6550000000000         2.281595465214489E-012
   61.8450000000000         2.287062492751981E-012
   62.0350000000000         2.292194191343112E-012
   62.2250000000000         2.297097051802212E-012
   62.4150000000000         2.301790659728123E-012
   62.6050000000000         2.306248929409175E-012
   62.7950000000000         2.310585661197219E-012
   62.9850000000000         2.314836232171286E-012
   63.1750000000000         2.318888338644836E-012
   63.3650000000000         2.322634367961218E-012
   63.5550000000000         2.325956200770955E-012
   63.7450000000000         2.328739502566275E-012
   63.9350000000000         2.330965568808463E-012
   64.1250000000000         2.332725280727548E-012
   64.3150000000000         2.334177125847491E-012
   64.5050000000000         2.335531180606424E-012
   64.6950000000000         2.337017630431741E-012
   64.8850000000000         2.338820252569023E-012
   65.0750000000000         2.341071902054349E-012
   65.2650000000000         2.343911031606750E-012
   65.4550000000000         2.347418569834169E-012
   65.6450000000000         2.351616759753608E-012
   65.8350000000000         2.356528781739371E-012
   66.0250000000000         2.362114340136080E-012
   66.2150000000000         2.368287929378548E-012
   66.4050000000000         2.375026951488621E-012
   66.5950000000000         2.382123618225943E-012
   66.7850000000000         2.389537820754277E-012
   66.9750000000000         2.397340493892858E-012
   67.1650000000000         2.405472331352085E-012
   67.3550000000000         2.414024207916056E-012
   67.5450000000000         2.423093581066255E-012
   67.7350000000000         2.432786746178258E-012
   67.9250000000000         2.443163287112845E-012
   68.1150000000000         2.454156648630323E-012
   68.3050000000000         2.465589851072258E-012
   68.4950000000000         2.477216088639911E-012
   68.6850000000000         2.488757265527559E-012
   68.8750000000000         2.499999748023185E-012
   69.0650000000000         2.510828154643652E-012
   69.2550000000000         2.521207552285782E-012
   69.4450000000000         2.531174645141767E-012
   69.6350000000000         2.540839065220200E-012
   69.8250000000000         2.550360745983780E-012
   70.0150000000000         2.559856046767573E-012
   70.2050000000000         2.569393783562773E-012
   70.3950000000000         2.579033381365763E-012
   70.5850000000000         2.588797752598376E-012
   70.7750000000000         2.598672667749857E-012
   70.9650000000000         2.608591808436183E-012
   71.1550000000000         2.618440685885422E-012
   71.3450000000000         2.628084811349935E-012
   71.5350000000000         2.637385667875595E-012
   71.7250000000000         2.646328517083890E-012
   71.9150000000000         2.654923637665110E-012
   72.1050000000000         2.663266554480181E-012
   72.2950000000000         2.671552325103158E-012
   72.4850000000000         2.679888693385573E-012
   72.6750000000000         2.688371065734123E-012
   72.8650000000000         2.696990067351473E-012
   73.0550000000000         2.705647632251161E-012
   73.2450000000000         2.714199174136649E-012
   73.4350000000000         2.722346015456564E-012
   73.6250000000000         2.729661888055277E-012
   73.8150000000000         2.735827479764012E-012
   74.0050000000000         2.740720879470381E-012
   74.1950000000000         2.744510903001059E-012
   74.3850000000000         2.747603649521998E-012
   74.5750000000000         2.750412395901230E-012
   74.7650000000000         2.753277395320884E-012
   74.9550000000000         2.756406414325522E-012
   75.1450000000000         2.759902906196233E-012
   75.3350000000000         2.763730233229471E-012
   75.5250000000000         2.767949442516593E-012
   75.7150000000000         2.772518459318439E-012
   75.9050000000000         2.777287174431532E-012
   76.0950000000000         2.782356345302601E-012
   76.2850000000000         2.787906627512666E-012
   76.4750000000000         2.794160565450529E-012
   76.6650000000000         2.801249340861074E-012
   76.8550000000000         2.808994107366805E-012
   77.0450000000000         2.817204962040450E-012
   77.2350000000000         2.826026225782195E-012
   77.4250000000000         2.835774446985215E-012
   77.6150000000000         2.846702968745987E-012
   77.8050000000000         2.858696139968762E-012
   77.9950000000000         2.871332526525566E-012
   78.1850000000000         2.884226743882293E-012
   78.3750000000000         2.897118080902723E-012
   78.5650000000000         2.909863620900870E-012
   78.7550000000000         2.922335191584610E-012
   78.9450000000000         2.934532951640502E-012
   79.1350000000000         2.946444777249963E-012
   79.3250000000000         2.958004001391814E-012
   79.5150000000000         2.969186483091396E-012
   79.7050000000000         2.979880538597644E-012
   79.8950000000000         2.989931179281889E-012
   80.0850000000000         2.999152577537575E-012
   80.2750000000000         3.007492176284230E-012
   80.4650000000000         3.015134590714016E-012
   80.6550000000000         3.022411449879175E-012
   80.8450000000000         3.029570717019459E-012
   81.0350000000000         3.036675746435293E-012
   81.2250000000000         3.043666832973154E-012
   81.4150000000000         3.050463089205363E-012
   81.6050000000000         3.056986899302461E-012
   81.7950000000000         3.063189140090274E-012
   81.9850000000000         3.069034107003717E-012
   82.1750000000000         3.074538425127859E-012
   82.3650000000000         3.079781962511942E-012
   82.5550000000000         3.084795566889621E-012
   82.7450000000000         3.089568120566756E-012
   82.9350000000000         3.094094981628453E-012
   83.1250000000000         3.098427088690906E-012
   83.3150000000000         3.102647798795501E-012
   83.5050000000000         3.106822967680040E-012
   83.6950000000000         3.110984657210447E-012
   83.8850000000000         3.115113785574545E-012
   84.0750000000000         3.119195861854737E-012
   84.2650000000000         3.123234963915179E-012
   84.4550000000000         3.127205751299239E-012
   84.6450000000000         3.131090948962607E-012
   84.8350000000000         3.134879978744740E-012
   85.0250000000000         3.138585216254190E-012
   85.2150000000000         3.142270550840523E-012
   85.4050000000000         3.146081336843128E-012
   85.5950000000000         3.150269644865784E-012
   85.7850000000000         3.155094655773103E-012
   85.9750000000000         3.160679496532660E-012
   86.1650000000000         3.167013023741377E-012
   86.3550000000000         3.174006958175316E-012
   86.5450000000000         3.181572720233567E-012
   86.7350000000000         3.189652917626143E-012
   86.9250000000000         3.198183957714331E-012
   87.1150000000000         3.207097036817192E-012
   87.3050000000000         3.216349780169133E-012
   87.4950000000000         3.225940834483795E-012
   87.6850000000000         3.235886574934309E-012
   87.8750000000000         3.246145068088843E-012
   88.0650000000000         3.256709749207442E-012
   88.2550000000000         3.267607989274801E-012
   88.4450000000000         3.278861439326896E-012
   88.6350000000000         3.290508065035276E-012
   88.8250000000000         3.302568471999863E-012
   89.0150000000000         3.315042791421664E-012
   89.2050000000000         3.327868997480359E-012
   89.3950000000000         3.340842292853957E-012
   89.5850000000000         3.353548806340357E-012
   89.7750000000000         3.365586673925150E-012
   89.9650000000000         3.376762422865173E-012
   90.1550000000000         3.387004090558852E-012
   90.3450000000000         3.396359391597262E-012
   90.5350000000000         3.404975227218599E-012
   90.7250000000000         3.413010310506631E-012
   90.9150000000000         3.420639338844857E-012
   91.1050000000000         3.428023807877948E-012
   91.2950000000000         3.435293045051287E-012
   91.4850000000000         3.442524539859928E-012
   91.6750000000000         3.449764566891320E-012
   91.8650000000000         3.457063811310714E-012
   92.0550000000000         3.464462283622481E-012
   92.2450000000000         3.471944812858205E-012
   92.4350000000000         3.479466032781589E-012
   92.6250000000000         3.487020820108400E-012
   92.8150000000000         3.494610281405976E-012
   93.0050000000000         3.502237533625476E-012
   93.1950000000000         3.509937459662236E-012
   93.3850000000000         3.517711058415745E-012
   93.5750000000000         3.525427201527525E-012
   93.7650000000000         3.532793102107880E-012
   93.9550000000000         3.539527881074162E-012
   94.1450000000000         3.545532853692221E-012
   94.3350000000000         3.550864495592805E-012
   94.5250000000000         3.555617015688068E-012
   94.7150000000000         3.559889410546600E-012
   94.9050000000000         3.563726826786783E-012
   95.0950000000000         3.567174280291882E-012
   95.2850000000000         3.570293832711531E-012
   95.4750000000000         3.573170724465161E-012
   95.6650000000000         3.575874794227354E-012
   95.8550000000000         3.578470519587964E-012
   96.0450000000000         3.581089972294127E-012
   96.2350000000000         3.583865943675880E-012
   96.4250000000000         3.586974351445130E-012
   96.6150000000000         3.590602211941648E-012
   96.8050000000000         3.594977127041523E-012
   96.9950000000000         3.600277176258561E-012
   97.1850000000000         3.606510387734353E-012
   97.3750000000000         3.613438554197629E-012
   97.5650000000000         3.620898292084264E-012
   97.7550000000000         3.628913705357942E-012
   97.9450000000000         3.637512586255398E-012
   98.1350000000000         3.646813719916028E-012
   98.3250000000000         3.656898992251084E-012
   98.5150000000000         3.667734689587361E-012
   98.7050000000000         3.679195683129459E-012
   98.8950000000000         3.691105314489759E-012
   99.0850000000000         3.703277644003716E-012
   99.2750000000000         3.715526032817355E-012
   99.4650000000000         3.727590632829786E-012
   99.6550000000000         3.739204129980479E-012
   99.8450000000000         3.750154649078957E-012
   100.035000000000         3.760325466429253E-012
   100.225000000000         3.769721159377181E-012
   100.415000000000         3.778394792397589E-012
   100.605000000000         3.786410779437027E-012
   100.795000000000         3.793854819786022E-012
   100.985000000000         3.800857686175313E-012
   101.175000000000         3.807589508105674E-012
   101.365000000000         3.814136716973094E-012
   101.555000000000         3.820570257967291E-012
   101.745000000000         3.826995664886695E-012
   101.935000000000         3.833435248388910E-012
   102.125000000000         3.839920818390171E-012
   102.315000000000         3.846516547401644E-012
   102.505000000000         3.853290939437299E-012
   102.695000000000         3.860279773071896E-012
   102.885000000000         3.867447825551745E-012
   103.075000000000         3.874661012256494E-012
   103.265000000000         3.881824684586478E-012
   103.455000000000         3.888907699234423E-012
   103.645000000000         3.895882732901614E-012
   103.835000000000         3.902784474712128E-012
   104.025000000000         3.909676694041842E-012
   104.215000000000         3.916651545151774E-012
   104.405000000000         3.923782686538642E-012
   104.595000000000         3.931075034719609E-012
   104.785000000000         3.938460457008265E-012
   104.975000000000         3.945780281678128E-012
   105.165000000000         3.952806183149846E-012
   105.355000000000         3.959335910574850E-012
   105.545000000000         3.965257528882355E-012
   105.735000000000         3.970545324726600E-012
   105.925000000000         3.975280873881428E-012
   106.115000000000         3.979642431185310E-012
   106.305000000000         3.983804690439148E-012
   106.495000000000         3.987941549558254E-012
   106.685000000000         3.992188890201660E-012
   106.875000000000         3.996604751535656E-012
   107.065000000000         4.001227146821724E-012
   107.255000000000         4.006069056379077E-012
   107.445000000000         4.011141170087942E-012
   107.635000000000         4.016460751919473E-012
   107.825000000000         4.022042800312766E-012
   108.015000000000         4.027888386231676E-012
   108.205000000000         4.034009141890650E-012
   108.395000000000         4.040510866771719E-012
   108.585000000000         4.047595187228558E-012
   108.775000000000         4.055380414525273E-012
   108.965000000000         4.063930125832559E-012
   109.155000000000         4.072965092947197E-012
   109.345000000000         4.082404914546522E-012
   109.535000000000         4.092253729628232E-012
   109.725000000000         4.102315630917027E-012
   109.915000000000         4.112691229427842E-012
   110.105000000000         4.123503507900955E-012