  -1.42500000000000        -7.562435290211198E-020
  -1.23500000000000        -2.722848800250037E-019
  -1.04500000000000        -4.229269917409307E-019
 -0.855000000000000         1.835384529500249E-018
 -0.665000000000000         1.901878697963725E-017
 -0.475000000000000         9.755994045814919E-017
 -0.285000000000000         3.052830097913470E-016
 -9.499999999999975E-002    7.967535873002146E-016
  9.500000000000020E-002    1.887093689545373E-015
  0.285000000000000         4.718795442856372E-015
  0.475000000000000         9.593573425675153E-015
  0.665000000000000         1.598045791469259E-014
  0.855000000000000         2.331201278701276E-014
   1.04500000000000         3.399091208938136E-014
   1.23500000000000         5.960035639376783E-014
   1.42500000000000         9.312106991843112E-014
   1.61500000000000         1.262968486082175E-013
   1.80500000000000         1.677712264003397E-013
   1.99500000000000         2.191367817420506E-013
   2.18500000000000         2.809405053677973E-013
   2.37500000000000         3.537372974086239E-013
   2.56500000000000         4.377751824549631E-013
   2.75500000000000         5.331637857713746E-013
   2.94500000000000         6.397147339025790E-013
   3.13500000000000         7.563379822999070E-013
   3.32500000000000         8.780650478285816E-013
   3.51500000000000         1.002143887600360E-012
   3.70500000000000         1.129028966998264E-012
   3.89500000000000         1.258020708754094E-012
   4.08500000000000         1.389019441510284E-012
   4.27500000000000         1.521323756078700E-012
   4.46500000000000         1.654070821452198E-012
   4.65500000000000         1.785794255311487E-012
   4.84500000000000         1.914682046802049E-012
   5.03500000000000         2.039788203967815E-012
   5.22500000000000         2.163130280409839E-012
   5.41500000000000         2.283999577194458E-012
   5.60500000000000         2.398018753185328E-012
   5.79500000000000         2.504416838193876E-012
   5.98500000000000         2.603922878366981E-012
   6.17500000000000         2.695705714410864E-012
   6.36500000000000         2.774645901179468E-012
   6.55500000000000         2.843255852615428E-012
   6.74500000000000         2.907513923370543E-012
   6.93500000000000         2.962083950968749E-012
   7.12500000000000         3.002804773169010E-012
   7.31500000000000         3.035428390689658E-012
   7.50500000000000         3.062514715180933E-012
   7.69500000000000         3.085928438768619E-012
   7.88500000000000         3.111680667795353E-012
   8.07500000000000         3.140307813403996E-012
   8.26500000000000         3.168778749453938E-012
   8.45500000000000         3.197551805084775E-012
   8.64500000000000         3.230526475738631E-012
   8.83500000000000         3.269364641476176E-012
   9.02500000000000         3.325214315463829E-012
   9.21500000000000         3.396164165900694E-012
   9.40500000000000         3.466526871277261E-012
   9.59500000000000         3.536115458810173E-012
   9.78500000000000         3.616751073503331E-012
   9.97500000000000         3.706957355800534E-012
   10.1650000000000         3.795615222355327E-012
   10.3550000000000         3.883047508791718E-012
   10.5450000000000         3.971609969630909E-012
   10.7350000000000         4.062181458027250E-012
   10.9250000000000         4.154393822312328E-012
   11.1150000000000         4.248064384194305E-012
   11.3050000000000         4.342933967988532E-012
   11.4950000000000         4.439258849558967E-012
   11.6850000000000         4.537599589953686E-012
   11.8750000000000         4.638027886612981E-012
   12.0650000000000         4.739933081476295E-012
   12.2550000000000         4.842426317752493E-012
   12.4450000000000         4.944605640747907E-012
   12.6350000000000         5.046765115723249E-012
   12.8250000000000         5.148760874843430E-012
   13.0150000000000         5.247565893543653E-012
   13.2050000000000         5.342214330467664E-012
   13.3950000000000         5.432622438680272E-012
   13.5850000000000         5.517280276409261E-012
   13.7750000000000         5.595454677332471E-012
   13.9650000000000         5.666931966580541E-012
   14.1550000000000         5.733041558870790E-012
   14.3450000000000         5.795067763690844E-012
   14.5350000000000         5.853511914546975E-012
   14.7250000000000         5.909031337168582E-012
   14.9150000000000         5.962716993948243E-012
   15.1050000000000         6.015407891750477E-012
   15.2950000000000         6.068939799098834E-012
   15.4850000000000         6.127500397322501E-012
   15.6750000000000         6.189516499082406E-012
   15.8650000000000         6.253029628398478E-012
   16.0550000000000         6.322411667929108E-012
   16.2450000000000         6.396703494865000E-012
   16.4350000000000         6.474019564162062E-012
   16.6250000000000         6.556159008199871E-012
   16.8150000000000         6.643475564918006E-012
   17.0050000000000         6.733746891645421E-012
   17.1950000000000         6.825568045007875E-012
   17.3850000000000         6.919372405357490E-012
   17.5750000000000         7.016054450118332E-012
   17.7650000000000         7.115555089601229E-012
   17.9550000000000         7.216858320046070E-012
   18.1450000000000         7.319877496873924E-012
   18.3350000000000         7.424270123398810E-012
   18.5250000000000         7.530168196156575E-012
   18.7150000000000         7.637747395005718E-012
   18.9050000000000         7.745406755150277E-012
   19.0950000000000         7.850472464200973E-012
   19.2850000000000         7.950858133434225E-012
   19.4750000000000         8.045288479014887E-012
   19.6650000000000         8.132848341975629E-012
   19.8550000000000         8.212011704837581E-012
   20.0450000000000         8.281503497234811E-012
   20.2350000000000         8.340747540807584E-012
   20.4250000000000         8.390136919781570E-012
   20.6150000000000         8.430783936440622E-012
   20.8050000000000         8.464072604425989E-012
   20.9950000000000         8.491661663268417E-012
   21.1850000000000         8.514908802640771E-012
   21.3750000000000         8.534633720097674E-012
   21.5650000000000         8.552442659252843E-012
   21.7550000000000         8.570539636179483E-012
   21.9450000000000         8.588951148428140E-012
   22.1350000000000         8.607103049048813E-012
   22.3250000000000         8.628374390754146E-012
   22.5150000000000         8.653827407929145E-012
   22.7050000000000         8.681899459344154E-012
   22.8950000000000         8.714379139197956E-012
   23.0850000000000         8.751490169483270E-012
   23.2750000000000         8.797581616163648E-012
   23.4650000000000         8.845985924377137E-012
   23.6550000000000         8.893153044195359E-012
   23.8450000000000         8.948969580674109E-012
   24.0350000000000         9.014584191407372E-012
   24.2250000000000         9.090295794643983E-012
   24.4150000000000         9.179024873155907E-012
   24.6050000000000         9.295979981047255E-012
   24.7950000000000         9.422340157636105E-012
   24.9850000000000         9.543393805993337E-012
   25.1750000000000         9.669682232348390E-012
   25.3650000000000         9.797018018815981E-012
   25.5550000000000         9.926904096327990E-012
   25.7450000000000         1.005847767558678E-011
   25.9350000000000         1.019063582849750E-011
   26.1250000000000         1.032133048784547E-011
   26.3150000000000         1.044862210742102E-011
   26.5050000000000         1.057232435129139E-011
   26.6950000000000         1.069336884168214E-011
   26.8850000000000         1.081208901828696E-011
   27.0750000000000         1.092743878169051E-011
   27.2650000000000         1.103822755434166E-011
   27.4550000000000         1.114407816106882E-011
   27.6450000000000         1.124431723811709E-011
   27.8350000000000         1.134075834980905E-011
   28.0250000000000         1.143273152678248E-011
   28.2150000000000         1.151807476556060E-011
   28.4050000000000         1.159671536454094E-011
   28.5950000000000         1.165890922403031E-011
   28.7850000000000         1.170695647782041E-011
   28.9750000000000         1.174943677049741E-011
   29.1650000000000         1.179058589095320E-011
   29.3550000000000         1.183261126352099E-011
   29.5450000000000         1.186867101277418E-011
   29.7350000000000         1.189948468574858E-011
   29.9250000000000         1.192934935994790E-011
   30.1150000000000         1.196084591619650E-011
   30.3050000000000         1.199345602315161E-011
   30.4950000000000         1.202699973684038E-011
   30.6850000000000         1.205996523641848E-011
   30.8750000000000         1.209464882075983E-011
   31.0650000000000         1.213346310723538E-011
   31.2550000000000         1.216829652377796E-011
   31.4450000000000         1.221249371385634E-011
   31.6350000000000         1.227289706350565E-011
   31.8250000000000         1.234697469904211E-011
   32.0150000000000         1.243138563247920E-011
   32.2050000000000         1.252388953895192E-011
   32.3950000000000         1.263805180273783E-011
   32.5850000000000         1.276941735780155E-011
   32.7750000000000         1.290312832346076E-011
   32.9650000000000         1.303718337410510E-011
   33.1550000000000         1.317625759757329E-011
   33.3450000000000         1.331874021769551E-011
   33.5350000000000         1.346439073968756E-011
   33.7250000000000         1.361277663048523E-011
   33.9150000000000         1.376130086170399E-011
   34.1050000000000         1.390785976684992E-011
   34.2950000000000         1.405057105078680E-011
   34.4850000000000         1.418772476500423E-011
   34.6750000000000         1.431831079951450E-011
   34.8650000000000         1.444214262319885E-011
   35.0550000000000         1.455850002210509E-011
   35.2450000000000         1.466622206378707E-011
   35.4350000000000         1.476196819981603E-011
   35.6250000000000         1.484613763267394E-011
   35.8150000000000         1.492276594435450E-011
   36.0050000000000         1.499449760721854E-011
   36.1950000000000         1.506153517949694E-011
   36.3850000000000         1.512130699036785E-011
   36.5750000000000         1.517519748684938E-011
   36.7650000000000         1.522491717039258E-011
   36.9550000000000         1.527051085912477E-011
   37.1450000000000         1.531205451096476E-011
   37.3350000000000         1.535012678026846E-011
   37.5250000000000         1.538602116682368E-011
   37.7150000000000         1.542041896796371E-011
   37.9050000000000         1.545459715615598E-011
   38.0950000000000         1.549035444175937E-011
   38.2850000000000         1.552962697509091E-011
   38.4750000000000         1.557955955036547E-011
   38.6650000000000         1.563721484576534E-011
   38.8550000000000         1.569860370199335E-011
   39.0450000000000         1.576649515483112E-011
   39.2350000000000         1.584063505197411E-011
   39.4250000000000         1.592099079614017E-011
   39.6150000000000         1.599675180055400E-011
   39.8050000000000         1.607966942884873E-011
   39.9950000000000         1.617480574226609E-011
   40.1850000000000         1.626861644209484E-011
   40.3750000000000         1.636329981611804E-011
   40.5650000000000         1.645902660210255E-011
   40.7550000000000         1.655433387680362E-011
   40.9450000000000         1.664691003533881E-011
   41.1350000000000         1.673594804340064E-011
   41.3250000000000         1.682074873930088E-011
   41.5150000000000         1.689867586115770E-011
   41.7050000000000         1.697212595473041E-011
   41.8950000000000         1.704935306431917E-011
   42.0850000000000         1.713116501057024E-011
   42.2750000000000         1.721194848219182E-011
   42.4650000000000         1.729258883424891E-011
   42.6550000000000         1.737877823632142E-011
   42.8450000000000         1.746980604021349E-011
   43.0350000000000         1.756317439218127E-011
   43.2250000000000         1.765967693055866E-011
   43.4150000000000         1.775814076036498E-011
   43.6050000000000         1.785596835157499E-011
   43.7950000000000         1.795285533015524E-011
   43.9850000000000         1.804922725951536E-011
   44.1750000000000         1.814372190768762E-011
   44.3650000000000         1.823412989733312E-011
   44.5550000000000         1.831863619606749E-011
   44.7450000000000         1.839769096081963E-011
   44.9350000000000         1.847136291556473E-011
   45.1250000000000         1.854384195603620E-011
   45.3150000000000         1.862147199577095E-011
   45.5050000000000         1.870396815924048E-011
   45.6950000000000         1.879050105821702E-011
   45.8850000000000         1.888712748586649E-011
   46.0750000000000         1.898994988249515E-011
   46.2650000000000         1.909413846340567E-011
   46.4550000000000         1.920340886630885E-011
   46.6450000000000         1.931532114812830E-011
   46.8350000000000         1.942683276181967E-011
   47.0250000000000         1.953470321679336E-011
   47.2150000000000         1.963920276579685E-011
   47.4050000000000         1.974075439936199E-011
   47.5950000000000         1.983603752746019E-011
   47.7850000000000         1.992983426953638E-011
   47.9750000000000         2.000926252475036E-011
   48.1650000000000         2.007218835513187E-011
   48.3550000000000         2.013439308144396E-011
   48.5450000000000         2.019770881749678E-011
   48.7350000000000         2.026210743696763E-011
   48.9250000000000         2.032378575174460E-011
   49.1150000000000         2.038325783939628E-011
   49.3050000000000         2.044042657941595E-011
   49.4950000000000         2.048659288561428E-011
   49.6850000000000         2.052513761859403E-011
   49.8750000000000         2.055456475701977E-011
   50.0650000000000         2.057856432448329E-011
   50.2550000000000         2.060540253169770E-011
   50.4450000000000         2.062962119783132E-011
   50.6350000000000         2.065349853278416E-011
   50.8250000000000         2.067802216583236E-011
   51.0150000000000         2.070212612766527E-011
   51.2050000000000         2.072499703305763E-011
   51.3950000000000         2.075054020852893E-011
   51.5850000000000         2.078483651644967E-011
   51.7750000000000         2.083688874251585E-011
   51.9650000000000         2.090408482246567E-011
   52.1550000000000         2.096622588020485E-011
   52.3450000000000         2.104242756258067E-011
   52.5350000000000         2.115112968421812E-011
   52.7250000000000         2.126863549654189E-011
   52.9150000000000         2.138946934376344E-011
   53.1050000000000         2.151521992379836E-011
   53.2950000000000         2.164467605740034E-011
   53.4850000000000         2.178248984224905E-011
   53.6750000000000         2.193050068632786E-011
   53.8650000000000         2.208582493060791E-011
   54.0550000000000         2.224242900446292E-011
   54.2450000000000         2.239814771163394E-011
   54.4350000000000         2.255269187104427E-011
   54.6250000000000         2.270613155461946E-011
   54.8150000000000         2.285758413916222E-011
   55.0050000000000         2.300434915437348E-011
   55.1950000000000         2.314920652773885E-011
   55.3850000000000         2.329271634433338E-011
   55.5750000000000         2.343179163633888E-011
   55.7650000000000         2.356593225847591E-011
   55.9550000000000         2.369548139082521E-011
   56.1450000000000         2.381674959247588E-011
   56.3350000000000         2.392302908502957E-011
   56.5250000000000         2.401895008103380E-011
   56.7150000000000         2.410688269341900E-011
   56.9050000000000         2.418003559976293E-011
   57.0950000000000         2.424321560351255E-011
   57.2850000000000         2.430603733464687E-011
   57.4750000000000         2.436550546775892E-011
   57.6650000000000         2.441579902754516E-011
   57.8550000000000         2.445749912783709E-011
   58.0450000000000         2.449086261309199E-011
   58.2350000000000         2.451738145257172E-011
   58.4250000000000         2.453904106969486E-011
   58.6150000000000         2.455689967869287E-011
   58.8050000000000         2.457304893847473E-011
   58.9950000000000         2.458875038396955E-011
   59.1850000000000         2.460412836409156E-011
   59.3750000000000         2.461866565869293E-011
   59.5650000000000         2.463173479429855E-011
   59.7550000000000         2.464346114159879E-011
   59.9450000000000         2.465447967972199E-011
   60.1350000000000         2.466532744575952E-011
   60.3250000000000         2.467680776943930E-011
   60.5150000000000         2.468991692154498E-011
   60.7050000000000         2.470631622066437E-011
   60.8950000000000         2.474156588124439E-011
   61.0850000000000         2.479193980399965E-011
   61.2750000000000         2.485061992322570E-011
   61.4650000000000         2.492690917119422E-011
   61.6550000000000         2.501585043312129E-011
   61.8450000000000         2.511749337306933E-011
   62.0350000000000         2.523109249994484E-011
   62.2250000000000         2.535044958771986E-011
   62.4150000000000         2.547369723443485E-011
   62.6050000000000         2.560399120433957E-011
   62.7950000000000         2.574410337571983E-011
   62.9850000000000         2.589170784920321E-011
   63.1750000000000         2.604483419311439E-011
   63.3650000000000         2.620258194054220E-011
   63.5550000000000         2.636273759320327E-011
   63.7450000000000         2.652357608680464E-011
   63.9350000000000         2.668238258145659E-011
   64.1250000000000         2.683563236177111E-011
   64.3150000000000         2.698103427314993E-011
   64.5050000000000         2.711840301511543E-011
   64.6950000000000         2.723037263263918E-011
   64.8850000000000         2.733392307113136E-011
   65.0750000000000         2.744606602825212E-011
   65.2650000000000         2.754867869133587E-011
   65.4550000000000         2.764156766538525E-011
   65.6450000000000         2.772474623720098E-011
   65.8350000000000         2.779799732791507E-011
   66.0250000000000         2.786109128787047E-011
   66.2150000000000         2.791389057030285E-011
   66.4050000000000         2.795743526810858E-011
   66.5950000000000         2.799596004067282E-011
   66.7850000000000         2.803179632046590E-011
   66.9750000000000         2.806449475423839E-011
   67.1650000000000         2.809421425297887E-011
   67.3550000000000         2.812117756526622E-011
   67.5450000000000         2.814693848699019E-011
   67.7350000000000         2.817371774336764E-011
   67.9250000000000         2.820250142026679E-011
   68.1150000000000         2.823334098827467E-011
   68.3050000000000         2.826762807747335E-011
   68.4950000000000         2.830832416354197E-011
   68.6850000000000         2.835851046753934E-011
   68.8750000000000         2.841972068694936E-011
   69.0650000000000         2.849188854620585E-011
   69.2550000000000         2.857417666489590E-011
   69.4450000000000         2.866533391754651E-011
   69.6350000000000         2.876356982155564E-011
   69.8250000000000         2.886701956408641E-011
   70.0150000000000         2.897359905378079E-011
   70.2050000000000         2.908116824922012E-011
   70.3950000000000         2.918876004691710E-011
   70.5850000000000         2.929604815901175E-011
   70.7750000000000         2.940231611026589E-011
   70.9650000000000         2.950651193347818E-011
   71.1550000000000         2.960335346272854E-011
   71.3450000000000         2.969851133649778E-011
   71.5350000000000         2.979597235010384E-011
   71.7250000000000         2.989460455084329E-011
   71.9150000000000         2.999665127785367E-011
   72.1050000000000         3.009876312986077E-011
   72.2950000000000         3.020090489213441E-011
   72.4850000000000         3.030323681138591E-011
   72.6750000000000         3.040590347639332E-011
   72.8650000000000         3.050912493596146E-011
   73.0550000000000         3.061326311992815E-011
   73.2450000000000         3.071930152984682E-011
   73.4350000000000         3.082810760140854E-011
   73.6250000000000         3.093909907666830E-011
   73.8150000000000         3.105174426546155E-011
   74.0050000000000         3.116472472062305E-011
   74.1950000000000         3.127674267503875E-011
   74.3850000000000         3.138736500035357E-011
   74.5750000000000         3.149641725997611E-011
   74.7650000000000         3.160532473281189E-011
   74.9550000000000         3.171219418872514E-011
   75.1450000000000         3.181471122985677E-011
   75.3350000000000         3.191487810091546E-011
   75.5250000000000         3.201421765998475E-011
   75.7150000000000         3.211256414290071E-011
   75.9050000000000         3.221016426942340E-011
   76.0950000000000         3.230548982521123E-011
   76.2850000000000         3.239599521866700E-011
   76.4750000000000         3.248094569702762E-011
   76.6650000000000         3.256052796090143E-011
   76.8550000000000         3.263551057050302E-011
   77.0450000000000         3.270761163528086E-011
   77.2350000000000         3.277787627855516E-011
   77.4250000000000         3.284463920941815E-011
   77.6150000000000         3.290598024435004E-011
   77.8050000000000         3.296296583789660E-011
   77.9950000000000         3.301743476876387E-011
   78.1850000000000         3.306900324213750E-011
   78.3750000000000         3.311893050063046E-011
   78.5650000000000         3.316772332691831E-011
   78.7550000000000         3.321534840354161E-011
   78.9450000000000         3.326326541213214E-011
   79.1350000000000         3.331376999841909E-011
   79.3250000000000         3.336986708533961E-011
   79.5150000000000         3.343151462559010E-011
   79.7050000000000         3.349608128192425E-011
   79.8950000000000         3.356083047725011E-011
   80.0850000000000         3.362700961736731E-011
   80.2750000000000         3.369950883642806E-011
   80.4650000000000         3.377614197560040E-011
   80.6550000000000         3.384973677691120E-011
   80.8450000000000         3.391736223115321E-011
   81.0350000000000         3.398158436257384E-011
   81.2250000000000         3.406701922515442E-011
   81.4150000000000         3.417666965751388E-011
   81.6050000000000         3.428989086079378E-011
   81.7950000000000         3.440383867583802E-011
   81.9850000000000         3.451922359430113E-011
   82.1750000000000         3.463822156749354E-011
   82.3650000000000         3.476091868749132E-011
   82.5550000000000         3.488847052986801E-011
   82.7450000000000         3.502503098151811E-011
   82.9350000000000         3.516783102879617E-011
   83.1250000000000         3.531071165507279E-011
   83.3150000000000         3.545215728071098E-011
   83.5050000000000         3.559540615081825E-011
   83.6950000000000         3.574190718470915E-011
   83.8850000000000         3.589176901526461E-011
   84.0750000000000         3.604323769033686E-011
   84.2650000000000         3.619056126665043E-011
   84.4550000000000         3.633090838976278E-011
   84.6450000000000         3.646465398675579E-011
   84.8350000000000         3.659566566604976E-011
   85.0250000000000         3.672793623743427E-011
   85.2150000000000         3.686175840106370E-011
   85.4050000000000         3.699394131506669E-011
   85.5950000000000         3.712040714466067E-011
   85.7850000000000         3.723102368196073E-011
   85.9750000000000         3.732113065807505E-011
   86.1650000000000         3.739895150378084E-011
   86.3550000000000         3.747218263536336E-011
   86.5450000000000         3.753775122674732E-011
   86.7350000000000         3.758840161624940E-011
   86.9250000000000         3.762795285842781E-011
   87.1150000000000         3.766421286171354E-011
   87.3050000000000         3.769769018901528E-011
   87.4950000000000         3.772816402277910E-011
   87.6850000000000         3.775645010393990E-011
   87.8750000000000         3.777895419477448E-011
   88.0650000000000         3.779414716142982E-011
   88.2550000000000         3.780579958484571E-011
   88.4450000000000         3.781695676085261E-011
   88.6350000000000         3.782709309200995E-011
   88.8250000000000         3.783513990266700E-011
   89.0150000000000         3.784277214833501E-011
   89.2050000000000         3.785355420758334E-011
   89.3950000000000         3.787737414056498E-011
   89.5850000000000         3.792336620356052E-011
   89.7750000000000         3.799727721665289E-011
   89.9650000000000         3.809310449208067E-011
   90.1550000000000         3.819778966331214E-011
   90.3450000000000         3.830081177638423E-011
   90.5350000000000         3.840240131328844E-011
   90.7250000000000         3.851108692542340E-011
   90.9150000000000         3.862687371578018E-011
   91.1050000000000         3.874852109495599E-011
   91.2950000000000         3.887447348444917E-011
   91.4850000000000         3.900471902328911E-011
   91.6750000000000         3.914304041766153E-011
   91.8650000000000         3.929304937628577E-011
   92.0550000000000         3.945453229624243E-011
   92.2450000000000         3.962680609843244E-011
   92.4350000000000         3.980659788904930E-011
   92.6250000000000         3.998836460613037E-011
   92.8150000000000         4.016873509342208E-011
   93.0050000000000         4.034784369334124E-011
   93.1950000000000         4.052637550158490E-011
   93.3850000000000         4.070193494128652E-011
   93.5750000000000         4.085868372700731E-011
   93.7650000000000         4.098838213610161E-011
   93.9550000000000         4.109514792163485E-011
   94.1450000000000         4.118852785398736E-011
   94.3350000000000         4.127699803234189E-011
   94.5250000000000         4.135521849299946E-011
   94.7150000000000         4.141938557776618E-011
   94.9050000000000         4.146732975916956E-011
   95.0950000000000         4.151119387072488E-011
   95.2850000000000         4.155656572963960E-011
   95.4750000000000         4.159706748019469E-011
   95.6650000000000         4.163458323194801E-011
   95.8550000000000         4.166947800160088E-011
   96.0450000000000         4.170228207021467E-011
   96.2350000000000         4.173207696696382E-011
   96.4250000000000         4.175864433522458E-011
   96.6150000000000         4.178519149143525E-011
   96.8050000000000         4.181470502949653E-011
   96.9950000000000         4.184708756754370E-011
   97.1850000000000         4.187954159771548E-011
   97.3750000000000         4.191001184574662E-011
   97.5650000000000         4.193980925795541E-011
   97.7550000000000         4.197246066252069E-011
   97.9450000000000         4.201157505906663E-011
   98.1350000000000         4.205827165943288E-011
   98.3250000000000         4.211074090330761E-011
   98.5150000000000         4.216693147613175E-011
   98.7050000000000         4.222614433062463E-011
   98.8950000000000         4.228985311835062E-011
   99.0850000000000         4.236128744872263E-011
   99.2750000000000         4.244408198020742E-011
   99.4650000000000         4.254133442125891E-011
   99.6550000000000         4.265507643998720E-011
   99.8450000000000         4.278479393848135E-011
   100.035000000000         4.293018033187392E-011
   100.225000000000         4.308784002291187E-011
   100.415000000000         4.325290302644372E-011
   100.605000000000         4.342175499049177E-011
   100.795000000000         4.359104973795311E-011
   100.985000000000         4.375948341521675E-011
   101.175000000000         4.392511921344788E-011
   101.365000000000         4.408832704217801E-011
   101.555000000000         4.425010114429111E-011
   101.745000000000         4.440953033636202E-011
   101.935000000000         4.456469995493532E-011
   102.125000000000         4.471127054126639E-011
   102.315000000000         4.485651223494011E-011
   102.505000000000         4.500596409061826E-011
   102.695000000000         4.515880160333778E-011
   102.885000000000         4.531340122393644E-011
   103.075000000000         4.546183083124812E-011
   103.265000000000         4.559521555315497E-011
   103.455000000000         4.570407119896884E-011
   103.645000000000         4.579403712021154E-011
   103.835000000000         4.588096497730634E-011
   104.025000000000         4.596908858635709E-011
   104.215000000000         4.605124752194818E-011
   104.405000000000         4.612496725258938E-011
   104.595000000000         4.619182579127614E-011
   104.785000000000         4.625433718696064E-011
   104.975000000000         4.631640317527980E-011
   105.165000000000         4.637879560815130E-011
   105.355000000000         4.644032178831570E-011
   105.545000000000         4.650059986465334E-011
   105.735000000000         4.656100166854218E-011
   105.925000000000         4.662364592491920E-011
   106.115000000000         4.668913381335714E-011
   106.305000000000         4.675498969591774E-011
   106.495000000000         4.681694566827505E-011
   106.685000000000         4.687224887763418E-011
   106.875000000000         4.692221453000686E-011
   107.065000000000         4.697128823306930E-011
   107.255000000000         4.702361603163157E-011
   107.445000000000         4.708150717891575E-011
   107.635000000000         4.714520864182977E-011
   107.825000000000         4.721375624170409E-011
   108.015000000000         4.728716766572491E-011
   108.205000000000         4.736743602648346E-011
   108.395000000000         4.745720712637889E-011
   108.585000000000         4.755654789669665E-011
   108.775000000000         4.766075376357742E-011
   108.965000000000         4.776315750098187E-011
   109.155000000000         4.785846882011344E-011
   109.345000000000         4.794656121369552E-011
   109.535000000000         4.803197897940862E-011
   109.725000000000         4.811986453056670E-011
   109.915000000000         4.821359072454548E-011
   110.105000000000         4.831396846504790E-011