  -1.42500000000000        -3.980229100110872E-019
  -1.23500000000000        -7.226881799625095E-018
  -1.04500000000000        -3.914399131127710E-017
 -0.855000000000000        -1.661445288339884E-016
 -0.665000000000000        -5.074593506382320E-016
 -0.475000000000000        -1.753305496232269E-015
 -0.285000000000000        -4.338610647132680E-015
 -9.499999999999975E-002   -1.015733463146899E-014
  9.500000000000020E-002   -2.072925155659620E-014
  0.285000000000000        -3.656755151797498E-014
  0.475000000000000        -6.111351764753334E-014
  0.665000000000000        -8.652471103623489E-014
  0.855000000000000        -1.126224025064286E-013
   1.04500000000000        -1.484892305803436E-013
   1.23500000000000        -1.835984520020722E-013
   1.42500000000000        -1.938818265042323E-013
   1.61500000000000        -2.138936843502472E-013
   1.80500000000000        -2.339011108080763E-013
   1.99500000000000        -2.487690635183597E-013
   2.18500000000000        -2.605096453789210E-013
   2.37500000000000        -2.676313557730825E-013
   2.56500000000000        -2.695018776858879E-013
   2.75500000000000        -2.673073580961161E-013
   2.94500000000000        -2.620393848274833E-013
   3.13500000000000        -2.560217928552705E-013
   3.32500000000000        -2.534582242980256E-013
   3.51500000000000        -2.472988419684776E-013
   3.70500000000000        -2.446883534312023E-013
   3.89500000000000        -2.415368861322340E-013
   4.08500000000000        -2.389207943075552E-013
   4.27500000000000        -2.360008164813155E-013
   4.46500000000000        -2.312875108032992E-013
   4.65500000000000        -2.246810419227305E-013
   4.84500000000000        -2.161674541456594E-013
   5.03500000000000        -2.072819233754500E-013
   5.22500000000000        -2.054904299340540E-013
   5.41500000000000        -1.983769312198321E-013
   5.60500000000000        -1.926837551394968E-013
   5.79500000000000        -1.855773458529164E-013
   5.98500000000000        -1.756743574497183E-013
   6.17500000000000        -1.627015411199001E-013
   6.36500000000000        -1.460774745338807E-013
   6.55500000000000        -1.316558927921215E-013
   6.74500000000000        -1.211696127174473E-013
   6.93500000000000        -1.145655542458164E-013
   7.12500000000000        -1.155486360817426E-013
   7.31500000000000        -1.311121752592071E-013
   7.50500000000000        -1.561652755144870E-013
   7.69500000000000        -1.864949776608159E-013
   7.88500000000000        -2.172909270420479E-013
   8.07500000000000        -2.494418233975061E-013
   8.26500000000000        -2.698297596804072E-013
   8.45500000000000        -2.927014373337920E-013
   8.64500000000000        -3.121264597896814E-013
   8.83500000000000        -3.273880879628310E-013
   9.02500000000000        -3.445214203282472E-013
   9.21500000000000        -3.435994375779503E-013
   9.40500000000000        -3.130554887183684E-013
   9.59500000000000        -2.679301331004103E-013
   9.78500000000000        -2.179978210313489E-013
   9.97500000000000        -1.725054322685101E-013
   10.1650000000000        -1.422499762262338E-013
   10.3550000000000        -1.208611221058740E-013
   10.5450000000000        -9.617159869108327E-014
   10.7350000000000        -9.152728455036031E-014
   10.9250000000000        -8.855925907313247E-014
   11.1150000000000        -8.366269434274586E-014
   11.3050000000000        -7.573160633653052E-014
   11.4950000000000        -6.565993024186461E-014
   11.6850000000000        -5.526655200746911E-014
   11.8750000000000        -4.670432927426347E-014
   12.0650000000000        -4.180475727528727E-014
   12.2550000000000        -4.055093451690729E-014
   12.4450000000000        -4.294422312503096E-014
   12.6350000000000        -4.402837223703779E-014
   12.8250000000000        -5.039281343233203E-014
   13.0150000000000        -5.790126919558185E-014
   13.2050000000000        -6.589419388452321E-014
   13.3950000000000        -7.612364191355117E-014
   13.5850000000000        -8.411211960740611E-014
   13.7750000000000        -8.648218836003407E-014
   13.9650000000000        -8.481076380474368E-014
   14.1550000000000        -8.400080513659486E-014
   14.3450000000000        -7.966522847354841E-014
   14.5350000000000        -7.801623680679957E-014
   14.7250000000000        -7.475450993539589E-014
   14.9150000000000        -6.989619756052254E-014
   15.1050000000000        -6.708247540551947E-014
   15.2950000000000        -7.233033925485830E-014
   15.4850000000000        -8.423394898925545E-014
   15.6750000000000        -9.887290643976175E-014
   15.8650000000000        -1.153874492157701E-013
   16.0550000000000        -1.336897057965187E-013
   16.2450000000000        -1.493171246164237E-013
   16.4350000000000        -1.614099808212453E-013
   16.6250000000000        -1.705402099522524E-013
   16.8150000000000        -1.789328348076193E-013
   17.0050000000000        -1.806521385070994E-013
   17.1950000000000        -1.868932931697796E-013
   17.3850000000000        -1.886085782991529E-013
   17.5750000000000        -1.933384364092865E-013
   17.7650000000000        -1.946846406565775E-013
   17.9550000000000        -1.961814866861604E-013
   18.1450000000000        -1.970647783851850E-013
   18.3350000000000        -1.977998039618615E-013
   18.5250000000000        -1.987805792068252E-013
   18.7150000000000        -2.008573634924464E-013
   18.9050000000000        -2.036394975671324E-013
   19.0950000000000        -2.073006555200562E-013
   19.2850000000000        -2.127315427956779E-013
   19.4750000000000        -2.201096106516612E-013
   19.6650000000000        -2.276457398795066E-013
   19.8550000000000        -2.342926609901787E-013
   20.0450000000000        -2.380885682361942E-013
   20.2350000000000        -2.378790278212306E-013
   20.4250000000000        -2.338866518276646E-013
   20.6150000000000        -2.256523347859326E-013
   20.8050000000000        -2.140066490540577E-013
   20.9950000000000        -2.009957984441794E-013
   21.1850000000000        -1.977021438630017E-013
   21.3750000000000        -1.835484622124645E-013
   21.5650000000000        -1.814025025269323E-013
   21.7550000000000        -1.764812483525320E-013
   21.9450000000000        -1.698352994973237E-013
   22.1350000000000        -1.645915853312493E-013
   22.3250000000000        -1.674993227379297E-013
   22.5150000000000        -1.833509604287038E-013
   22.7050000000000        -2.100420023785551E-013
   22.8950000000000        -2.431018207692874E-013
   23.0850000000000        -2.766400127600306E-013
   23.2750000000000        -3.061215372694066E-013
   23.4650000000000        -3.314416914998876E-013
   23.6550000000000        -3.581379545356324E-013
   23.8450000000000        -3.823903905537784E-013
   24.0350000000000        -4.013520087644635E-013
   24.2250000000000        -4.154955144047257E-013
   24.4150000000000        -4.234899242646133E-013
   24.6050000000000        -4.243554596876513E-013
   24.7950000000000        -4.188130680077292E-013
   24.9850000000000        -4.067599515387800E-013
   25.1750000000000        -3.927344681163386E-013
   25.3650000000000        -3.732568797766348E-013
   25.5550000000000        -3.577863056633544E-013
   25.7450000000000        -3.294337044633580E-013
   25.9350000000000        -3.025672130828243E-013
   26.1250000000000        -2.798006745685251E-013
   26.3150000000000        -2.625610532399719E-013
   26.5050000000000        -2.439503274959935E-013
   26.6950000000000        -2.285135831318468E-013
   26.8850000000000        -2.136843355691001E-013
   27.0750000000000        -1.981968564606740E-013
   27.2650000000000        -1.851822876915136E-013
   27.4550000000000        -1.799133389962374E-013
   27.6450000000000        -1.804111108328172E-013
   27.8350000000000        -1.816049609430993E-013
   28.0250000000000        -1.870248244932422E-013
   28.2150000000000        -1.916159301801796E-013
   28.4050000000000        -1.968051620057476E-013
   28.5950000000000        -1.963860191555694E-013
   28.7850000000000        -1.798036069557519E-013
   28.9750000000000        -1.374841789436633E-013
   29.1650000000000        -8.156652027679885E-014
   29.3550000000000        -2.310957698563935E-014
   29.5450000000000         5.529916198136287E-014
   29.7350000000000         1.293129385368526E-013
   29.9250000000000         1.972833397818391E-013
   30.1150000000000         2.509250953005442E-013
   30.3050000000000         2.999601548800157E-013
   30.4950000000000         3.345955594946312E-013
   30.6850000000000         3.400783875340531E-013
   30.8750000000000         3.552996274098495E-013
   31.0650000000000         3.559922953870384E-013
   31.2550000000000         3.319453496743187E-013
   31.4450000000000         2.739553080748903E-013
   31.6350000000000         1.945325796621644E-013
   31.8250000000000         1.248472797303835E-013
   32.0150000000000         7.106107998981386E-014
   32.2050000000000         5.505439606416467E-015
   32.3950000000000        -5.733579004658577E-014
   32.5850000000000        -8.768691267973407E-014
   32.7750000000000        -1.062347993796485E-013
   32.9650000000000        -1.264582631473634E-013
   33.1550000000000        -1.330461263067621E-013
   33.3450000000000        -1.436404404882591E-013
   33.5350000000000        -1.566796767282993E-013
   33.7250000000000        -1.698532617542760E-013
   33.9150000000000        -1.792538797306019E-013
   34.1050000000000        -1.782639573965939E-013
   34.2950000000000        -1.675063556547682E-013
   34.4850000000000        -1.562756953625506E-013
   34.6750000000000        -1.414271642036621E-013
   34.8650000000000        -1.249259882474775E-013
   35.0550000000000        -1.087026617290968E-013
   35.2450000000000        -9.366699300027883E-014
   35.4350000000000        -8.825759531429568E-014
   35.6250000000000        -9.408077618889599E-014
   35.8150000000000        -1.091357813409884E-013
   36.0050000000000        -1.281357128593227E-013
   36.1950000000000        -1.490020106250836E-013
   36.3850000000000        -1.526966327977265E-013
   36.5750000000000        -1.671505797195691E-013
   36.7650000000000        -1.718712733078341E-013
   36.9550000000000        -1.837528089029455E-013
   37.1450000000000        -1.954005030559146E-013
   37.3350000000000        -2.051017823291695E-013
   37.5250000000000        -2.120410214437881E-013
   37.7150000000000        -2.168133962341946E-013
   37.9050000000000        -2.189789597344554E-013
   38.0950000000000        -2.191367959412284E-013
   38.2850000000000        -2.165640222720760E-013
   38.4750000000000        -2.147456273011075E-013
   38.6650000000000        -2.363548002474293E-013
   38.8550000000000        -2.705397175754669E-013
   39.0450000000000        -3.240178872630550E-013
   39.2350000000000        -3.851047496687146E-013
   39.4250000000000        -4.409388866488165E-013
   39.6150000000000        -5.016651372631900E-013
   39.8050000000000        -5.527366643736014E-013
   39.9950000000000        -5.642948223862112E-013
   40.1850000000000        -5.855348841839187E-013
   40.3750000000000        -5.847983522494910E-013
   40.5650000000000        -5.878835086737167E-013
   40.7550000000000        -5.959041367616391E-013
   40.9450000000000        -6.081496164923735E-013
   41.1350000000000        -6.161544635675930E-013
   41.3250000000000        -6.041504541585462E-013
   41.5150000000000        -5.689444473022207E-013
   41.7050000000000        -5.211191300849286E-013
   41.8950000000000        -4.634638327584191E-013
   42.0850000000000        -3.989608989157314E-013
   42.2750000000000        -3.372300080074099E-013
   42.4650000000000        -2.734399401512354E-013
   42.6550000000000        -2.160085552209257E-013
   42.8450000000000        -1.592679512264618E-013
   43.0350000000000        -1.112883258422278E-013
   43.2250000000000        -7.558078715122917E-014
   43.4150000000000        -3.688267357206687E-014
   43.6050000000000        -2.823029854975434E-014
   43.7950000000000        -1.508672334303672E-014
   43.9850000000000        -4.963354417674465E-015
   44.1750000000000         8.422619793791564E-015
   44.3650000000000         2.641959395203017E-014
   44.5550000000000         4.662298250263421E-014
   44.7450000000000         5.078515328731908E-014
   44.9350000000000         1.592687023652263E-014
   45.1250000000000        -4.838227225094206E-014
   45.3150000000000        -1.161316055991627E-013
   45.5050000000000        -1.879693518432165E-013
   45.6950000000000        -2.563631347962932E-013
   45.8850000000000        -3.085853988339052E-013
   46.0750000000000        -3.180174877024814E-013
   46.2650000000000        -3.351546835580632E-013
   46.4550000000000        -3.407880846405952E-013
   46.6450000000000        -3.508527125510264E-013
   46.8350000000000        -3.584798392055197E-013
   47.0250000000000        -3.445085740304184E-013
   47.2150000000000        -2.951210166996549E-013
   47.4050000000000        -2.416645370058370E-013
   47.5950000000000        -1.785867185812475E-013
   47.7850000000000        -1.215251163415383E-013
   47.9750000000000        -6.656606413869668E-014
   48.1650000000000        -2.413734430825332E-014
   48.3550000000000         1.110111813137917E-014
   48.5450000000000         3.796598741535180E-014
   48.7350000000000         6.379170477594374E-014
   48.9250000000000         7.392038277904456E-014
   49.1150000000000         8.136256987626154E-014
   49.3050000000000         9.145033021555265E-014
   49.4950000000000         9.249743327085571E-014
   49.6850000000000         6.400812630177153E-014
   49.8750000000000         2.290062321069777E-015
   50.0650000000000        -6.959702593587565E-014
   50.2550000000000        -1.420020324421273E-013
   50.4450000000000        -2.030827987273553E-013
   50.6350000000000        -2.204327279632872E-013
   50.8250000000000        -2.709936221958543E-013
   51.0150000000000        -2.762654710287084E-013
   51.2050000000000        -2.918525286323478E-013
   51.3950000000000        -3.172868539394223E-013
   51.5850000000000        -3.483548719406189E-013
   51.7750000000000        -3.580001184980091E-013
   51.9650000000000        -3.207105110106151E-013
   52.1550000000000        -2.673085219340725E-013
   52.3450000000000        -2.081339139464900E-013
   52.5350000000000        -1.467753367442501E-013
   52.7250000000000        -1.028204118584980E-013
   52.9150000000000        -8.127331450522539E-014
   53.1050000000000        -5.366415405333005E-014
   53.2950000000000        -3.665873528246641E-014
   53.4850000000000        -2.743487584130179E-014
   53.6750000000000        -3.065117571490955E-014
   53.8650000000000        -5.346974780731836E-014
   54.0550000000000        -8.541079143362608E-014
   54.2450000000000        -1.239283494551519E-013
   54.4350000000000        -1.652679413055403E-013
   54.6250000000000        -2.008795860211496E-013
   54.8150000000000        -2.346740777245531E-013
   55.0050000000000        -2.624638989912871E-013
   55.1950000000000        -2.855915446515710E-013
   55.3850000000000        -3.126879030285383E-013
   55.5750000000000        -3.263997811267781E-013
   55.7650000000000        -3.432223569222203E-013
   55.9550000000000        -3.614632146358612E-013
   56.1450000000000        -3.788098845655798E-013
   56.3350000000000        -3.800551295571111E-013
   56.5250000000000        -3.594557767101428E-013
   56.7150000000000        -3.261488658891185E-013
   56.9050000000000        -2.882712709383382E-013
   57.0950000000000        -2.565443552877204E-013
   57.2850000000000        -2.368490727928144E-013
   57.4750000000000        -2.135330806508225E-013
   57.6650000000000        -1.929681153232305E-013
   57.8550000000000        -1.799714508952053E-013
   58.0450000000000        -1.746788897102094E-013
   58.2350000000000        -1.654114705036030E-013
   58.4250000000000        -1.516596987232796E-013
   58.6150000000000        -1.371973260421111E-013
   58.8050000000000        -1.231145628109923E-013
   58.9950000000000        -1.111498710782750E-013
   59.1850000000000        -1.039497572056756E-013
   59.3750000000000        -1.021620920162987E-013
   59.5650000000000        -1.055194971745624E-013
   59.7550000000000        -1.130078878805803E-013
   59.9450000000000        -1.223935856310227E-013
   60.1350000000000        -1.319435265535235E-013
   60.3250000000000        -1.405938805893867E-013
   60.5150000000000        -1.453290764706483E-013
   60.7050000000000        -1.406350834683623E-013
   60.8950000000000        -1.244022930555597E-013
   61.0850000000000        -9.665684703710176E-014
   61.2750000000000        -6.119033317906193E-014
   61.4650000000000        -2.909182283084201E-014
   61.6550000000000         1.282047827869886E-016
   61.8450000000000         2.034581766009326E-014
   62.0350000000000         3.621387022677350E-014
   62.2250000000000         4.740209429074517E-014
   62.4150000000000         6.382000849962972E-014
   62.6050000000000         7.874212874417937E-014
   62.7950000000000         8.662720789687203E-014
   62.9850000000000         9.726429523757734E-014
   63.1750000000000         1.078056896482919E-013
   63.3650000000000         1.151655533460836E-013
   63.5550000000000         1.166621303863656E-013
   63.7450000000000         1.079975775275892E-013
   63.9350000000000         8.928635594420330E-014
   64.1250000000000         6.441627440391565E-014
   64.3150000000000         3.732211246893057E-014
   64.5050000000000         1.205106416131959E-014
   64.6950000000000        -1.709716133952984E-014
   64.8850000000000        -3.231593843498594E-014
   65.0750000000000        -4.922210360660711E-014
   65.2650000000000        -6.724913207044521E-014
   65.4550000000000        -8.459051612332182E-014
   65.6450000000000        -1.031495574881946E-013
   65.8350000000000        -1.219998803916631E-013
   66.0250000000000        -1.369930404892168E-013
   66.2150000000000        -1.470904713968668E-013
   66.4050000000000        -1.521712350417829E-013
   66.5950000000000        -1.467219212651793E-013
   66.7850000000000        -1.420211995731980E-013
   66.9750000000000        -1.340263139514679E-013
   67.1650000000000        -1.294902787307451E-013
   67.3550000000000        -1.310419535787029E-013
   67.5450000000000        -1.396555505292600E-013
   67.7350000000000        -1.534743050929330E-013
   67.9250000000000        -1.681949749363650E-013
   68.1150000000000        -1.793533794121362E-013
   68.3050000000000        -1.834856636020909E-013
   68.4950000000000        -1.798234070990726E-013
   68.6850000000000        -1.705163833987568E-013
   68.8750000000000        -1.589739886921339E-013
   69.0650000000000        -1.493328284678351E-013
   69.2550000000000        -1.458883070320945E-013
   69.4450000000000        -1.515630576115085E-013
   69.6350000000000        -1.657731972869261E-013
   69.8250000000000        -1.821459087644305E-013
   70.0150000000000        -2.037943152845578E-013
   70.2050000000000        -2.251208829627513E-013
   70.3950000000000        -2.462654306181776E-013
   70.5850000000000        -2.633689991643449E-013
   70.7750000000000        -2.809923080494666E-013
   70.9650000000000        -2.962344225835553E-013
   71.1550000000000        -3.228362651263576E-013
   71.3450000000000        -3.425326172090730E-013
   71.5350000000000        -3.776315266298488E-013
   71.7250000000000        -3.947494501573009E-013
   71.9150000000000        -4.307290110920640E-013
   72.1050000000000        -4.463972632193868E-013
   72.2950000000000        -4.599383706083588E-013
   72.4850000000000        -4.668542419829323E-013
   72.6750000000000        -4.658030244050953E-013
   72.8650000000000        -4.655453090762435E-013
   73.0550000000000        -4.633903048538967E-013
   73.2450000000000        -4.629678269399345E-013
   73.4350000000000        -4.668712455100051E-013
   73.6250000000000        -4.695061048387218E-013
   73.8150000000000        -4.623632990329325E-013
   74.0050000000000        -4.399860381140180E-013
   74.1950000000000        -3.990225317213604E-013
   74.3850000000000        -3.428570571307916E-013
   74.5750000000000        -2.812285570225159E-013
   74.7650000000000        -2.181691034076962E-013
   74.9550000000000        -1.665374638752098E-013
   75.1450000000000        -1.276109700164365E-013
   75.3350000000000        -1.143274011596698E-013
   75.5250000000000        -9.053190376516061E-014
   75.7150000000000        -9.901785098944030E-014
   75.9050000000000        -1.076043932787898E-013
   76.0950000000000        -1.111240551167653E-013
   76.2850000000000        -1.089017145315207E-013
   76.4750000000000        -1.044459700386570E-013
   76.6650000000000        -9.773235732139155E-014
   76.8550000000000        -8.606996169377809E-014
   77.0450000000000        -7.258885914425035E-014
   77.2350000000000        -6.313483470954993E-014
   77.4250000000000        -5.885710299290962E-014
   77.6150000000000        -5.045866919387900E-014
   77.8050000000000        -3.059347463490107E-014
   77.9950000000000        -6.664997760839023E-015
   78.1850000000000         1.936945058437908E-014
   78.3750000000000         4.577099155194452E-014
   78.5650000000000         7.087850213107211E-014
   78.7550000000000         1.033053553532641E-013
   78.9450000000000         1.207294787311031E-013
   79.1350000000000         1.454359467812344E-013
   79.3250000000000         1.602336661154720E-013
   79.5150000000000         1.732704523999194E-013
   79.7050000000000         1.836700831064566E-013
   79.8950000000000         1.888777744948185E-013
   80.0850000000000         1.755185220784739E-013
   80.2750000000000         1.356565866679607E-013
   80.4650000000000         7.376062276756874E-014
   80.6550000000000        -1.393456218434058E-015
   80.8450000000000        -6.694763612289061E-014
   81.0350000000000        -1.356567570453115E-013
   81.2250000000000        -2.001610085509182E-013
   81.4150000000000        -2.627718780144569E-013
   81.6050000000000        -3.184459680958299E-013
   81.7950000000000        -3.438466756523565E-013
   81.9850000000000        -3.861556251770091E-013
   82.1750000000000        -4.057762668308461E-013
   82.3650000000000        -4.291580281902066E-013
   82.5550000000000        -4.516173956354440E-013
   82.7450000000000        -4.534338344400841E-013
   82.9350000000000        -4.267191382315349E-013
   83.1250000000000        -3.805680122547686E-013
   83.3150000000000        -3.388026257079148E-013
   83.5050000000000        -3.079560413175593E-013
   83.6950000000000        -2.946713938865702E-013
   83.8850000000000        -2.692157987906967E-013
   84.0750000000000        -2.732033504530136E-013
   84.2650000000000        -2.693189383161337E-013
   84.4550000000000        -2.633630761878260E-013
   84.6450000000000        -2.501414286004609E-013
   84.8350000000000        -2.312715505635548E-013
   85.0250000000000        -2.062248203651531E-013
   85.2150000000000        -1.813039627806811E-013
   85.4050000000000        -1.620785203728790E-013
   85.5950000000000        -1.554983185730860E-013
   85.7850000000000        -1.671800887691038E-013
   85.9750000000000        -1.931386375939701E-013
   86.1650000000000        -2.257071088995969E-013
   86.3550000000000        -2.562234991749251E-013
   86.5450000000000        -2.804597323525282E-013
   86.7350000000000        -2.969254815447459E-013
   86.9250000000000        -3.060770826395695E-013
   87.1150000000000        -3.102404641943947E-013
   87.3050000000000        -3.143019638846827E-013
   87.4950000000000        -3.210273487637384E-013
   87.6850000000000        -3.313661198226126E-013
   87.8750000000000        -3.430881418420005E-013
   88.0650000000000        -3.566427973365849E-013
   88.2550000000000        -3.676163880360942E-013
   88.4450000000000        -3.748908609277232E-013
   88.6350000000000        -3.768762380465501E-013
   88.8250000000000        -3.748022781431868E-013
   89.0150000000000        -3.700207004512502E-013
   89.2050000000000        -3.643174687162766E-013
   89.3950000000000        -3.535383044205975E-013
   89.5850000000000        -3.343343925676851E-013
   89.7750000000000        -3.159718015374099E-013
   89.9650000000000        -2.985657393930317E-013
   90.1550000000000        -2.787210383573473E-013
   90.3450000000000        -2.592145568688254E-013
   90.5350000000000        -2.381354199645507E-013
   90.7250000000000        -2.164585916622099E-013
   90.9150000000000        -1.956838377482006E-013
   91.1050000000000        -1.779363159526014E-013
   91.2950000000000        -1.641276357500207E-013
   91.4850000000000        -1.529345001065274E-013
   91.6750000000000        -1.415417607272981E-013
   91.8650000000000        -1.286530134488526E-013
   92.0550000000000        -1.120757957701705E-013
   92.2450000000000        -9.505100880727151E-014
   92.4350000000000        -7.491337269233619E-014
   92.6250000000000        -4.884171001040652E-014
   92.8150000000000        -2.366065372959027E-014
   93.0050000000000         1.378994538012342E-015
   93.1950000000000         2.468147853322139E-014
   93.3850000000000         4.141063595220825E-014
   93.5750000000000         4.372837959777031E-014
   93.7650000000000         2.042044513235816E-014
   93.9550000000000        -2.233222896515156E-014
   94.1450000000000        -7.142682541869680E-014
   94.3350000000000        -1.136174544412054E-013
   94.5250000000000        -1.516438565994420E-013
   94.7150000000000        -1.743798918684831E-013
   94.9050000000000        -1.949621819466328E-013
   95.0950000000000        -2.063910233086703E-013
   95.2850000000000        -2.206263021650740E-013
   95.4750000000000        -2.214813036939905E-013
   95.6650000000000        -2.433648694668441E-013
   95.8550000000000        -2.497537634129851E-013
   96.0450000000000        -2.589707751774315E-013
   96.2350000000000        -2.682648573513231E-013
   96.4250000000000        -2.742960897116910E-013
   96.6150000000000        -2.743784182694449E-013
   96.8050000000000        -2.668384276775193E-013
   96.9950000000000        -2.524337460871059E-013
   97.1850000000000        -2.347377097257835E-013
   97.3750000000000        -2.216195633411575E-013
   97.5650000000000        -2.089136269999854E-013
   97.7550000000000        -1.990826740837796E-013
   97.9450000000000        -1.906501034452575E-013
   98.1350000000000        -1.833762060198249E-013
   98.3250000000000        -1.793882993199660E-013
   98.5150000000000        -1.790350458858243E-013
   98.7050000000000        -1.815355135250941E-013
   98.8950000000000        -1.852460612745483E-013
   99.0850000000000        -1.885329702154935E-013
   99.2750000000000        -1.901717580581810E-013
   99.4650000000000        -1.834425106732404E-013
   99.6550000000000        -1.622591539848804E-013
   99.8450000000000        -1.229096249517823E-013
   100.035000000000        -6.785087964834763E-014
   100.225000000000        -4.299089919868588E-015
   100.415000000000         6.349920322118904E-014
   100.605000000000         1.314710773739557E-013
   100.795000000000         1.874440067621187E-013
   100.985000000000         2.290512980854578E-013
   101.175000000000         2.369785710296589E-013
   101.365000000000         2.543477844369424E-013
   101.555000000000         2.512135541440456E-013
   101.745000000000         2.552682772026031E-013
   101.935000000000         2.726985783767711E-013
   102.125000000000         2.766769602473053E-013
   102.315000000000         2.384054448179432E-013
   102.505000000000         1.713108249596340E-013
   102.695000000000         9.366289056944712E-014
   102.885000000000         1.082634033376425E-014
   103.075000000000        -7.442739411821387E-014
   103.265000000000        -1.624189726241704E-013
   103.455000000000        -2.390245639223411E-013
   103.645000000000        -2.922060878769264E-013
   103.835000000000        -3.146034608836754E-013
   104.025000000000        -3.441337442374508E-013
   104.215000000000        -3.473996887310684E-013
   104.405000000000        -3.512113617783012E-013
   104.595000000000        -3.562110201696925E-013
   104.785000000000        -3.635645794323770E-013
   104.975000000000        -3.724461125200240E-013
   105.165000000000        -3.788971108055892E-013
   105.355000000000        -3.823181470789383E-013
   105.545000000000        -3.840107088961698E-013
   105.735000000000        -3.833657711482560E-013
   105.925000000000        -3.811898182550937E-013
   106.115000000000        -3.790589719543565E-013
   106.305000000000        -3.721156415089868E-013
   106.495000000000        -3.698451590324948E-013
   106.685000000000        -3.596889041761181E-013
   106.875000000000        -3.563837835404873E-013
   107.065000000000        -3.483514366264272E-013
   107.255000000000        -3.403079087462097E-013
   107.445000000000        -3.316976342070462E-013
   107.635000000000        -3.216954849563720E-013
   107.825000000000        -3.100092804578808E-013
   108.015000000000        -2.967380094558029E-013
   108.205000000000        -2.815671524034170E-013
   108.395000000000        -2.638464518475612E-013
   108.585000000000        -2.461007868787966E-013
   108.775000000000        -2.336163592337906E-013
   108.965000000000        -2.247109343368726E-013
   109.155000000000        -2.294438071770946E-013
   109.345000000000        -2.289463069882320E-013
   109.535000000000        -2.364387841963109E-013
   109.725000000000        -2.404455156825970E-013
   109.915000000000        -2.399546641802196E-013
   110.105000000000        -2.327779196997043E-013