  -1.42500000000000        -3.781217645105329E-020
  -1.23500000000000        -7.621781238664905E-019
  -1.04500000000000        -5.167411069402199E-018
 -0.855000000000000        -2.466982048320241E-017
 -0.665000000000000        -8.866218903306335E-017
 -0.475000000000000        -3.034348494857609E-016
 -0.285000000000000        -8.821668831054312E-016
 -9.499999999999975E-002   -2.259281684572590E-015
  9.500000000000020E-002   -5.193507372438784E-015
  0.285000000000000        -1.063670366452305E-014
  0.475000000000000        -1.991640523524634E-014
  0.665000000000000        -3.394203696020432E-014
  0.855000000000000        -5.286101274675736E-014
   1.04500000000000        -7.766661789000071E-014
   1.23500000000000        -1.092149477353302E-013
   1.42500000000000        -1.450755741934291E-013
   1.61500000000000        -1.838142477246047E-013
   1.80500000000000        -2.263547532646454E-013
   1.99500000000000        -2.722084198256569E-013
   2.18500000000000        -3.205898971708985E-013
   2.37500000000000        -3.707632922803389E-013
   2.56500000000000        -4.217909494589410E-013
   2.75500000000000        -4.727878268582315E-013
   2.94500000000000        -5.230757674359734E-013
   3.13500000000000        -5.722915793158349E-013
   3.32500000000000        -6.206921809453980E-013
   3.51500000000000        -6.682641022407159E-013
   3.70500000000000        -7.150028858036855E-013
   3.89500000000000        -7.611942835622119E-013
   4.08500000000000        -8.068377632039919E-013
   4.27500000000000        -8.519553162289347E-013
   4.46500000000000        -8.963477073209732E-013
   4.65500000000000        -9.396647198299462E-013
   4.84500000000000        -9.815453269564430E-013
   5.03500000000000        -1.021773017820948E-012
   5.22500000000000        -1.060986391385351E-012
   5.41500000000000        -1.099353790694970E-012
   5.60500000000000        -1.136504555899107E-012
   5.79500000000000        -1.172439360493386E-012
   5.98500000000000        -1.206758272307136E-012
   6.17500000000000        -1.238903982671250E-012
   6.36500000000000        -1.268237989158360E-012
   6.55500000000000        -1.294622659054330E-012
   6.74500000000000        -1.318641082077739E-012
   6.93500000000000        -1.341035922939249E-012
   7.12500000000000        -1.362896771020367E-012
   7.31500000000000        -1.386329548097757E-012
   7.50500000000000        -1.413620905921258E-012
   7.69500000000000        -1.446173629972912E-012
   7.88500000000000        -1.484533290919685E-012
   8.07500000000000        -1.528872902211442E-012
   8.26500000000000        -1.578203702603844E-012
   8.45500000000000        -1.631644166320192E-012
   8.64500000000000        -1.689102816546922E-012
   8.83500000000000        -1.749856698583411E-012
   9.02500000000000        -1.813688101871064E-012
   9.21500000000000        -1.879059583372152E-012
   9.40500000000000        -1.941441801370302E-012
   9.59500000000000        -1.996635435443086E-012
   9.78500000000000        -2.042798591085604E-012
   9.97500000000000        -2.079896400149090E-012
   10.1650000000000        -2.109798163956091E-012
   10.3550000000000        -2.134793718297642E-012
   10.5450000000000        -2.155411826773352E-012
   10.7350000000000        -2.173243220681290E-012
   10.9250000000000        -2.190351442325521E-012
   11.1150000000000        -2.206712527900029E-012
   11.3050000000000        -2.221854986464561E-012
   11.4950000000000        -2.235287182439508E-012
   11.6850000000000        -2.246775198253195E-012
   11.8750000000000        -2.256462431974960E-012
   12.0650000000000        -2.264870795197167E-012
   12.2550000000000        -2.272694585917426E-012
   12.4450000000000        -2.280626625893410E-012
   12.6350000000000        -2.288889022452807E-012
   12.8250000000000        -2.297859035091397E-012
   13.0150000000000        -2.308146972941049E-012
   13.2050000000000        -2.319907541933659E-012
   13.3950000000000        -2.333399236334475E-012
   13.5850000000000        -2.348621633678966E-012
   13.7750000000000        -2.364828092935873E-012
   13.9650000000000        -2.381100923391527E-012
   14.1550000000000        -2.397138022440954E-012
   14.3450000000000        -2.412686295633918E-012
   14.5350000000000        -2.427666034835551E-012
   14.7250000000000        -2.442179255776059E-012
   14.9150000000000        -2.455921072988172E-012
   15.1050000000000        -2.468934046919945E-012
   15.2950000000000        -2.482178264312681E-012
   15.4850000000000        -2.497051871695871E-012
   15.6750000000000        -2.514447022961628E-012
   15.8650000000000        -2.534801756748903E-012
   16.0550000000000        -2.558464086475071E-012
   16.2450000000000        -2.585349735364301E-012
   16.4350000000000        -2.614868810380879E-012
   16.6250000000000        -2.646404078504362E-012
   16.8150000000000        -2.679604017756549E-012
   17.0050000000000        -2.713764590221448E-012
   17.1950000000000        -2.748681406230751E-012
   17.3850000000000        -2.784354084020300E-012
   17.5750000000000        -2.820639050417602E-012
   17.7650000000000        -2.857501242738859E-012
   17.9550000000000        -2.894633524836419E-012
   18.1450000000000        -2.931991920018196E-012
   18.3350000000000        -2.969504055341166E-012
   18.5250000000000        -3.007179191742191E-012
   18.7150000000000        -3.045144796298623E-012
   18.9050000000000        -3.083571998099283E-012
   19.0950000000000        -3.122611312642566E-012
   19.2850000000000        -3.162514371482560E-012
   19.4750000000000        -3.203634281060057E-012
   19.6650000000000        -3.246171039360519E-012
   19.8550000000000        -3.290055187443138E-012
   20.0450000000000        -3.334931404219644E-012
   20.2350000000000        -3.380148325845099E-012
   20.4250000000000        -3.424966065411744E-012
   20.6150000000000        -3.468622269140035E-012
   20.8050000000000        -3.510389872604834E-012
   20.9950000000000        -3.549815105117167E-012
   21.1850000000000        -3.587691409636349E-012
   21.3750000000000        -3.623910217213519E-012
   21.5650000000000        -3.658580558863762E-012
   21.7550000000000        -3.692579515197311E-012
   21.9450000000000        -3.725479587243047E-012
   22.1350000000000        -3.757250141301761E-012
   22.3250000000000        -3.788798777568333E-012
   22.5150000000000        -3.822129554469162E-012
   22.7050000000000        -3.859501885935852E-012
   22.8950000000000        -3.902550549134897E-012
   23.0850000000000        -3.951926023320182E-012
   23.2750000000000        -4.007288370572978E-012
   23.4650000000000        -4.067856877306061E-012
   23.6550000000000        -4.133366943679434E-012
   23.8450000000000        -4.203717136462929E-012
   24.0350000000000        -4.278172664398161E-012
   24.2250000000000        -4.355773179099234E-012
   24.4150000000000        -4.435476795772822E-012
   24.6050000000000        -4.516022107248288E-012
   24.7950000000000        -4.596123117379350E-012
   24.9850000000000        -4.674552554236269E-012
   25.1750000000000        -4.750504524103504E-012
   25.3650000000000        -4.823273702153337E-012
   25.5550000000000        -4.892722804770136E-012
   25.7450000000000        -4.958008705732174E-012
   25.9350000000000        -5.018048792899060E-012
   26.1250000000000        -5.073373742225939E-012
   26.3150000000000        -5.124898106367746E-012
   26.5050000000000        -5.173016687537664E-012
   26.6950000000000        -5.217900759047310E-012
   26.8850000000000        -5.259909561323898E-012
   27.0750000000000        -5.299038274566728E-012
   27.2650000000000        -5.335459293261185E-012
   27.4550000000000        -5.370143377796522E-012
   27.6450000000000        -5.404374200530282E-012
   27.8350000000000        -5.438765727348996E-012
   28.0250000000000        -5.473785556965448E-012
   28.2150000000000        -5.509756428659423E-012
   28.4050000000000        -5.546656432417086E-012
   28.5950000000000        -5.584009594627412E-012
   28.7850000000000        -5.619747609107988E-012
   28.9750000000000        -5.649889948768431E-012
   29.1650000000000        -5.670699765194375E-012
   29.3550000000000        -5.680643994434306E-012
   29.5450000000000        -5.677585983859712E-012
   29.7350000000000        -5.660047834310481E-012
   29.9250000000000        -5.629021187870206E-012
   30.1150000000000        -5.586441386537380E-012
   30.3050000000000        -5.534107287770227E-012
   30.4950000000000        -5.473824494904637E-012
   30.6850000000000        -5.409730469936910E-012
   30.8750000000000        -5.343669558517239E-012
   31.0650000000000        -5.276096825851535E-012
   31.2550000000000        -5.210742749570706E-012
   31.4450000000000        -5.153182187084530E-012
   31.6350000000000        -5.108675837749510E-012
   31.8250000000000        -5.078334751107219E-012
   32.0150000000000        -5.059723456933800E-012
   32.2050000000000        -5.052449637572158E-012
   32.3950000000000        -5.057373520863974E-012
   32.5850000000000        -5.071150677622975E-012
   32.7750000000000        -5.089573240268616E-012
   32.9650000000000        -5.111679081208682E-012
   33.1550000000000        -5.136331998206824E-012
   33.3450000000000        -5.162617222052351E-012
   33.5350000000000        -5.191147633187924E-012
   33.7250000000000        -5.222168262343768E-012
   33.9150000000000        -5.255333440784831E-012
   34.1050000000000        -5.289297635311915E-012
   34.2950000000000        -5.322145815051793E-012
   34.4850000000000        -5.352905109898440E-012
   34.6750000000000        -5.381186881557230E-012
   34.8650000000000        -5.406490431040087E-012
   35.0550000000000        -5.428685152787862E-012
   35.2450000000000        -5.447910269987152E-012
   35.4350000000000        -5.465193105877037E-012
   35.6250000000000        -5.482515251169840E-012
   35.8150000000000        -5.501820824135179E-012
   36.0050000000000        -5.524361616084209E-012
   36.1950000000000        -5.550689699815226E-012
   36.3850000000000        -5.579351070940393E-012
   36.5750000000000        -5.609736556129536E-012
   36.7650000000000        -5.641943632167139E-012
   36.9550000000000        -5.675727919977163E-012
   37.1450000000000        -5.711747484613255E-012
   37.3350000000000        -5.749795201724838E-012
   37.5250000000000        -5.789423768083270E-012
   37.7150000000000        -5.830164937762679E-012
   37.9050000000000        -5.871565211579699E-012
   38.0950000000000        -5.913186208368889E-012
   38.2850000000000        -5.954577786099154E-012
   38.4750000000000        -5.995552202808605E-012
   38.6650000000000        -6.038406743425716E-012
   38.8550000000000        -6.086561722618894E-012
   39.0450000000000        -6.143044695078552E-012
   39.2350000000000        -6.210411345587071E-012
   39.4250000000000        -6.288885491037237E-012
   39.6150000000000        -6.378432873308878E-012
   39.8050000000000        -6.478601044464372E-012
   39.9950000000000        -6.584719035706555E-012
   40.1850000000000        -6.693952857830718E-012
   40.3750000000000        -6.805134515291893E-012
   40.5650000000000        -6.916539292079597E-012
   40.7550000000000        -7.028999118395955E-012
   40.9450000000000        -7.143384224955087E-012
   41.1350000000000        -7.259693112560783E-012
   41.3250000000000        -7.375622079744766E-012
   41.5150000000000        -7.487066095383537E-012
   41.7050000000000        -7.590622135235316E-012
   41.8950000000000        -7.684157516705433E-012
   42.0850000000000        -7.766087866214478E-012
   42.2750000000000        -7.836026002372179E-012
   42.4650000000000        -7.894039647447247E-012
   42.6550000000000        -7.940537254507605E-012
   42.8450000000000        -7.976188522620107E-012
   43.0350000000000        -8.001891368941633E-012
   43.2250000000000        -8.019643934676009E-012
   43.4150000000000        -8.030327963444724E-012
   43.6050000000000        -8.036513695796297E-012
   43.7950000000000        -8.040628812876113E-012
   43.9850000000000        -8.042533570263381E-012
   44.1750000000000        -8.042204940052649E-012
   44.3650000000000        -8.038894929746795E-012
   44.5550000000000        -8.031955884983602E-012
   44.7450000000000        -8.022702112083554E-012
   44.9350000000000        -8.016364469848790E-012
   45.1250000000000        -8.019447733040160E-012
   45.3150000000000        -8.035076551435923E-012
   45.5050000000000        -8.063966142392949E-012
   45.6950000000000        -8.106177728623700E-012
   45.8850000000000        -8.159847839318572E-012
   46.0750000000000        -8.219375113539528E-012
   46.2650000000000        -8.281426469809280E-012
   46.4550000000000        -8.345641032788153E-012
   46.6450000000000        -8.411346908521357E-012
   46.8350000000000        -8.478733500938230E-012
   47.0250000000000        -8.545517400195642E-012
   47.2150000000000        -8.606282211315003E-012
   47.4050000000000        -8.657276838917023E-012
   47.5950000000000        -8.697200708197794E-012
   47.7850000000000        -8.725711332515460E-012
   47.9750000000000        -8.743579994661081E-012
   48.1650000000000        -8.752196818463542E-012
   48.3550000000000        -8.753435259950344E-012
   48.5450000000000        -8.748773884923404E-012
   48.7350000000000        -8.739106904165233E-012
   48.9250000000000        -8.726024255847507E-012
   49.1150000000000        -8.711272375345254E-012
   49.3050000000000        -8.694855149836532E-012
   49.4950000000000        -8.677380112305322E-012
   49.6850000000000        -8.662512084145920E-012
   49.8750000000000        -8.656213756226752E-012
   50.0650000000000        -8.662607917770157E-012
   50.2550000000000        -8.682709828316069E-012
   50.4450000000000        -8.715492887277168E-012
   50.6350000000000        -8.755726862312778E-012
   50.8250000000000        -8.802412365577898E-012
   51.0150000000000        -8.854401979434230E-012
   51.2050000000000        -8.908373189402030E-012
   51.3950000000000        -8.966241430746351E-012
   51.5850000000000        -9.029477394704954E-012
   51.7750000000000        -9.096581118796625E-012
   51.9650000000000        -9.161058628599943E-012
   52.1550000000000        -9.216920436729693E-012
   52.3450000000000        -9.262087468138344E-012
   52.5350000000000        -9.295803846953963E-012
   52.7250000000000        -9.319515443071225E-012
   52.9150000000000        -9.337004347075776E-012
   53.1050000000000        -9.349823406588839E-012
   53.2950000000000        -9.358404081075743E-012
   53.4850000000000        -9.364492974132496E-012
   53.6750000000000        -9.370011149030338E-012
   53.8650000000000        -9.378002636764952E-012
   54.0550000000000        -9.391196287992840E-012
   54.2450000000000        -9.411083506377273E-012
   54.4350000000000        -9.438557153999539E-012
   54.6250000000000        -9.473341169095576E-012
   54.8150000000000        -9.514718767151419E-012
   55.0050000000000        -9.561946874939423E-012
   55.1950000000000        -9.614012142085493E-012
   55.3850000000000        -9.670848689615104E-012
   55.5750000000000        -9.731562019609858E-012
   55.7650000000000        -9.795176122724514E-012
   55.9550000000000        -9.862121252022530E-012
   56.1450000000000        -9.932447196446667E-012
   56.3350000000000        -1.000453937278832E-011
   56.5250000000000        -1.007479290888372E-011
   56.7150000000000        -1.013992534993064E-011
   56.9050000000000        -1.019829526292925E-011
   57.0950000000000        -1.025005274742073E-011
   57.2850000000000        -1.029692512308838E-011
   57.4750000000000        -1.033971142766553E-011
   57.6650000000000        -1.037832904128306E-011
   57.8550000000000        -1.041375830007381E-011
   58.0450000000000        -1.044745008243133E-011
   58.2350000000000        -1.047975866665164E-011
   58.4250000000000        -1.050988042772819E-011
   58.6150000000000        -1.053732184508090E-011
   58.8050000000000        -1.056205147452195E-011
   58.9950000000000        -1.058430659574143E-011
   59.1850000000000        -1.060474106042841E-011
   59.3750000000000        -1.062432168610449E-011
   59.5650000000000        -1.064405143707763E-011
   59.7550000000000        -1.066481153865786E-011
   59.9450000000000        -1.068717467864147E-011
   60.1350000000000        -1.071133670429900E-011
   60.3250000000000        -1.073722775797758E-011
   60.5150000000000        -1.076439043889828E-011
   60.7050000000000        -1.079155703409249E-011
   60.8950000000000        -1.081673558486226E-011
   61.0850000000000        -1.083773620317106E-011
   61.2750000000000        -1.085273168529160E-011
   61.4650000000000        -1.086130849011254E-011
   61.6550000000000        -1.086406003382710E-011
   61.8450000000000        -1.086211500169503E-011
   62.0350000000000        -1.085674183134577E-011
   62.2250000000000        -1.084879831471661E-011
   62.4150000000000        -1.083823221495153E-011
   62.6050000000000        -1.082468881191337E-011
   62.7950000000000        -1.080897872493246E-011
   62.9850000000000        -1.079150903213469E-011
   63.1750000000000        -1.077202738357053E-011
   63.3650000000000        -1.075084511548607E-011
   63.5550000000000        -1.072882148553149E-011
   63.7450000000000        -1.070747881327966E-011
   63.9350000000000        -1.068873683959984E-011
   64.1250000000000        -1.067413508971677E-011
   64.3150000000000        -1.066446994296385E-011
   64.5050000000000        -1.065977949118398E-011
   64.6950000000000        -1.066025887041591E-011
   64.8850000000000        -1.066495311489449E-011
   65.0750000000000        -1.067269922888844E-011
   65.2650000000000        -1.068376399627776E-011
   65.4550000000000        -1.069818876285616E-011
   65.6450000000000        -1.071602406984926E-011
   65.8350000000000        -1.073741326644784E-011
   66.0250000000000        -1.076201759393153E-011
   66.2150000000000        -1.078900552756071E-011
   66.4050000000000        -1.081743538967238E-011
   66.5950000000000        -1.084583023952154E-011
   66.7850000000000        -1.087326083600119E-011
   66.9750000000000        -1.089948534978603E-011
   67.1650000000000        -1.092451942609084E-011
   67.3550000000000        -1.094926998816024E-011
   67.5450000000000        -1.097498625105049E-011
   67.7350000000000        -1.100283358733460E-011
   67.9250000000000        -1.103339216893739E-011
   68.1150000000000        -1.106640926260049E-011
   68.3050000000000        -1.110087897168684E-011
   68.4950000000000        -1.113539333340345E-011
   68.6850000000000        -1.116867561350075E-011
   68.8750000000000        -1.119997719884938E-011
   69.0650000000000        -1.122926634647958E-011
   69.2550000000000        -1.125731235435207E-011
   69.4450000000000        -1.128557023399322E-011
   69.6350000000000        -1.131571717820857E-011
   69.8250000000000        -1.134876949328345E-011
   70.0150000000000        -1.138543381456810E-011
   70.2050000000000        -1.142618075840160E-011
   70.3950000000000        -1.147096245819178E-011
   70.5850000000000        -1.151937772902112E-011
   70.7750000000000        -1.157109205320644E-011
   70.9650000000000        -1.162592859261658E-011
   71.1550000000000        -1.168474030794901E-011
   71.3450000000000        -1.174795035177088E-011
   71.5350000000000        -1.181636594543558E-011
   71.7250000000000        -1.188974213823036E-011
   71.9150000000000        -1.196816259204905E-011
   72.1050000000000        -1.205148958810864E-011
   72.2950000000000        -1.213759147332228E-011
   72.4850000000000        -1.222563677151845E-011
   72.6750000000000        -1.231423921182531E-011
   72.8650000000000        -1.240271730350604E-011
   73.0550000000000        -1.249096618682940E-011
   73.2450000000000        -1.257897020934981E-011
   73.4350000000000        -1.266730492123256E-011
   73.6250000000000        -1.275626076951569E-011
   73.8150000000000        -1.284478836288350E-011
   74.0050000000000        -1.293051154991246E-011
   74.1950000000000        -1.301021736404681E-011
   74.3850000000000        -1.308069592498777E-011
   74.5750000000000        -1.313998405833233E-011
   74.7650000000000        -1.318742683607320E-011
   74.9550000000000        -1.322397395996507E-011
   75.1450000000000        -1.325191806118478E-011
   75.3350000000000        -1.327490220644651E-011
   75.5250000000000        -1.329436384041437E-011
   75.7150000000000        -1.331237106711605E-011
   75.9050000000000        -1.333200018032154E-011
   76.0950000000000        -1.335277938291911E-011
   76.2850000000000        -1.337368183103570E-011
   76.4750000000000        -1.339394986106987E-011
   76.6650000000000        -1.341315680216907E-011
   76.8550000000000        -1.343061802247552E-011
   77.0450000000000        -1.344569061045512E-011
   77.2350000000000        -1.345858436137124E-011
   77.4250000000000        -1.347017359545298E-011
   77.6150000000000        -1.348055859381072E-011
   77.8050000000000        -1.348825854747445E-011
   77.9950000000000        -1.349179810235205E-011
   78.1850000000000        -1.349059117933381E-011
   78.3750000000000        -1.348440283733086E-011
   78.5650000000000        -1.347332113543097E-011
   78.7550000000000        -1.345677366896996E-011
   78.9450000000000        -1.343549035973195E-011
   79.1350000000000        -1.341020464430828E-011
   79.3250000000000        -1.338116603108309E-011
   79.5150000000000        -1.334948313982412E-011
   79.7050000000000        -1.331557378895102E-011
   79.8950000000000        -1.328018174247890E-011
   80.0850000000000        -1.324556409430443E-011
   80.2750000000000        -1.321600245897352E-011
   80.4650000000000        -1.319610782407715E-011
   80.6550000000000        -1.318923294325498E-011
   80.8450000000000        -1.319572534702741E-011
   81.0350000000000        -1.321497276437838E-011
   81.2250000000000        -1.324687545211003E-011
   81.4150000000000        -1.329085407633374E-011
   81.6050000000000        -1.334606977171422E-011
   81.7950000000000        -1.340898757287029E-011
   81.9850000000000        -1.347833779144908E-011
   82.1750000000000        -1.355357132118983E-011
   82.3650000000000        -1.363289007921683E-011
   82.5550000000000        -1.371656374448027E-011
   82.7450000000000        -1.380254361133744E-011
   82.9350000000000        -1.388615814374124E-011
   83.1250000000000        -1.396285042303744E-011
   83.3150000000000        -1.403119063364390E-011
   83.5050000000000        -1.409263270701132E-011
   83.6950000000000        -1.414988231335571E-011
   83.8850000000000        -1.420345159666006E-011
   84.0750000000000        -1.425498141583821E-011
   84.2650000000000        -1.430652103327127E-011
   84.4550000000000        -1.435712582464914E-011
   84.6450000000000        -1.440590875260403E-011
   84.8350000000000        -1.445164298562461E-011
   85.0250000000000        -1.449320514086284E-011
   85.2150000000000        -1.453002037526169E-011
   85.4050000000000        -1.456264171116128E-011
   85.5950000000000        -1.459281151086115E-011
   85.7850000000000        -1.462346595955865E-011
   85.9750000000000        -1.465769623856314E-011
   86.1650000000000        -1.469748658448003E-011
   86.3550000000000        -1.474326999224711E-011
   86.5450000000000        -1.479425489924221E-011
   86.7350000000000        -1.484910649456245E-011
   86.9250000000000        -1.490639173815996E-011
   87.1150000000000        -1.496494190510919E-011
   87.3050000000000        -1.502427343577670E-011
   87.4950000000000        -1.508462972047830E-011
   87.6850000000000        -1.514660709999400E-011
   87.8750000000000        -1.521068025485214E-011
   88.0650000000000        -1.527715469407410E-011
   88.2550000000000        -1.534595931668451E-011
   88.4450000000000        -1.541649750533606E-011
   88.6350000000000        -1.548791537973862E-011
   88.8250000000000        -1.555932483877665E-011
   89.0150000000000        -1.563008302174312E-011
   89.2050000000000        -1.569984514781404E-011
   89.3950000000000        -1.576804144626204E-011
   89.5850000000000        -1.583338935247592E-011
   89.7750000000000        -1.589516844091592E-011
   89.9650000000000        -1.595354950730431E-011
   90.1550000000000        -1.600839175119059E-011
   90.3450000000000        -1.605949563273708E-011
   90.5350000000000        -1.610674388053624E-011
   90.7250000000000        -1.614993031164079E-011
   90.9150000000000        -1.618908384243478E-011
   91.1050000000000        -1.622457775703636E-011
   91.2950000000000        -1.625707383244810E-011
   91.4850000000000        -1.628719473535447E-011
   91.6750000000000        -1.631516998013369E-011
   91.8650000000000        -1.634083848368042E-011
   92.0550000000000        -1.636370772055623E-011
   92.2450000000000        -1.638338476699109E-011
   92.4350000000000        -1.639953138323355E-011
   92.6250000000000        -1.641128811609031E-011
   92.8150000000000        -1.641817584064561E-011
   93.0050000000000        -1.642029259826881E-011
   93.1950000000000        -1.641781685332704E-011
   93.3850000000000        -1.641153810245092E-011
   93.5750000000000        -1.640344989597367E-011
   93.7650000000000        -1.639735575762431E-011
   93.9550000000000        -1.639753737708842E-011
   94.1450000000000        -1.640644448725489E-011
   94.3350000000000        -1.642402369384158E-011
   94.5250000000000        -1.644922351839044E-011
   94.7150000000000        -1.648019577449490E-011
   94.9050000000000        -1.651528327150734E-011
   95.0950000000000        -1.655341182600659E-011
   95.2850000000000        -1.659397847192660E-011
   95.4750000000000        -1.663597869448321E-011
   95.6650000000000        -1.668013908093349E-011
   95.8550000000000        -1.672698535105707E-011
   96.0450000000000        -1.677531418222316E-011
   96.2350000000000        -1.682540156731339E-011
   96.4250000000000        -1.687694485728438E-011
   96.6150000000000        -1.692906893554259E-011
   96.8050000000000        -1.698048453590754E-011
   96.9950000000000        -1.702981539241519E-011
   97.1850000000000        -1.707609668071740E-011
   97.3750000000000        -1.711945062165877E-011
   97.5650000000000        -1.716035127474118E-011
   97.7550000000000        -1.719911092334413E-011
   97.9450000000000        -1.723613553720939E-011
   98.1350000000000        -1.727166803660857E-011
   98.3250000000000        -1.730613066461585E-011
   98.5150000000000        -1.734018088241040E-011
   98.7050000000000        -1.737443508555443E-011
   98.8950000000000        -1.740927933516041E-011
   99.0850000000000        -1.744478834315196E-011
   99.2750000000000        -1.748076529233796E-011
   99.4650000000000        -1.751625864786744E-011
   99.6550000000000        -1.754910030600996E-011
   99.8450000000000        -1.757619134000895E-011
   100.035000000000        -1.759431358794596E-011
   100.225000000000        -1.760116783505494E-011
   100.415000000000        -1.759554382429132E-011
   100.605000000000        -1.757702164763477E-011
   100.795000000000        -1.754672471464185E-011
   100.985000000000        -1.750715766068133E-011
   101.175000000000        -1.746288482311540E-011
   101.365000000000        -1.741620881934606E-011
   101.555000000000        -1.736818049218087E-011
   101.745000000000        -1.732006471820294E-011
   101.935000000000        -1.726990786692290E-011
   102.125000000000        -1.721771719075361E-011
   102.315000000000        -1.716878436227242E-011
   102.505000000000        -1.712986131664354E-011
   102.695000000000        -1.710468881366828E-011
   102.885000000000        -1.709476233673248E-011
   103.075000000000        -1.710080443684200E-011
   103.265000000000        -1.712330484168253E-011
   103.455000000000        -1.716144197765445E-011
   103.645000000000        -1.721190888957538E-011
   103.835000000000        -1.726955579670763E-011
   104.025000000000        -1.733213583119414E-011
   104.215000000000        -1.739783150732615E-011
   104.405000000000        -1.746419955712454E-011
   104.595000000000        -1.753140468340960E-011
   104.785000000000        -1.759978336537179E-011
   104.975000000000        -1.766970438110728E-011
   105.165000000000        -1.774108198732321E-011
   105.355000000000        -1.781339743682224E-011
   105.545000000000        -1.788619867813987E-011
   105.735000000000        -1.795909944374409E-011
   105.925000000000        -1.803173222473741E-011
   106.115000000000        -1.810395585980731E-011
   106.305000000000        -1.817531744808633E-011
   106.495000000000        -1.824580372413777E-011
   106.685000000000        -1.831510946014259E-011
   106.875000000000        -1.838313636547567E-011
   107.065000000000        -1.845008621139153E-011
   107.255000000000        -1.851550884920193E-011
   107.445000000000        -1.857934937578249E-011
   107.635000000000        -1.864142172210301E-011
   107.825000000000        -1.870143367481737E-011
   108.015000000000        -1.875907466735917E-011
   108.205000000000        -1.881401365773580E-011
   108.395000000000        -1.886582795013963E-011
   108.585000000000        -1.891427293781864E-011
   108.775000000000        -1.895984606669934E-011
   108.965000000000        -1.900338715958855E-011
   109.155000000000        -1.904653186003238E-011
   109.345000000000        -1.909007892087809E-011
   109.535000000000        -1.913429050454062E-011
   109.725000000000        -1.917959451302911E-011
   109.915000000000        -1.922523253011608E-011
   110.105000000000        -1.927014212558467E-011