  -1.42500000000000         0.000000000000000E+000
  -1.23500000000000        -2.873725410280255E-020
  -1.04500000000000        -1.034682544095014E-019
 -0.855000000000000        -1.894495109643563E-019
 -0.665000000000000         5.939778668005932E-019
 -0.475000000000000         7.037689541297795E-018
 -0.285000000000000         3.766675524089730E-017
 -9.499999999999975E-002    1.230452332620097E-016
  9.500000000000020E-002    3.404331184149788E-016
  0.285000000000000         8.401408352892512E-016
  0.475000000000000         2.133575386700400E-015
  0.665000000000000         4.485698737045808E-015
  0.855000000000000         8.206149394283581E-015
   1.04500000000000         1.334426359611065E-014
   1.23500000000000         2.112269598824850E-014
   1.42500000000000         3.599239902574242E-014
   1.61500000000000         5.650870255725233E-014
   1.80500000000000         8.398520149686509E-014
   1.99500000000000         1.202617685893814E-013
   2.18500000000000         1.672571785588443E-013
   2.37500000000000         2.270191606291444E-013
   2.56500000000000         3.016773515741214E-013
   2.75500000000000         3.933737299620302E-013
   2.94500000000000         5.042795901672436E-013
   3.13500000000000         6.364653288450103E-013
   3.32500000000000         7.916880234412082E-013
   3.51500000000000         9.701300470198713E-013
   3.70500000000000         1.172502700729345E-012
   3.89500000000000         1.399161054479211E-012
   4.08500000000000         1.650550570055901E-012
   4.27500000000000         1.926988442253119E-012
   4.46500000000000         2.228653597365806E-012
   4.65500000000000         2.555535354404954E-012
   4.84500000000000         2.907255414384173E-012
   5.03500000000000         3.283114532189733E-012
   5.22500000000000         3.682374931891942E-012
   5.41500000000000         4.105104038745471E-012
   5.60500000000000         4.550294771225834E-012
   5.79500000000000         5.016351164955896E-012
   5.98500000000000         5.501973169739508E-012
   6.17500000000000         6.005841858735348E-012
   6.36500000000000         6.526341341215638E-012
   6.55500000000000         7.060207301183546E-012
   6.74500000000000         7.606778565209499E-012
   6.93500000000000         8.165062592064353E-012
   7.12500000000000         8.732370466577624E-012
   7.31500000000000         9.306128405868577E-012
   7.50500000000000         9.885833255039693E-012
   7.69500000000000         1.046988399763733E-011
   7.88500000000000         1.105848606177177E-011
   8.07500000000000         1.165232265139956E-011
   8.26500000000000         1.225180303086529E-011
   8.45500000000000         1.285645857619206E-011
   8.64500000000000         1.346687271679750E-011
   8.83500000000000         1.408405863697274E-011
   9.02500000000000         1.470923128055845E-011
   9.21500000000000         1.534764007684900E-011
   9.40500000000000         1.599977366360071E-011
   9.59500000000000         1.666492028793435E-011
   9.78500000000000         1.734349753794858E-011
   9.97500000000000         1.803928569586562E-011
   10.1650000000000         1.875214133315278E-011
   10.3550000000000         1.948161948036065E-011
   10.5450000000000         2.022769938649364E-011
   10.7350000000000         2.099083126882040E-011
   10.9250000000000         2.177132834054399E-011
   11.1150000000000         2.256950092129908E-011
   11.3050000000000         2.338559280653784E-011
   11.4950000000000         2.421981582913473E-011
   11.6850000000000         2.507251116937025E-011
   11.8750000000000         2.594410367331712E-011
   12.0650000000000         2.683496176628318E-011
   12.2550000000000         2.774527824427812E-011
   12.4450000000000         2.867508376702912E-011
   12.6350000000000         2.962422838776233E-011
   12.8250000000000         3.059285451100396E-011
   13.0150000000000         3.158075752020283E-011
   13.2050000000000         3.258692955055055E-011
   13.3950000000000         3.361079896578054E-011
   13.5850000000000         3.465132607724905E-011
   13.7750000000000         3.570736547081606E-011
   13.9650000000000         3.677759885463539E-011
   14.1550000000000         3.786079961811666E-011
   14.3450000000000         3.895615464700629E-011
   14.5350000000000         4.006292536831918E-011
   14.7250000000000         4.118048917453413E-011
   14.9150000000000         4.230835727644324E-011
   15.1050000000000         4.344632163223446E-011
   15.2950000000000         4.459421227530843E-011
   15.4850000000000         4.575251875589202E-011
   15.6750000000000         4.692266242629098E-011
   15.8650000000000         4.810453502554335E-011
   16.0550000000000         4.929881368508241E-011
   16.2450000000000         5.050705145935641E-011
   16.4350000000000         5.172956101313110E-011
   16.6250000000000         5.296717889373801E-011
   16.8150000000000         5.422090143624706E-011
   17.0050000000000         5.549169960840686E-011
   17.1950000000000         5.677972525507232E-011
   17.3850000000000         5.808541546550985E-011
   17.5750000000000         5.940908676910817E-011
   17.7650000000000         6.075151615655481E-011
   17.9550000000000         6.211299770315665E-011
   18.1450000000000         6.349392231817232E-011
   18.3350000000000         6.489455115196876E-011
   18.5250000000000         6.631514496506386E-011
   18.7150000000000         6.775601506650823E-011
   18.9050000000000         6.921748897516606E-011
   19.0950000000000         7.069926963346535E-011
   19.2850000000000         7.220066851156242E-011
   19.4750000000000         7.372059572417037E-011
   19.6650000000000         7.525787813358809E-011
   19.8550000000000         7.681107809412113E-011
   20.0450000000000         7.837844258142637E-011
   20.2350000000000         7.995804942307034E-011
   20.4250000000000         8.154792664693326E-011
   20.6150000000000         8.314630145258734E-011
   20.8050000000000         8.475162454278069E-011
   20.9950000000000         8.636264904226922E-011
   21.1850000000000         8.797845597482269E-011
   21.3750000000000         8.959831438727269E-011
   21.5650000000000         9.122161678845980E-011
   21.7550000000000         9.284824259778877E-011
   21.9450000000000         9.447842185020801E-011
   22.1350000000000         9.611204403419148E-011
   22.3250000000000         9.774912100884648E-011
   22.5150000000000         9.939082630267802E-011
   22.7050000000000         1.010375754238596E-010
   22.8950000000000         1.026899480972288E-010
   23.0850000000000         1.043490394967548E-010
   23.2750000000000         1.060155143616325E-010
   23.4650000000000         1.076921205108970E-010
   23.6550000000000         1.093769890128958E-010
   23.8450000000000         1.110715186676912E-010
   24.0350000000000         1.127775974535519E-010
   24.2250000000000         1.144970606604261E-010
   24.4150000000000         1.162319098555166E-010
   24.6050000000000         1.179850901122253E-010
   24.7950000000000         1.197643822483146E-010
   24.9850000000000         1.215655793721270E-010
   25.1750000000000         1.233908718945921E-010
   25.3650000000000         1.252400586204194E-010
   25.5550000000000         1.271137387417421E-010
   25.7450000000000         1.290122821770240E-010
   25.9350000000000         1.309359602584651E-010
   26.1250000000000         1.328847237918531E-010
   26.3150000000000         1.348580658438464E-010
   26.5050000000000         1.368552001926731E-010
   26.6950000000000         1.388755490973371E-010
   26.8850000000000         1.409186803525123E-010
   27.0750000000000         1.429841429242861E-010
   27.2650000000000         1.450711070895547E-010
   27.4550000000000         1.471786693949360E-010
   27.6450000000000         1.493058567907608E-010
   27.8350000000000         1.514515099454205E-010
   28.0250000000000         1.536153449636883E-010
   28.2150000000000         1.557959479255979E-010
   28.4050000000000         1.579922133746013E-010
   28.5950000000000         1.602026997641234E-010
   28.7850000000000         1.624225988797328E-010
   28.9750000000000         1.646513432256951E-010
   29.1650000000000         1.668873848525219E-010
   29.3550000000000         1.691317658642573E-010
   29.5450000000000         1.713837771326598E-010
   29.7350000000000         1.736418608491116E-010
   29.9250000000000         1.759055813132443E-010
   30.1150000000000         1.781750136058918E-010
   30.3050000000000         1.804507027613990E-010
   30.4950000000000         1.827325268946894E-010
   30.6850000000000         1.850209626613983E-010
   30.8750000000000         1.873153136845284E-010
   31.0650000000000         1.896169292132871E-010
   31.2550000000000         1.919260296652778E-010
   31.4450000000000         1.942408818923227E-010
   31.6350000000000         1.965667772765433E-010
   31.8250000000000         1.989045827764548E-010
   32.0150000000000         2.012586276621792E-010
   32.2050000000000         2.036285093167969E-010
   32.3950000000000         2.060177056869810E-010
   32.5850000000000         2.084309690018373E-010
   32.7750000000000         2.108700842829457E-010
   32.9650000000000         2.133341577647524E-010
   33.1550000000000         2.158242139651056E-010
   33.3450000000000         2.183411356518303E-010
   33.5350000000000         2.208853352478298E-010
   33.7250000000000         2.234576041329115E-010
   33.9150000000000         2.260581903674142E-010
   34.1050000000000         2.286868984603590E-010
   34.2950000000000         2.313431770788172E-010
   34.4850000000000         2.340261154596580E-010
   34.6750000000000         2.367345124895188E-010
   34.8650000000000         2.394670735634735E-010
   35.0550000000000         2.422225266863343E-010
   35.2450000000000         2.449993035718734E-010
   35.4350000000000         2.477956910705734E-010
   35.6250000000000         2.506088514878034E-010
   35.8150000000000         2.534372233709895E-010
   36.0050000000000         2.562795025466583E-010
   36.1950000000000         2.591351324617325E-010
   36.3850000000000         2.620028859148671E-010
   36.5750000000000         2.648812291180724E-010
   36.7650000000000         2.677694609598699E-010
   36.9550000000000         2.706666976428215E-010
   37.1450000000000         2.735722550863372E-010
   37.3350000000000         2.764852783569881E-010
   37.5250000000000         2.794053032628393E-010
   37.7150000000000         2.823319664003811E-010
   37.9050000000000         2.852650624706655E-010
   38.0950000000000         2.882047133197204E-010
   38.2850000000000         2.911513971585340E-010
   38.4750000000000         2.941059715702549E-010
   38.6650000000000         2.970716297876729E-010
   38.8550000000000         3.000481132116457E-010
   39.0450000000000         3.030370991944304E-010
   39.2350000000000         3.060393813704815E-010
   39.4250000000000         3.090565405141804E-010
   39.6150000000000         3.120893578730148E-010
   39.8050000000000         3.151353061983910E-010
   39.9950000000000         3.181996322559773E-010
   40.1850000000000         3.212817323804521E-010
   40.3750000000000         3.243817065039734E-010
   40.5650000000000         3.274997863105769E-010
   40.7550000000000         3.306361366127722E-010
   40.9450000000000         3.337904331837623E-010
   41.1350000000000         3.369619624262010E-010
   41.3250000000000         3.401500934402545E-010
   41.5150000000000         3.433538469471353E-010
   41.7050000000000         3.465715902674945E-010
   41.8950000000000         3.498032548099329E-010
   42.0850000000000         3.530503444319357E-010
   42.2750000000000         3.563130975139496E-010
   42.4650000000000         3.595908848551686E-010
   42.6550000000000         3.628842812709643E-010
   42.8450000000000         3.661948205849709E-010
   43.0350000000000         3.695228075662454E-010
   43.2250000000000         3.728688268539997E-010
   43.4150000000000         3.762334847998577E-010
   43.6050000000000         3.796169203429385E-010
   43.7950000000000         3.830187527734562E-010
   43.9850000000000         3.864390053683975E-010
   44.1750000000000         3.898774591320720E-010
   44.3650000000000         3.933336196933187E-010
   44.5550000000000         3.968064284930586E-010
   44.7450000000000         4.002947014478245E-010
   44.9350000000000         4.037975510581702E-010
   45.1250000000000         4.073138193557390E-010
   45.3150000000000         4.108442110014639E-010
   45.5050000000000         4.143899787141320E-010
   45.6950000000000         4.179517189019754E-010
   45.8850000000000         4.215303691162545E-010
   46.0750000000000         4.251288273466046E-010
   46.2650000000000         4.287465500716027E-010
   46.4550000000000         4.323845999626988E-010
   46.6450000000000         4.360438454408000E-010
   46.8350000000000         4.397244219989874E-010
   47.0250000000000         4.434260418902916E-010
   47.2150000000000         4.471476092213689E-010
   47.4050000000000         4.508889389412943E-010
   47.5950000000000         4.546490958931265E-010
   47.7850000000000         4.584266332017292E-010
   47.9750000000000         4.622224329155504E-010
   48.1650000000000         4.660301529611345E-010
   48.3550000000000         4.698498644905005E-010
   48.5450000000000         4.736812223320832E-010
   48.7350000000000         4.775249938411495E-010
   48.9250000000000         4.813808231581309E-010
   49.1150000000000         4.852480324268124E-010
   49.3050000000000         4.891264611371016E-010
   49.4950000000000         4.930153945269904E-010
   49.6850000000000         4.969113664336350E-010
   49.8750000000000         5.008149468220562E-010
   50.0650000000000         5.047221010413025E-010
   50.2550000000000         5.086348012653600E-010
   50.4450000000000         5.125521540033477E-010
   50.6350000000000         5.164740573205359E-010
   50.8250000000000         5.204004834458058E-010
   51.0150000000000         5.243317057435522E-010
   51.2050000000000         5.282672913743186E-010
   51.3950000000000         5.322072046161140E-010
   51.5850000000000         5.361524966535596E-010
   51.7750000000000         5.401054424923648E-010
   51.9650000000000         5.440705143757157E-010
   52.1550000000000         5.480489947249019E-010
   52.3450000000000         5.520376802101934E-010
   52.5350000000000         5.560451171986826E-010
   52.7250000000000         5.600751094901963E-010
   52.9150000000000         5.641271986873685E-010
   53.1050000000000         5.682031078408263E-010
   53.2950000000000         5.723029822584120E-010
   53.4850000000000         5.764280847426386E-010
   53.6750000000000         5.805803283984666E-010
   53.8650000000000         5.847616750034431E-010
   54.0550000000000         5.889729418720975E-010
   54.2450000000000         5.932137980251391E-010
   54.4350000000000         5.974842380025184E-010
   54.6250000000000         6.017838209361359E-010
   54.8150000000000         6.061125679932741E-010
   55.0050000000000         6.104697029090177E-010
   55.1950000000000         6.148542206719359E-010
   55.3850000000000         6.192664013895584E-010
   55.5750000000000         6.237054528827826E-010
   55.7650000000000         6.281704822113672E-010
   55.9550000000000         6.326605071410033E-010
   56.1450000000000         6.371747651398807E-010
   56.3350000000000         6.417108719861442E-010
   56.5250000000000         6.462655161921919E-010
   56.7150000000000         6.508380730169370E-010
   56.9050000000000         6.554261316156912E-010
   57.0950000000000         6.600264865448470E-010
   57.2850000000000         6.646385535450260E-010
   57.4750000000000         6.692627807320129E-010
   57.6650000000000         6.738974456227745E-010
   57.8550000000000         6.785407843624801E-010
   58.0450000000000         6.831912952913524E-010
   58.2350000000000         6.878473121554551E-010
   58.4250000000000         6.925079002433298E-010
   58.6150000000000         6.971721477619391E-010
   58.8050000000000         7.018395221212333E-010
   58.9950000000000         7.065099063585595E-010
   59.1850000000000         7.111832472671414E-010
   59.3750000000000         7.158594751369141E-010
   59.5650000000000         7.205383402174451E-010
   59.7550000000000         7.252195343587480E-010
   59.9450000000000         7.299028554512526E-010
   60.1350000000000         7.345882366370422E-010
   60.3250000000000         7.392756798806415E-010
   60.5150000000000         7.439654235894294E-010
   60.7050000000000         7.486578483108283E-010
   60.8950000000000         7.533538237532820E-010
   61.0850000000000         7.580596433457016E-010
   61.2750000000000         7.627747608788018E-010
   61.4650000000000         7.675028789165271E-010
   61.6550000000000         7.722469863638557E-010
   61.8450000000000         7.770089020811134E-010
   62.0350000000000         7.817916338456218E-010
   62.2250000000000         7.865967172310923E-010
   62.4150000000000         7.914248046889555E-010
   62.6050000000000         7.962767221801774E-010
   62.7950000000000         8.011543213466044E-010
   62.9850000000000         8.060594814629512E-010
   63.1750000000000         8.109931703293016E-010
   63.3650000000000         8.159565184563345E-010
   63.5550000000000         8.209501514667081E-010
   63.7450000000000         8.259743587417520E-010
   63.9350000000000         8.310291103796936E-010
   64.1250000000000         8.361136641227056E-010
   64.3150000000000         8.412266506771667E-010
   64.5050000000000         8.463664571465023E-010
   64.6950000000000         8.515316438229108E-010
   64.8850000000000         8.567139987469053E-010
   65.0750000000000         8.619185345899405E-010
   65.2650000000000         8.671435038376412E-010
   65.4550000000000         8.723870324926481E-010
   65.6450000000000         8.776472995504874E-010
   65.8350000000000         8.829224360627847E-010
   66.0250000000000         8.882105385350953E-010
   66.2150000000000         8.935096507521752E-010
   66.4050000000000         8.988178169518102E-010
   66.5950000000000         9.041334761540566E-010
   66.7850000000000         9.094562817672659E-010
   66.9750000000000         9.147855587558337E-010
   67.1650000000000         9.201207897738766E-010
   67.3550000000000         9.254613601719655E-010
   67.5450000000000         9.308068372486778E-010
   67.7350000000000         9.361571967970216E-010
   67.9250000000000         9.415128499911573E-010
   68.1150000000000         9.468741473367232E-010
   68.3050000000000         9.522415195667019E-010
   68.4950000000000         9.576158460061633E-010
   68.6850000000000         9.629986827488479E-010
   68.8750000000000         9.683920799838278E-010
   69.0650000000000         9.737981766098886E-010
   69.2550000000000         9.792189976313863E-010
   69.4450000000000         9.846563637425490E-010
   69.6350000000000         9.901118245200541E-010
   69.8250000000000         9.955865202747403E-010
   70.0150000000000         1.001081291954407E-009
   70.2050000000000         1.006596487915177E-009
   70.3950000000000         1.012132135889111E-009
   70.5850000000000         1.017688216733005E-009
   70.7750000000000         1.023264634189535E-009
   70.9650000000000         1.028861096854907E-009
   71.1550000000000         1.034477108724257E-009
   71.3450000000000         1.040110371170743E-009
   71.5350000000000         1.045762543032126E-009
   71.7250000000000         1.051432840663783E-009
   71.9150000000000         1.057122492761446E-009
   72.1050000000000         1.062831568149367E-009
   72.2950000000000         1.068560022750793E-009
   72.4850000000000         1.074307912008378E-009
   72.6750000000000         1.080075252739120E-009
   72.8650000000000         1.085862155329408E-009
   73.0550000000000         1.091668720214785E-009
   73.2450000000000         1.097495195314981E-009
   73.4350000000000         1.103342054796128E-009
   73.6250000000000         1.109209876203516E-009
   73.8150000000000         1.115098912445261E-009
   74.0050000000000         1.121009539024391E-009
   74.1950000000000         1.126941507839098E-009
   74.3850000000000         1.132894701240906E-009
   74.5750000000000         1.138868706539233E-009
   74.7650000000000         1.144863339799697E-009
   74.9550000000000         1.150878729937701E-009
   75.1450000000000         1.156913973591412E-009
   75.3350000000000         1.162968320205046E-009
   75.5250000000000         1.169041627269760E-009
   75.7150000000000         1.175133722915841E-009
   75.9050000000000         1.181244401644063E-009
   76.0950000000000         1.187373585338221E-009
   76.2850000000000         1.193520487777643E-009
   76.4750000000000         1.199684063521315E-009
   76.6650000000000         1.205863247142513E-009
   76.8550000000000         1.212057064146458E-009
   77.0450000000000         1.218264741159304E-009
   77.2350000000000         1.224485956567864E-009
   77.4250000000000         1.230720334145155E-009
   77.6150000000000         1.236966919467443E-009
   77.8050000000000         1.243224606638008E-009
   77.9950000000000         1.249492846485844E-009
   78.1850000000000         1.255771231850139E-009
   78.3750000000000         1.262059067717856E-009
   78.5650000000000         1.268356425440378E-009
   78.7550000000000         1.274662802582085E-009
   78.9450000000000         1.280978257833724E-009
   79.1350000000000         1.287302843438695E-009
   79.3250000000000         1.293637490433123E-009
   79.5150000000000         1.299983392931124E-009
   79.7050000000000         1.306341465990847E-009
   79.8950000000000         1.312711903818256E-009
   80.0850000000000         1.319094581572202E-009
   80.2750000000000         1.325490167472855E-009
   80.4650000000000         1.331900394930045E-009
   80.6550000000000         1.338325101423583E-009
   80.8450000000000         1.344763294905271E-009
   81.0350000000000         1.351213699071421E-009
   81.2250000000000         1.357676296963049E-009
   81.4150000000000         1.364159166376980E-009
   81.6050000000000         1.370663431432905E-009
   81.7950000000000         1.377189324904081E-009
   81.9850000000000         1.383736890129723E-009
   82.1750000000000         1.390306629869916E-009
   82.3650000000000         1.396899414325370E-009
   82.5550000000000         1.403515778971163E-009
   82.7450000000000         1.410157033126720E-009
   82.9350000000000         1.416825290744140E-009
   83.1250000000000         1.423520808917663E-009
   83.3150000000000         1.430243361173067E-009
   83.5050000000000         1.436992628684333E-009
   83.6950000000000         1.443769615510378E-009
   83.8850000000000         1.450574553414522E-009
   84.0750000000000         1.457408487736178E-009
   84.2650000000000         1.464270983736850E-009
   84.4550000000000         1.471160901017506E-009
   84.6450000000000         1.478076728924961E-009
   84.8350000000000         1.485017469532473E-009
   85.0250000000000         1.491983081878059E-009
   85.2150000000000         1.498974085302698E-009
   85.4050000000000         1.505990550070464E-009
   85.5950000000000         1.513031783002423E-009
   85.7850000000000         1.520096304785434E-009
   85.9750000000000         1.527179572001568E-009
   86.1650000000000         1.534278334435503E-009
   86.3550000000000         1.541391173573005E-009
   86.5450000000000         1.548517763836942E-009
   86.7350000000000         1.555655519039169E-009
   86.9250000000000         1.562801356451116E-009
   87.1150000000000         1.569954141125372E-009
   87.3050000000000         1.577113757338568E-009
   87.4950000000000         1.584279263397198E-009
   87.6850000000000         1.591450459667223E-009
   87.8750000000000         1.598626714436695E-009
   88.0650000000000         1.605806462261238E-009
   88.2550000000000         1.612988490358038E-009
   88.4450000000000         1.620172666103479E-009
   88.6350000000000         1.627358933927162E-009
   88.8250000000000         1.634546961478443E-009
   89.0150000000000         1.641736287090176E-009
   89.2050000000000         1.648927214894810E-009
   89.3950000000000         1.656120637689057E-009
   89.5850000000000         1.663320617068225E-009
   89.7750000000000         1.670531516846410E-009
   89.9650000000000         1.677759582410553E-009
   90.1550000000000         1.685006896553401E-009
   90.3450000000000         1.692274742482611E-009
   90.5350000000000         1.699561205028426E-009
   90.7250000000000         1.706867654981661E-009
   90.9150000000000         1.714195418060088E-009
   91.1050000000000         1.721545866993657E-009
   91.2950000000000         1.728919856076172E-009
   91.4850000000000         1.736318166917749E-009
   91.6750000000000         1.743741649305021E-009
   91.8650000000000         1.751192522276460E-009
   92.0550000000000         1.758673008068010E-009
   92.2450000000000         1.766185244549032E-009
   92.4350000000000         1.773731194385414E-009
   92.6250000000000         1.781311751746870E-009
   92.8150000000000         1.788926772935743E-009
   93.0050000000000         1.796575871082371E-009
   93.1950000000000         1.804258953539213E-009
   93.3850000000000         1.811975893772973E-009
   93.5750000000000         1.819725688816902E-009
   93.7650000000000         1.827502193589236E-009
   93.9550000000000         1.835301274028621E-009
   94.1450000000000         1.843118349799458E-009
   94.3350000000000         1.850952914613136E-009
   94.5250000000000         1.858803609051748E-009
   94.7150000000000         1.866667897640476E-009
   94.9050000000000         1.874542975571299E-009
   95.0950000000000         1.882425482948960E-009
   95.2850000000000         1.890317229242174E-009
   95.4750000000000         1.898216977926224E-009
   95.6650000000000         1.906124114884648E-009
   95.8550000000000         1.914038119554364E-009
   96.0450000000000         1.921958516525256E-009
   96.2350000000000         1.929884986741045E-009
   96.4250000000000         1.937816705772702E-009
   96.6150000000000         1.945753271588430E-009
   96.8050000000000         1.953695078539448E-009
   96.9950000000000         1.961642859499640E-009
   97.1850000000000         1.969596971815115E-009
   97.3750000000000         1.977557085306772E-009
   97.5650000000000         1.985522776316499E-009
   97.7550000000000         1.993494212824795E-009
   97.9450000000000         2.001472311368257E-009
   98.1350000000000         2.009458611347240E-009
   98.3250000000000         2.017454454598841E-009
   98.5150000000000         2.025460692890497E-009
   98.7050000000000         2.033477888559772E-009
   98.8950000000000         2.041506627736134E-009
   99.0850000000000         2.049548032744745E-009
   99.2750000000000         2.057603916966649E-009
   99.4650000000000         2.065676783897223E-009
   99.6550000000000         2.073769624046728E-009
   99.8450000000000         2.081885712944419E-009
   100.035000000000         2.090027845743351E-009
   100.225000000000         2.098199181470531E-009
   100.415000000000         2.106401224952058E-009
   100.605000000000         2.114635284620580E-009
   100.795000000000         2.122901491848444E-009
   100.985000000000         2.131199883521002E-009
   101.175000000000         2.139530095546226E-009
   101.365000000000         2.147891428822112E-009
   101.555000000000         2.156283659822255E-009
   101.745000000000         2.164706467256943E-009
   101.935000000000         2.173159281350071E-009
   102.125000000000         2.181641053239818E-009
   102.315000000000         2.190149564155753E-009
   102.505000000000         2.198686527889095E-009
   102.695000000000         2.207251830510188E-009
   102.885000000000         2.215846872498364E-009
   103.075000000000         2.224470922975285E-009
   103.265000000000         2.233122368214238E-009
   103.455000000000         2.241797104885483E-009
   103.645000000000         2.250489915269846E-009
   103.835000000000         2.259198838991163E-009
   104.025000000000         2.267924681961223E-009
   104.215000000000         2.276667092653979E-009
   104.405000000000         2.285424156019563E-009
   104.595000000000         2.294194580209962E-009
   104.785000000000         2.302977049820248E-009
   104.975000000000         2.311771228341008E-009
   105.165000000000         2.320577283026854E-009
   105.355000000000         2.329395170672105E-009
   105.545000000000         2.338224605306414E-009
   105.735000000000         2.347065398620673E-009
   105.925000000000         2.355917785940460E-009
   106.115000000000         2.364782384072144E-009
   106.305000000000         2.373659656789535E-009
   106.495000000000         2.382549280156591E-009
   106.685000000000         2.391450096143481E-009
   106.875000000000         2.400360734730093E-009
   107.065000000000         2.409280537664883E-009
   107.255000000000         2.418209824258659E-009
   107.445000000000         2.427149511756903E-009
   107.635000000000         2.436100796986647E-009
   107.825000000000         2.445064691040798E-009
   108.015000000000         2.454042024358495E-009
   108.205000000000         2.463033814753774E-009
   108.395000000000         2.472041650048558E-009
   108.585000000000         2.481067553461798E-009
   108.775000000000         2.490113138249303E-009
   108.965000000000         2.499178639891957E-009
   109.155000000000         2.508263138099675E-009
   109.345000000000         2.517364858043600E-009
   109.535000000000         2.526482831360880E-009
   109.725000000000         2.535617010055776E-009
   109.915000000000         2.544768379882495E-009
   110.105000000000         2.553938174531103E-009