  -1.42500000000000         4.728700452977361E-020
  -1.23500000000000         9.165094853429489E-019
  -1.04500000000000         6.503932046319529E-018
 -0.855000000000000         3.915572314621991E-017
 -0.665000000000000         1.631618713774713E-016
 -0.475000000000000         5.426876536593249E-016
 -0.285000000000000         1.746706798750107E-015
 -9.499999999999975E-002    4.412048259643454E-015
  9.500000000000020E-002    1.091772006944484E-014
  0.285000000000000         2.452545332565116E-014
  0.475000000000000         4.672919760033747E-014
  0.665000000000000         7.885067198142162E-014
  0.855000000000000         1.349327619053868E-013
   1.04500000000000         2.200715193392517E-013
   1.23500000000000         3.228565538458245E-013
   1.42500000000000         4.505437767135750E-013
   1.61500000000000         6.115267891812402E-013
   1.80500000000000         8.051238641731990E-013
   1.99500000000000         1.013332293841027E-012
   2.18500000000000         1.233542234203066E-012
   2.37500000000000         1.476696751311667E-012
   2.56500000000000         1.730028504590222E-012
   2.75500000000000         1.995072025509121E-012
   2.94500000000000         2.274676959713277E-012
   3.13500000000000         2.561972823054447E-012
   3.32500000000000         2.854116532544289E-012
   3.51500000000000         3.149404108615284E-012
   3.70500000000000         3.445898714469745E-012
   3.89500000000000         3.741468499110573E-012
   4.08500000000000         4.035516817661844E-012
   4.27500000000000         4.327689357560054E-012
   4.46500000000000         4.615741870021137E-012
   4.65500000000000         4.896603638578651E-012
   4.84500000000000         5.171109319946646E-012
   5.03500000000000         5.441680874575540E-012
   5.22500000000000         5.707740464046590E-012
   5.41500000000000         5.956893262182688E-012
   5.60500000000000         6.190909202233605E-012
   5.79500000000000         6.412340257843670E-012
   5.98500000000000         6.600122299469573E-012
   6.17500000000000         6.758068995738188E-012
   6.36500000000000         6.897710660983860E-012
   6.55500000000000         7.017216395150849E-012
   6.74500000000000         7.125586909753770E-012
   6.93500000000000         7.224525391456074E-012
   7.12500000000000         7.329937349313028E-012
   7.31500000000000         7.441165137230570E-012
   7.50500000000000         7.542233434376129E-012
   7.69500000000000         7.640833367752414E-012
   7.88500000000000         7.735933041506831E-012
   8.07500000000000         7.837206300360846E-012
   8.26500000000000         7.960381072769198E-012
   8.45500000000000         8.103832519556503E-012
   8.64500000000000         8.257405102892645E-012
   8.83500000000000         8.418859918827682E-012
   9.02500000000000         8.589979986120149E-012
   9.21500000000000         8.766738138614219E-012
   9.40500000000000         8.934999765933396E-012
   9.59500000000000         9.106456135734052E-012
   9.78500000000000         9.281123022476132E-012
   9.97500000000000         9.457205434984610E-012
   10.1650000000000         9.652979952942412E-012
   10.3550000000000         9.852576101505297E-012
   10.5450000000000         1.004631497279742E-011
   10.7350000000000         1.024210705614212E-011
   10.9250000000000         1.044106166091366E-011
   11.1150000000000         1.064040175400747E-011
   11.3050000000000         1.084119155626663E-011
   11.4950000000000         1.104589726451798E-011
   11.6850000000000         1.125859294953795E-011
   11.8750000000000         1.148045011365447E-011
   12.0650000000000         1.170943585409283E-011
   12.2550000000000         1.194248939377898E-011
   12.4450000000000         1.217415929620118E-011
   12.6350000000000         1.240203633047853E-011
   12.8250000000000         1.261794601692041E-011
   13.0150000000000         1.282095314092706E-011
   13.2050000000000         1.301055223845480E-011
   13.3950000000000         1.317533994039354E-011
   13.5850000000000         1.331722822192735E-011
   13.7750000000000         1.344169061560238E-011
   13.9650000000000         1.354761328343933E-011
   14.1550000000000         1.364729098713924E-011
   14.3450000000000         1.374616318572787E-011
   14.5350000000000         1.384148802658193E-011
   14.7250000000000         1.394016722667901E-011
   14.9150000000000         1.405242655779909E-011
   15.1050000000000         1.418786803991479E-011
   15.2950000000000         1.434118656901176E-011
   15.4850000000000         1.450724551038460E-011
   15.6750000000000         1.468726778835440E-011
   15.8650000000000         1.488204105114829E-011
   16.0550000000000         1.509513205524321E-011
   16.2450000000000         1.532343513998890E-011
   16.4350000000000         1.555553530055198E-011
   16.6250000000000         1.579156118688486E-011
   16.8150000000000         1.603786150380331E-011
   17.0050000000000         1.628815766131353E-011
   17.1950000000000         1.654115670900310E-011
   17.3850000000000         1.680085990756763E-011
   17.5750000000000         1.706460771026511E-011
   17.7650000000000         1.733222901180785E-011
   17.9550000000000         1.760244498265385E-011
   18.1450000000000         1.787276841464125E-011
   18.3350000000000         1.814222228554977E-011
   18.5250000000000         1.841004468075133E-011
   18.7150000000000         1.867322498427793E-011
   18.9050000000000         1.892842049999339E-011
   19.0950000000000         1.917155258229421E-011
   19.2850000000000         1.939116768203472E-011
   19.4750000000000         1.959176721292756E-011
   19.6650000000000         1.977801862375264E-011
   19.8550000000000         1.994755031078814E-011
   20.0450000000000         2.009525454309068E-011
   20.2350000000000         2.021673761815052E-011
   20.4250000000000         2.031865247409950E-011
   20.6150000000000         2.039800358942557E-011
   20.8050000000000         2.045873724885226E-011
   20.9950000000000         2.051019802014383E-011
   21.1850000000000         2.055922904545265E-011
   21.3750000000000         2.060044504729160E-011
   21.5650000000000         2.063220604095860E-011
   21.7550000000000         2.066263146836002E-011
   21.9450000000000         2.069422401181991E-011
   22.1350000000000         2.073652351884440E-011
   22.3250000000000         2.079254578405027E-011
   22.5150000000000         2.085832204118101E-011
   22.7050000000000         2.093165450554838E-011
   22.8950000000000         2.102106057437425E-011
   23.0850000000000         2.113848219581739E-011
   23.2750000000000         2.127585068376727E-011
   23.4650000000000         2.145032761630648E-011
   23.6550000000000         2.166255891934402E-011
   23.8450000000000         2.189159037338240E-011
   24.0350000000000         2.214503927250848E-011
   24.2250000000000         2.241802071181948E-011
   24.4150000000000         2.270639746254783E-011
   24.6050000000000         2.300517738825483E-011
   24.7950000000000         2.331666325982694E-011
   24.9850000000000         2.364800312125841E-011
   25.1750000000000         2.397788256714796E-011
   25.3650000000000         2.429435775710904E-011
   25.5550000000000         2.460524750155929E-011
   25.7450000000000         2.490739152326101E-011
   25.9350000000000         2.520255301955647E-011
   26.1250000000000         2.548725132309431E-011
   26.3150000000000         2.576314687684549E-011
   26.5050000000000         2.603532044318855E-011
   26.6950000000000         2.629958036470923E-011
   26.8850000000000         2.655520473687972E-011
   27.0750000000000         2.679513361224375E-011
   27.2650000000000         2.702567379157459E-011
   27.4550000000000         2.725014916054170E-011
   27.6450000000000         2.746132991238591E-011
   27.8350000000000         2.766429100188300E-011
   28.0250000000000         2.784799816657894E-011
   28.2150000000000         2.800966196719152E-011
   28.4050000000000         2.815548595813406E-011
   28.5950000000000         2.827784857538447E-011
   28.7850000000000         2.838105832918947E-011
   28.9750000000000         2.844766384905354E-011
   29.1650000000000         2.847822894302851E-011
   29.3550000000000         2.850542665038541E-011
   29.5450000000000         2.852749187737373E-011
   29.7350000000000         2.853311064003411E-011
   29.9250000000000         2.852815803939018E-011
   30.1150000000000         2.851713977954721E-011
   30.3050000000000         2.849927545354850E-011
   30.4950000000000         2.848805231870581E-011
   30.6850000000000         2.849089771892524E-011
   30.8750000000000         2.850375674477528E-011
   31.0650000000000         2.854453214194496E-011
   31.2550000000000         2.861290131874164E-011
   31.4450000000000         2.870158594302584E-011
   31.6350000000000         2.881985135639809E-011
   31.8250000000000         2.896812489223525E-011
   32.0150000000000         2.915358859522050E-011
   32.2050000000000         2.939347607692875E-011
   32.3950000000000         2.968541702017559E-011
   32.5850000000000         2.999572675139183E-011
   32.7750000000000         3.032656903022861E-011
   32.9650000000000         3.067965959870486E-011
   33.1550000000000         3.102925650740959E-011
   33.3450000000000         3.137674267218554E-011
   33.5350000000000         3.172596365238058E-011
   33.7250000000000         3.206605446110186E-011
   33.9150000000000         3.238475294286932E-011
   34.1050000000000         3.267816875795494E-011
   34.2950000000000         3.294704509619924E-011
   34.4850000000000         3.318921158125356E-011
   34.6750000000000         3.340914215122433E-011
   34.8650000000000         3.361623186016415E-011
   35.0550000000000         3.381540056628966E-011
   35.2450000000000         3.400174105309815E-011
   35.4350000000000         3.417559849370123E-011
   35.6250000000000         3.434396710464435E-011
   35.8150000000000         3.450516287365951E-011
   36.0050000000000         3.466068174524083E-011
   36.1950000000000         3.481601148171448E-011
   36.3850000000000         3.497157838860293E-011
   36.5750000000000         3.511386973849716E-011
   36.7650000000000         3.524392819033384E-011
   36.9550000000000         3.536686848063218E-011
   37.1450000000000         3.547764458123615E-011
   37.3350000000000         3.557932602659350E-011
   37.5250000000000         3.567515643796708E-011
   37.7150000000000         3.576596517452965E-011
   37.9050000000000         3.585373157854418E-011
   38.0950000000000         3.594093481958176E-011
   38.2850000000000         3.604029931137821E-011
   38.4750000000000         3.615311373106151E-011
   38.6650000000000         3.629150343690138E-011
   38.8550000000000         3.645308970153870E-011
   39.0450000000000         3.662202282638412E-011
   39.2350000000000         3.681936209914574E-011
   39.4250000000000         3.705885727830083E-011
   39.6150000000000         3.733709805175126E-011
   39.8050000000000         3.764330812633292E-011
   39.9950000000000         3.796061810379893E-011
   40.1850000000000         3.827808515793669E-011
   40.3750000000000         3.859688895859579E-011
   40.5650000000000         3.891965770925721E-011
   40.7550000000000         3.924428308309730E-011
   40.9450000000000         3.955682751825069E-011
   41.1350000000000         3.985070083893771E-011
   41.3250000000000         4.013175080745415E-011
   41.5150000000000         4.041106883562604E-011
   41.7050000000000         4.068206801943105E-011
   41.8950000000000         4.092801933717682E-011
   42.0850000000000         4.115589134401950E-011
   42.2750000000000         4.137530122928425E-011
   42.4650000000000         4.158141890042539E-011
   42.6550000000000         4.176676164482559E-011
   42.8450000000000         4.193304492945789E-011
   43.0350000000000         4.208863283410638E-011
   43.2250000000000         4.223248590660669E-011
   43.4150000000000         4.236063100817996E-011
   43.6050000000000         4.248444425486646E-011
   43.7950000000000         4.260646470990571E-011
   43.9850000000000         4.271971352052520E-011
   44.1750000000000         4.282447614723815E-011
   44.3650000000000         4.292719112972380E-011
   44.5550000000000         4.304252774308813E-011
   44.7450000000000         4.316920308944860E-011
   44.9350000000000         4.332068854445944E-011
   45.1250000000000         4.350621131695799E-011
   45.3150000000000         4.370911287021629E-011
   45.5050000000000         4.393196650236619E-011
   45.6950000000000         4.418093457554734E-011
   45.8850000000000         4.445342817316450E-011
   46.0750000000000         4.473624176390800E-011
   46.2650000000000         4.502302945838742E-011
   46.4550000000000         4.531016956705255E-011
   46.6450000000000         4.558951747354817E-011
   46.8350000000000         4.586015045866908E-011
   47.0250000000000         4.611398090181657E-011
   47.2150000000000         4.634304889455849E-011
   47.4050000000000         4.655143516084517E-011
   47.5950000000000         4.674240716784113E-011
   47.7850000000000         4.691163017218119E-011
   47.9750000000000         4.707341666290734E-011
   48.1650000000000         4.723917195297919E-011
   48.3550000000000         4.738755375574744E-011
   48.5450000000000         4.750516036114166E-011
   48.7350000000000         4.760740317609987E-011
   48.9250000000000         4.771208826641866E-011
   49.1150000000000         4.781601559332095E-011
   49.3050000000000         4.791152213051680E-011
   49.4950000000000         4.800157447591840E-011
   49.6850000000000         4.810634539210550E-011
   49.8750000000000         4.822928415741641E-011
   50.0650000000000         4.834598043783173E-011
   50.2550000000000         4.845207700967775E-011
   50.4450000000000         4.855627625084232E-011
   50.6350000000000         4.865664172182181E-011
   50.8250000000000         4.875613522075685E-011
   51.0150000000000         4.885895599517360E-011
   51.2050000000000         4.896579567067861E-011
   51.3950000000000         4.908481744860451E-011
   51.5850000000000         4.921985853040247E-011
   51.7750000000000         4.933481268242172E-011
   51.9650000000000         4.943019496790848E-011
   52.1550000000000         4.954329509301332E-011
   52.3450000000000         4.967506493242837E-011
   52.5350000000000         4.982394565977233E-011
   52.7250000000000         4.999200996839392E-011
   52.9150000000000         5.021285027186437E-011
   53.1050000000000         5.048184491475680E-011
   53.2950000000000         5.076803483716857E-011
   53.4850000000000         5.107858795144585E-011
   53.6750000000000         5.140387880679202E-011
   53.8650000000000         5.174368856916859E-011
   54.0550000000000         5.210708875727775E-011
   54.2450000000000         5.248149437333868E-011
   54.4350000000000         5.285676203771775E-011
   54.6250000000000         5.323541062855122E-011
   54.8150000000000         5.361554059066612E-011
   55.0050000000000         5.399305668861294E-011
   55.1950000000000         5.436601601244290E-011
   55.3850000000000         5.472869750511535E-011
   55.5750000000000         5.508301080287311E-011
   55.7650000000000         5.542838087057310E-011
   55.9550000000000         5.576018018719967E-011
   56.1450000000000         5.607090233894746E-011
   56.3350000000000         5.636546746280575E-011
   56.5250000000000         5.665228466382007E-011
   56.7150000000000         5.692409488847019E-011
   56.9050000000000         5.716876380563900E-011
   57.0950000000000         5.735231299293505E-011
   57.2850000000000         5.748083527316537E-011
   57.4750000000000         5.757199070395177E-011
   57.6650000000000         5.763101239759767E-011
   57.8550000000000         5.768226202114914E-011
   58.0450000000000         5.773067703171104E-011
   58.2350000000000         5.777443552248722E-011
   58.4250000000000         5.781637288864216E-011
   58.6150000000000         5.786208470688780E-011
   58.8050000000000         5.790983386948846E-011
   58.9950000000000         5.795266932356928E-011
   59.1850000000000         5.798915506833437E-011
   59.3750000000000         5.802209693318750E-011
   59.5650000000000         5.805420533322684E-011
   59.7550000000000         5.808674736262253E-011
   59.9450000000000         5.811996896545668E-011
   60.1350000000000         5.815331338470590E-011
   60.3250000000000         5.818585944031871E-011
   60.5150000000000         5.822481736391713E-011
   60.7050000000000         5.828342277648781E-011
   60.8950000000000         5.836555427828576E-011
   61.0850000000000         5.847285432241006E-011
   61.2750000000000         5.857120113963777E-011
   61.4650000000000         5.865437438988981E-011
   61.6550000000000         5.876730079830119E-011
   61.8450000000000         5.892955823920326E-011
   62.0350000000000         5.915185126566766E-011
   62.2250000000000         5.941546577881355E-011
   62.4150000000000         5.970190064073401E-011
   62.6050000000000         5.999977095655781E-011
   62.7950000000000         6.029807444787479E-011
   62.9850000000000         6.060770335251956E-011
   63.1750000000000         6.093089466470729E-011
   63.3650000000000         6.125811180796809E-011
   63.5550000000000         6.158180427729036E-011
   63.7450000000000         6.189697326086268E-011
   63.9350000000000         6.219143126994635E-011
   64.1250000000000         6.246361788074173E-011
   64.3150000000000         6.272462170565729E-011
   64.5050000000000         6.297178589115220E-011
   64.6950000000000         6.320233182972510E-011
   64.8850000000000         6.340145386116476E-011
   65.0750000000000         6.356801445740376E-011
   65.2650000000000         6.372235222868000E-011
   65.4550000000000         6.386393529690576E-011
   65.6450000000000         6.399761861804513E-011
   65.8350000000000         6.412892809486937E-011
   66.0250000000000         6.425115847727022E-011
   66.2150000000000         6.435784827177183E-011
   66.4050000000000         6.445771123506123E-011
   66.5950000000000         6.455915480974020E-011
   66.7850000000000         6.465694971633945E-011
   66.9750000000000         6.474541231862841E-011
   67.1650000000000         6.482495857350432E-011
   67.3550000000000         6.490009268976374E-011
   67.5450000000000         6.497512493709458E-011
   67.7350000000000         6.506183375405619E-011
   67.9250000000000         6.516063025367702E-011
   68.1150000000000         6.526884915244716E-011
   68.3050000000000         6.539980445163403E-011
   68.4950000000000         6.555989548981924E-011
   68.6850000000000         6.574671575043234E-011
   68.8750000000000         6.596020413416871E-011
   69.0650000000000         6.620101519402368E-011
   69.2550000000000         6.646036258289680E-011
   69.4450000000000         6.672513680404008E-011
   69.6350000000000         6.698827118869529E-011
   69.8250000000000         6.725073295561248E-011
   70.0150000000000         6.751431726175869E-011
   70.2050000000000         6.778138829542455E-011
   70.3950000000000         6.805199159381317E-011
   70.5850000000000         6.832104958385674E-011
   70.7750000000000         6.858744870410500E-011
   70.9650000000000         6.885651229389322E-011
   71.1550000000000         6.913487948705135E-011
   71.3450000000000         6.942556550512299E-011
   71.5350000000000         6.972545186512148E-011
   71.7250000000000         7.003009620464640E-011
   71.9150000000000         7.033359728988260E-011
   72.1050000000000         7.063481425517012E-011
   72.2950000000000         7.093972052423708E-011
   72.4850000000000         7.124848670265587E-011
   72.6750000000000         7.155915267159019E-011
   72.8650000000000         7.186788016509434E-011
   73.0550000000000         7.217067921943470E-011
   73.2450000000000         7.246549795218874E-011
   73.4350000000000         7.275016081277853E-011
   73.6250000000000         7.302029437685141E-011
   73.8150000000000         7.328096445729444E-011
   74.0050000000000         7.353590335627747E-011
   74.1950000000000         7.378476373594269E-011
   74.3850000000000         7.401484581711040E-011
   74.5750000000000         7.422481879240648E-011
   74.7650000000000         7.443026179910825E-011
   74.9550000000000         7.464087959850561E-011
   75.1450000000000         7.485171194203587E-011
   75.3350000000000         7.505199189270855E-011
   75.5250000000000         7.524224152998995E-011
   75.7150000000000         7.543397796278383E-011
   75.9050000000000         7.563613585971737E-011
   76.0950000000000         7.583855058596957E-011
   76.2850000000000         7.603866465674519E-011
   76.4750000000000         7.623577268317478E-011
   76.6650000000000         7.642480098588617E-011
   76.8550000000000         7.660512704132077E-011
   77.0450000000000         7.677736310762297E-011
   77.2350000000000         7.693539724460288E-011
   77.4250000000000         7.707126691951568E-011
   77.6150000000000         7.719322513050597E-011
   77.8050000000000         7.730898453511538E-011
   77.9950000000000         7.741874376352952E-011
   78.1850000000000         7.752675419834777E-011
   78.3750000000000         7.763289198708406E-011
   78.5650000000000         7.773266200986343E-011
   78.7550000000000         7.781757236147465E-011
   78.9450000000000         7.789582836345800E-011
   79.1350000000000         7.797263180473457E-011
   79.3250000000000         7.804465160973939E-011
   79.5150000000000         7.811546025396810E-011
   79.7050000000000         7.818674604616645E-011
   79.8950000000000         7.827151597108240E-011
   80.0850000000000         7.836590273540418E-011
   80.2750000000000         7.848217429551153E-011
   80.4650000000000         7.864520420954528E-011
   80.6550000000000         7.882660177261154E-011
   80.8450000000000         7.901809613769621E-011
   81.0350000000000         7.923828557854363E-011
   81.2250000000000         7.947325079108838E-011
   81.4150000000000         7.973382759636032E-011
   81.6050000000000         7.999818586371531E-011
   81.7950000000000         8.026988734922077E-011
   81.9850000000000         8.057823529962772E-011
   82.1750000000000         8.089071219741707E-011
   82.3650000000000         8.120193093705459E-011
   82.5550000000000         8.151567890376621E-011
   82.7450000000000         8.182628362202343E-011
   82.9350000000000         8.212639707255606E-011
   83.1250000000000         8.242145515923450E-011
   83.3150000000000         8.272504241698184E-011
   83.5050000000000         8.303462677719601E-011
   83.6950000000000         8.333787966819350E-011
   83.8850000000000         8.363820169373119E-011
   84.0750000000000         8.393999485307356E-011
   84.2650000000000         8.424351151044507E-011
   84.4550000000000         8.455221663321820E-011
   84.6450000000000         8.486444047180880E-011
   84.8350000000000         8.517881979316382E-011
   85.0250000000000         8.549466749707140E-011
   85.2150000000000         8.581018614859618E-011
   85.4050000000000         8.611918948894632E-011
   85.5950000000000         8.641660927249962E-011
   85.7850000000000         8.670354628632025E-011
   85.9750000000000         8.697809954106911E-011
   86.1650000000000         8.723336767935472E-011
   86.3550000000000         8.746656629644397E-011
   86.5450000000000         8.767596345846809E-011
   86.7350000000000         8.785797130627394E-011
   86.9250000000000         8.800225383118507E-011
   87.1150000000000         8.810538996790510E-011
   87.3050000000000         8.818594876818198E-011
   87.4950000000000         8.825910807688970E-011
   87.6850000000000         8.832232848992778E-011
   87.8750000000000         8.838259701262432E-011
   88.0650000000000         8.844430052562201E-011
   88.2550000000000         8.850478763258408E-011
   88.4450000000000         8.856782377084947E-011
   88.6350000000000         8.863498109651839E-011
   88.8250000000000         8.870904024411718E-011
   89.0150000000000         8.879653017000771E-011
   89.2050000000000         8.889206253932383E-011
   89.3950000000000         8.899950295099467E-011
   89.5850000000000         8.912528177654307E-011
   89.7750000000000         8.926588963725458E-011
   89.9650000000000         8.942648066329393E-011
   90.1550000000000         8.961106284272878E-011
   90.3450000000000         8.983904563446359E-011
   90.5350000000000         9.010865061525889E-011
   90.7250000000000         9.040236900588253E-011
   90.9150000000000         9.071820917189814E-011
   91.1050000000000         9.104717335373196E-011
   91.2950000000000         9.138955596868271E-011
   91.4850000000000         9.174583476946440E-011
   91.6750000000000         9.211260433801606E-011
   91.8650000000000         9.248268257599976E-011
   92.0550000000000         9.284592673126316E-011
   92.2450000000000         9.320609817435268E-011
   92.4350000000000         9.356554951835656E-011
   92.6250000000000         9.392126075675509E-011
   92.8150000000000         9.427214608083747E-011
   93.0050000000000         9.461059488631253E-011
   93.1950000000000         9.493064357856540E-011
   93.3850000000000         9.523482726629081E-011
   93.5750000000000         9.552643003056397E-011
   93.7650000000000         9.582124119309161E-011
   93.9550000000000         9.609444667604774E-011
   94.1450000000000         9.633308811924451E-011
   94.3350000000000         9.655826262832902E-011
   94.5250000000000         9.675418578847336E-011
   94.7150000000000         9.690850679810317E-011
   94.9050000000000         9.703127192140053E-011
   95.0950000000000         9.713846229273080E-011
   95.2850000000000         9.723519675105334E-011
   95.4750000000000         9.732611320752829E-011
   95.6650000000000         9.740393630520263E-011
   95.8550000000000         9.747070786153775E-011
   96.0450000000000         9.753891918022531E-011
   96.2350000000000         9.759865735319893E-011
   96.4250000000000         9.764476473384294E-011
   96.6150000000000         9.768128635529263E-011
   96.8050000000000         9.771347257226525E-011
   96.9950000000000         9.774549502161013E-011
   97.1850000000000         9.778530367794269E-011
   97.3750000000000         9.784169777467210E-011
   97.5650000000000         9.791603265927574E-011
   97.7550000000000         9.800790089291317E-011
   97.9450000000000         9.811967898320660E-011
   98.1350000000000         9.825710891051905E-011
   98.3250000000000         9.842389444121410E-011
   98.5150000000000         9.861242784064062E-011
   98.7050000000000         9.881651334518244E-011
   98.8950000000000         9.903755523053083E-011
   99.0850000000000         9.927003336043322E-011
   99.2750000000000         9.950849952623247E-011
   99.4650000000000         9.975402450979635E-011
   99.6550000000000         1.000096111971219E-010
   99.8450000000000         1.002680058368101E-010
   100.035000000000         1.005228795234627E-010
   100.225000000000         1.007753626933159E-010
   100.415000000000         1.010280558266799E-010
   100.605000000000         1.012834429388020E-010
   100.795000000000         1.015517166080031E-010
   100.985000000000         1.018312413363887E-010
   101.175000000000         1.020992239967743E-010
   101.365000000000         1.023467099141184E-010
   101.555000000000         1.025853339854263E-010
   101.745000000000         1.028233123529689E-010
   101.935000000000         1.030612288200494E-010
   102.125000000000         1.033040598991812E-010
   102.315000000000         1.035660222742824E-010
   102.505000000000         1.038328928008480E-010
   102.695000000000         1.040891086704623E-010
   102.885000000000         1.043508638867442E-010
   103.075000000000         1.046173626003363E-010
   103.265000000000         1.048847225991967E-010
   103.455000000000         1.051564058673116E-010
   103.645000000000         1.054061328239209E-010
   103.835000000000         1.056261449154169E-010
   104.025000000000         1.058351176108997E-010
   104.215000000000         1.060424528943680E-010
   104.405000000000         1.062534967299674E-010
   104.595000000000         1.064612416179278E-010
   104.785000000000         1.066666514495905E-010
   104.975000000000         1.068699497250574E-010
   105.165000000000         1.070707583433131E-010
   105.355000000000         1.072735203126506E-010
   105.545000000000         1.074779213196128E-010
   105.735000000000         1.076772925160349E-010
   105.925000000000         1.078721751404261E-010
   106.115000000000         1.080642672232365E-010
   106.305000000000         1.082491609256633E-010
   106.495000000000         1.084304104928590E-010
   106.685000000000         1.086070950625443E-010
   106.875000000000         1.087728836344725E-010
   107.065000000000         1.089291184824128E-010
   107.255000000000         1.090810565631433E-010
   107.445000000000         1.092366430219930E-010
   107.635000000000         1.093983935702034E-010
   107.825000000000         1.095613315765200E-010
   108.015000000000         1.097187866952843E-010
   108.205000000000         1.098685503472875E-010
   108.395000000000         1.100141766328547E-010
   108.585000000000         1.101679269612343E-010
   108.775000000000         1.103368568602567E-010
   108.965000000000         1.105176065068678E-010
   109.155000000000         1.107038305149594E-010
   109.345000000000         1.108911425323165E-010
   109.535000000000         1.110790290853774E-010
   109.725000000000         1.112689879621412E-010
   109.915000000000         1.114670552188309E-010
   110.105000000000         1.116769162449004E-010