  -1.42500000000000         0.000000000000000E+000
  -1.23500000000000         1.650665316303969E-010
  -1.04500000000000         1.126314311405232E-009
 -0.855000000000000         5.347669246915195E-009
 -0.665000000000000         2.030919183516197E-008
 -0.475000000000000         6.430189742905672E-008
 -0.285000000000000         1.733486422327715E-007
 -9.499999999999975E-002    4.026170894029166E-007
  9.500000000000020E-002    8.174277353163545E-007
  0.285000000000000         1.471655037840471E-006
  0.475000000000000         2.343151199923334E-006
  0.665000000000000         3.364178253872358E-006
  0.855000000000000         4.456990565341788E-006
   1.04500000000000         5.595914813679566E-006
   1.23500000000000         6.598041550466433E-006
   1.42500000000000         7.324535548857828E-006
   1.61500000000000         8.346366325550031E-006
   1.80500000000000         9.369682249707319E-006
   1.99500000000000         1.020540638257683E-005
   2.18500000000000         1.098048162998008E-005
   2.37500000000000         1.162137890348174E-005
   2.56500000000000         1.209683820192783E-005
   2.75500000000000         1.245886090976001E-005
   2.94500000000000         1.270679760480716E-005
   3.13500000000000         1.281148517571240E-005
   3.32500000000000         1.287755065985191E-005
   3.51500000000000         1.292634253466858E-005
   3.70500000000000         1.292048625641629E-005
   3.89500000000000         1.289003664282210E-005
   4.08500000000000         1.284683494089610E-005
   4.27500000000000         1.277781599689997E-005
   4.46500000000000         1.263852609844120E-005
   4.65500000000000         1.241955631810949E-005
   4.84500000000000         1.216245735452705E-005
   5.03500000000000         1.193563688387213E-005
   5.22500000000000         1.186484015266166E-005
   5.41500000000000         1.161090182709650E-005
   5.60500000000000         1.117490281923034E-005
   5.79500000000000         1.050865519009803E-005
   5.98500000000000         9.655878770594478E-006
   6.17500000000000         8.707240977813948E-006
   6.36500000000000         7.725134644909149E-006
   6.55500000000000         6.992557753201279E-006
   6.74500000000000         6.458138560719150E-006
   6.93500000000000         6.059578759911781E-006
   7.12500000000000         5.945032642400154E-006
   7.31500000000000         6.139703867795398E-006
   7.50500000000000         6.592754654519697E-006
   7.69500000000000         7.240401499897325E-006
   7.88500000000000         7.980985704985184E-006
   8.07500000000000         8.875308476541571E-006
   8.26500000000000         9.542235543055292E-006
   8.45500000000000         1.024781704490490E-005
   8.64500000000000         1.098188948244368E-005
   8.83500000000000         1.152270544355499E-005
   9.02500000000000         1.207391386538974E-005
   9.21500000000000         1.191531661157458E-005
   9.40500000000000         1.133264336196743E-005
   9.59500000000000         1.052092450357385E-005
   9.78500000000000         9.776301430404980E-006
   9.97500000000000         8.997916524054715E-006
   10.1650000000000         8.409249750758994E-006
   10.3550000000000         7.928961115207565E-006
   10.5450000000000         7.506280634853220E-006
   10.7350000000000         7.406769016979901E-006
   10.9250000000000         7.337828127245730E-006
   11.1150000000000         7.232741738009350E-006
   11.3050000000000         7.089607464925094E-006
   11.4950000000000         6.982216057002536E-006
   11.6850000000000         7.017621612470553E-006
   11.8750000000000         7.213896295261279E-006
   12.0650000000000         7.511731055097008E-006
   12.2550000000000         7.842978626637682E-006
   12.4450000000000         8.235138385945276E-006
   12.6350000000000         8.300939636885852E-006
   12.8250000000000         8.532456959330015E-006
   13.0150000000000         8.567702677271034E-006
   13.2050000000000         8.447172244511848E-006
   13.3950000000000         8.000182731275875E-006
   13.5850000000000         7.288995232945697E-006
   13.7750000000000         6.577669415385189E-006
   13.9650000000000         5.958496294312687E-006
   14.1550000000000         5.841268017727192E-006
   14.3450000000000         5.377871638060374E-006
   14.5350000000000         5.256328541288005E-006
   14.7250000000000         5.087591013157228E-006
   14.9150000000000         5.088224106595213E-006
   15.1050000000000         5.525300616551550E-006
   15.2950000000000         6.245366041893778E-006
   15.4850000000000         7.097536272320541E-006
   15.6750000000000         7.835752587705005E-006
   15.8650000000000         8.599671749198449E-006
   16.0550000000000         9.423706880578158E-006
   16.2450000000000         1.009803331406650E-005
   16.4350000000000         1.062308566154021E-005
   16.6250000000000         1.105560920771877E-005
   16.8150000000000         1.145853324885040E-005
   17.0050000000000         1.155561338710324E-005
   17.1950000000000         1.184822180699101E-005
   17.3850000000000         1.194212403699622E-005
   17.5750000000000         1.218576068434226E-005
   17.7650000000000         1.226027622162850E-005
   17.9550000000000         1.234481067322313E-005
   18.1450000000000         1.240387839062872E-005
   18.3350000000000         1.245540713707482E-005
   18.5250000000000         1.250581791335203E-005
   18.7150000000000         1.255504457975029E-005
   18.9050000000000         1.253663642293667E-005
   19.0950000000000         1.244537294446753E-005
   19.2850000000000         1.223819063527568E-005
   19.4750000000000         1.187864233459337E-005
   19.6650000000000         1.138051943867732E-005
   19.8550000000000         1.069497069400555E-005
   20.0450000000000         9.939918840999471E-006
   20.2350000000000         9.187388444787167E-006
   20.4250000000000         8.413748737780103E-006
   20.6150000000000         7.541036266888557E-006
   20.8050000000000         6.718789389105314E-006
   20.9950000000000         6.014809614133482E-006
   21.1850000000000         5.884343496799977E-006
   21.3750000000000         5.205808115076375E-006
   21.5650000000000         5.111130950095057E-006
   21.7550000000000         4.927009227509839E-006
   21.9450000000000         4.771401045360529E-006
   22.1350000000000         4.871208121057050E-006
   22.3250000000000         5.436229535567509E-006
   22.5150000000000         6.302386667771822E-006
   22.7050000000000         7.329932296325791E-006
   22.8950000000000         8.455775347324460E-006
   23.0850000000000         9.600671670772745E-006
   23.2750000000000         1.070963167578946E-005
   23.4650000000000         1.165671444297839E-005
   23.6550000000000         1.279303285655577E-005
   23.8450000000000         1.390571036483257E-005
   24.0350000000000         1.482601985165421E-005
   24.2250000000000         1.564370833539366E-005
   24.4150000000000         1.629084035087329E-005
   24.6050000000000         1.678249372754045E-005
   24.7950000000000         1.691667004627579E-005
   24.9850000000000         1.690318872756266E-005
   25.1750000000000         1.666570212910565E-005
   25.3650000000000         1.623459243424818E-005
   25.5550000000000         1.576976881697124E-005
   25.7450000000000         1.491168349337731E-005
   25.9350000000000         1.405434903341400E-005
   26.1250000000000         1.345446194773580E-005
   26.3150000000000         1.295286673276797E-005
   26.5050000000000         1.239803033402951E-005
   26.6950000000000         1.192535681138102E-005
   26.8850000000000         1.150223272420701E-005
   27.0750000000000         1.107984160840286E-005
   27.2650000000000         1.073413895470240E-005
   27.4550000000000         1.057082648150663E-005
   27.6450000000000         1.045358228415096E-005
   27.8350000000000         1.041797942881302E-005
   28.0250000000000         1.014751611286522E-005
   28.2150000000000         9.913364565140495E-006
   28.4050000000000         9.377845720015347E-006
   28.5950000000000         8.239530706671411E-006
   28.7850000000000         6.847870503962458E-006
   28.9750000000000         4.983223270576654E-006
   29.1650000000000         3.118513629113439E-006
   29.3550000000000         1.110070494409056E-006
   29.5450000000000        -8.240487119935941E-007
   29.7350000000000        -2.503735954833626E-006
   29.9250000000000        -3.996960372026260E-006
   30.1150000000000        -5.063768758199487E-006
   30.3050000000000        -5.734982025376533E-006
   30.4950000000000        -5.947581038189759E-006
   30.6850000000000        -6.023901198920063E-006
   30.8750000000000        -5.747243401097830E-006
   31.0650000000000        -4.176721734731411E-006
   31.2550000000000        -2.191462754432977E-006
   31.4450000000000         4.245695760717375E-008
   31.6350000000000         2.527504479871503E-006
   31.8250000000000         4.922583681174959E-006
   32.0150000000000         7.079059216472338E-006
   32.2050000000000         9.006062921566965E-006
   32.3950000000000         1.057442003682124E-005
   32.5850000000000         1.179811540507295E-005
   32.7750000000000         1.272336477937131E-005
   32.9650000000000         1.337416256408156E-005
   33.1550000000000         1.365737999647160E-005
   33.3450000000000         1.402120370117738E-005
   33.5350000000000         1.438974988106052E-005
   33.7250000000000         1.453443787628428E-005
   33.9150000000000         1.420708807042148E-005
   34.1050000000000         1.340567972402580E-005
   34.2950000000000         1.245330871479173E-005
   34.4850000000000         1.182214972481196E-005
   34.6750000000000         1.101173742812232E-005
   34.8650000000000         1.017014499479579E-005
   35.0550000000000         9.417651857791405E-006
   35.2450000000000         8.715753671933939E-006
   35.4350000000000         8.375160529795030E-006
   35.6250000000000         8.295020463220588E-006
   35.8150000000000         8.347645697329563E-006
   36.0050000000000         8.475084352008545E-006
   36.1950000000000         8.575956576258923E-006
   36.3850000000000         8.626945824985803E-006
   36.5750000000000         8.653165169987779E-006
   36.7650000000000         8.611682614877007E-006
   36.9550000000000         8.539232077104895E-006
   37.1450000000000         8.358662725476551E-006
   37.3350000000000         8.133098461010180E-006
   37.5250000000000         7.900745118415647E-006
   37.7150000000000         7.659762887440983E-006
   37.9050000000000         7.445022432511593E-006
   38.0950000000000         7.346380469050162E-006
   38.2850000000000         7.432697343330380E-006
   38.4750000000000         8.333027854096127E-006
   38.6650000000000         1.016078480614221E-005
   38.8550000000000         1.190442923839483E-005
   39.0450000000000         1.372488606926608E-005
   39.2350000000000         1.559766553359021E-005
   39.4250000000000         1.730390588217218E-005
   39.6150000000000         1.870022994813113E-005
   39.8050000000000         1.983232206609325E-005
   39.9950000000000         2.039274710254282E-005
   40.1850000000000         2.100176793233281E-005
   40.3750000000000         2.109006218592799E-005
   40.5650000000000         2.124775044262344E-005
   40.7550000000000         2.140827027632295E-005
   40.9450000000000         2.124709866863064E-005
   41.1350000000000         2.045963450405775E-005
   41.3250000000000         1.905115072894437E-005
   41.5150000000000         1.750561946515582E-005
   41.7050000000000         1.605135304374901E-005
   41.8950000000000         1.437009896289215E-005
   42.0850000000000         1.281902438362652E-005
   42.2750000000000         1.132214630730113E-005
   42.4650000000000         9.847258804060503E-006
   42.6550000000000         8.569926233534487E-006
   42.8450000000000         7.297108325102733E-006
   43.0350000000000         6.249274356381728E-006
   43.2250000000000         5.488267300114443E-006
   43.4150000000000         4.544077989086368E-006
   43.6050000000000         4.283803312130847E-006
   43.7950000000000         3.951082813751132E-006
   43.9850000000000         3.664260014276272E-006
   44.1750000000000         3.310589423037175E-006
   44.3650000000000         2.944633402314159E-006
   44.5550000000000         2.986186445846669E-006
   44.7450000000000         3.979765211236219E-006
   44.9350000000000         5.924281662818923E-006
   45.1250000000000         8.025271620636949E-006
   45.3150000000000         1.001326712243034E-005
   45.5050000000000         1.191195583481843E-005
   45.6950000000000         1.340086875410662E-005
   45.8850000000000         1.446965365573434E-005
   46.0750000000000         1.493731686328012E-005
   46.2650000000000         1.535060968507340E-005
   46.4550000000000         1.562060492444835E-005
   46.6450000000000         1.591873087416561E-005
   46.8350000000000         1.567780827546722E-005
   47.0250000000000         1.449442349567802E-005
   47.2150000000000         1.273115956098274E-005
   47.4050000000000         1.111661847921020E-005
   47.5950000000000         9.459996782979836E-006
   47.7850000000000         7.863076901621929E-006
   47.9750000000000         6.375591984137674E-006
   48.1650000000000         5.227255732656061E-006
   48.3550000000000         4.044852534847144E-006
   48.5450000000000         3.203234332233439E-006
   48.7350000000000         2.477285001562458E-006
   48.9250000000000         2.082685468199290E-006
   49.1150000000000         1.748616001340416E-006
   49.3050000000000         1.303170783562864E-006
   49.4950000000000         1.439975390978304E-006
   49.6850000000000         2.302033735072690E-006
   49.8750000000000         3.586754703935895E-006
   50.0650000000000         4.774904786243105E-006
   50.2550000000000         6.101152154341287E-006
   50.4450000000000         7.236590127778526E-006
   50.6350000000000         7.801444674439818E-006
   50.8250000000000         8.862813755411047E-006
   51.0150000000000         9.058250290158161E-006
   51.2050000000000         9.350225249413889E-006
   51.3950000000000         9.886886074961134E-006
   51.5850000000000         1.041524297412511E-005
   51.7750000000000         1.010213133938000E-005
   51.9650000000000         9.487929787839748E-006
   52.1550000000000         8.877344089655801E-006
   52.3450000000000         8.377728798686686E-006
   52.5350000000000         8.014296526262647E-006
   52.7250000000000         7.884946488501901E-006
   52.9150000000000         7.939543795837507E-006
   53.1050000000000         8.161863185938094E-006
   53.2950000000000         8.465625165747867E-006
   53.4850000000000         9.055975656098501E-006
   53.6750000000000         1.024322285288827E-005
   53.8650000000000         1.134693620189339E-005
   54.0550000000000         1.248141868155887E-005
   54.2450000000000         1.363520152887815E-005
   54.4350000000000         1.479356216737855E-005
   54.6250000000000         1.579295485178541E-005
   54.8150000000000         1.670085116780032E-005
   55.0050000000000         1.744658444319250E-005
   55.1950000000000         1.794435488009474E-005
   55.3850000000000         1.835998180753971E-005
   55.5750000000000         1.855746293838210E-005
   55.7650000000000         1.859597396311969E-005
   55.9550000000000         1.833500670871197E-005
   56.1450000000000         1.747305160772031E-005
   56.3350000000000         1.591172793880258E-005
   56.5250000000000         1.425534304458455E-005
   56.7150000000000         1.256363314679820E-005
   56.9050000000000         1.081987557690919E-005
   57.0950000000000         9.288368930136740E-006
   57.2850000000000         8.116831146487966E-006
   57.4750000000000         6.868930718898060E-006
   57.6650000000000         5.674825873370550E-006
   57.8550000000000         4.890847878035970E-006
   58.0450000000000         4.564061278860599E-006
   58.2350000000000         4.200669978322247E-006
   58.4250000000000         3.841183329590240E-006
   58.6150000000000         3.659717597598760E-006
   58.8050000000000         3.575337464417335E-006
   58.9950000000000         3.561617754620276E-006
   59.1850000000000         3.606955684021477E-006
   59.3750000000000         3.665945231796108E-006
   59.5650000000000         3.719649695386407E-006
   59.7550000000000         3.794477428292954E-006
   59.9450000000000         3.896060649605853E-006
   60.1350000000000         4.047767993818777E-006
   60.3250000000000         4.251459968935986E-006
   60.5150000000000         4.445538330616384E-006
   60.7050000000000         4.586383764205299E-006
   60.8950000000000         4.672129093349534E-006
   61.0850000000000         4.761395571233379E-006
   61.2750000000000         4.903194968431882E-006
   61.4650000000000         5.095223910867931E-006
   61.6550000000000         5.316534832689607E-006
   61.8450000000000         5.552492836427937E-006
   62.0350000000000         5.781218781138567E-006
   62.2250000000000         5.965108423984562E-006
   62.4150000000000         6.148855499282924E-006
   62.6050000000000         6.250369457675578E-006
   62.7950000000000         6.278794289172730E-006
   62.9850000000000         6.332352540541885E-006
   63.1750000000000         6.424330579615981E-006
   63.3650000000000         6.559346342164128E-006
   63.5550000000000         6.727817109277032E-006
   63.7450000000000         6.939605227628117E-006
   63.9350000000000         7.144860605337592E-006
   64.1250000000000         7.293940462639888E-006
   64.3150000000000         7.393530162384003E-006
   64.5050000000000         7.443678335339524E-006
   64.6950000000000         7.489778885776810E-006
   64.8850000000000         7.508710540348802E-006
   65.0750000000000         7.399927866670512E-006
   65.2650000000000         7.340936445734275E-006
   65.4550000000000         7.267277078006480E-006
   65.6450000000000         7.157403874669764E-006
   65.8350000000000         7.032658387868735E-006
   66.0250000000000         6.930710034836548E-006
   66.2150000000000         6.834199591363238E-006
   66.4050000000000         6.706413464700635E-006
   66.5950000000000         6.635893819421086E-006
   66.7850000000000         6.520446539515902E-006
   66.9750000000000         6.446317491022021E-006
   67.1650000000000         6.355513215339009E-006
   67.3550000000000         6.255019558721146E-006
   67.5450000000000         6.156371853061962E-006
   67.7350000000000         6.098532008111407E-006
   67.9250000000000         6.141602405632804E-006
   68.1150000000000         6.283230004330781E-006
   68.3050000000000         6.584870959282306E-006
   68.4950000000000         7.021080661756840E-006
   68.6850000000000         7.565344659538896E-006
   68.8750000000000         8.202424819951798E-006
   69.0650000000000         8.895726247527320E-006
   69.2550000000000         9.631204471225577E-006
   69.4450000000000         1.034120574547237E-005
   69.6350000000000         1.093378127107786E-005
   69.8250000000000         1.126289512879185E-005
   70.0150000000000         1.166259593847695E-005
   70.2050000000000         1.203660204899038E-005
   70.3950000000000         1.244027968570198E-005
   70.5850000000000         1.283055485164665E-005
   70.7750000000000         1.329552487902709E-005
   70.9650000000000         1.378217625551716E-005
   71.1550000000000         1.447006290728783E-005
   71.3450000000000         1.498361362372082E-005
   71.5350000000000         1.565056743147815E-005
   71.7250000000000         1.592541439483514E-005
   71.9150000000000         1.634003624436101E-005
   72.1050000000000         1.646872361404392E-005
   72.2950000000000         1.659849341549125E-005
   72.4850000000000         1.668140353219158E-005
   72.6750000000000         1.672850571431614E-005
   72.8650000000000         1.682223657217316E-005
   73.0550000000000         1.686518671976320E-005
   73.2450000000000         1.683411669342487E-005
   73.4350000000000         1.663294586143925E-005
   73.6250000000000         1.618102440694557E-005
   73.8150000000000         1.549180607510438E-005
   74.0050000000000         1.449377073456655E-005
   74.1950000000000         1.344940290536173E-005
   74.3850000000000         1.218482999524866E-005
   74.5750000000000         1.101449539856059E-005
   74.7650000000000         9.849884361023211E-006
   74.9550000000000         8.957781368141411E-006
   75.1450000000000         8.192493122809150E-006
   75.3350000000000         7.953038327915501E-006
   75.5250000000000         7.341646117544558E-006
   75.7150000000000         7.263829231971908E-006
   75.9050000000000         7.120623701902871E-006
   76.0950000000000         6.977284307989082E-006
   76.2850000000000         6.974816924358841E-006
   76.4750000000000         7.132030940780576E-006
   76.6650000000000         7.312414922953433E-006
   76.8550000000000         7.404625619629023E-006
   77.0450000000000         7.427080054837203E-006
   77.2350000000000         7.249185334852282E-006
   77.4250000000000         6.590338302617010E-006
   77.6150000000000         5.379531775050994E-006
   77.8050000000000         4.086953291428499E-006
   77.9950000000000         2.869084096796814E-006
   78.1850000000000         1.666168170783698E-006
   78.3750000000000         6.044424911071447E-007
   78.5650000000000        -2.089852477578518E-007
   78.7550000000000        -9.916614999168928E-007
   78.9450000000000        -1.214508120418937E-006
   79.1350000000000        -1.588193660483265E-006
   79.3250000000000        -1.771101891705035E-006
   79.5150000000000        -2.018449213560692E-006
   79.7050000000000        -2.225756817499787E-006
   79.8950000000000        -1.959526476141595E-006
   80.0850000000000        -9.341264120740944E-007
   80.2750000000000         7.752982300111521E-007
   80.4650000000000         2.748533115478772E-006
   80.6550000000000         4.795639450394069E-006
   80.8450000000000         6.870969937359685E-006
   81.0350000000000         9.010967209725446E-006
   81.2250000000000         1.094525004066403E-005
   81.4150000000000         1.265129693599840E-005
   81.6050000000000         1.420266363923447E-005
   81.7950000000000         1.504469812648816E-005
   81.9850000000000         1.597461607949364E-005
   82.1750000000000         1.640675596721431E-005
   82.3650000000000         1.697679425699630E-005
   82.5550000000000         1.744994823652832E-005
   82.7450000000000         1.713246332189035E-005
   82.9350000000000         1.635818412229159E-005
   83.1250000000000         1.551756247651283E-005
   83.3150000000000         1.476135622244422E-005
   83.5050000000000         1.408259707712695E-005
   83.6950000000000         1.366577945634289E-005
   83.8850000000000         1.293129870022795E-005
   84.0750000000000         1.274366030998463E-005
   84.2650000000000         1.256948681981968E-005
   84.4550000000000         1.248194708587096E-005
   84.6450000000000         1.239413686695001E-005
   84.8350000000000         1.230417277743180E-005
   85.0250000000000         1.213663648896578E-005
   85.2150000000000         1.194317526798851E-005
   85.4050000000000         1.172983553648774E-005
   85.5950000000000         1.153486119968529E-005
   85.7850000000000         1.150244289967985E-005
   85.9750000000000         1.150329672418376E-005
   86.1650000000000         1.144428752962240E-005
   86.3550000000000         1.129404404618956E-005
   86.5450000000000         1.103503829752663E-005
   86.7350000000000         1.067219664350434E-005
   86.9250000000000         1.023537471070602E-005
   87.1150000000000         9.767590185826112E-006
   87.3050000000000         9.277985431159208E-006
   87.4950000000000         8.819299055582918E-006
   87.6850000000000         8.450772918774109E-006
   87.8750000000000         8.259089027288544E-006
   88.0650000000000         8.077936200687329E-006
   88.2550000000000         7.995186259128666E-006
   88.4450000000000         7.928930741221283E-006
   88.6350000000000         7.885475563517494E-006
   88.8250000000000         7.873880285771264E-006
   89.0150000000000         7.981745737411197E-006
   89.2050000000000         8.267503654422512E-006
   89.3950000000000         8.451265822604908E-006
   89.5850000000000         8.395742688531959E-006
   89.7750000000000         8.426877606429967E-006
   89.9650000000000         8.514253105220924E-006
   90.1550000000000         8.656529894919892E-006
   90.3450000000000         8.855239161280219E-006
   90.5350000000000         9.142497342198034E-006
   90.7250000000000         9.472685083885407E-006
   90.9150000000000         9.846948607674652E-006
   91.1050000000000         1.020805459143244E-005
   91.2950000000000         1.053596785348077E-005
   91.4850000000000         1.080963670975258E-005
   91.6750000000000         1.095368735308119E-005
   91.8650000000000         1.092326242364772E-005
   92.0550000000000         1.077774426000163E-005
   92.2450000000000         1.060449984358528E-005
   92.4350000000000         1.043971047588109E-005
   92.6250000000000         1.020347801757129E-005
   92.8150000000000         9.939322255248064E-006
   93.0050000000000         9.569477939654471E-006
   93.1950000000000         8.939551228001709E-006
   93.3850000000000         8.184313651361931E-006
   93.5750000000000         7.583697860364145E-006
   93.7650000000000         7.279718167356421E-006
   93.9550000000000         7.095094709450835E-006
   94.1450000000000         6.985611719732537E-006
   94.3350000000000         6.919218479601307E-006
   94.5250000000000         6.873429744803951E-006
   94.7150000000000         6.841144271395832E-006
   94.9050000000000         6.861260113235342E-006
   95.0950000000000         6.921363221824837E-006
   95.2850000000000         6.925805713806932E-006
   95.4750000000000         6.966169315516324E-006
   95.6650000000000         6.916277263798246E-006
   95.8550000000000         6.920458658006509E-006
   96.0450000000000         6.907121153173872E-006
   96.2350000000000         6.813527703687967E-006
   96.4250000000000         6.582932529273795E-006
   96.6150000000000         6.226211489671083E-006
   96.8050000000000         5.770242171505015E-006
   96.9950000000000         5.314251927277011E-006
   97.1850000000000         4.951230211089137E-006
   97.3750000000000         4.746581421118653E-006
   97.5650000000000         4.661271508491704E-006
   97.7550000000000         4.721952426780453E-006
   97.9450000000000         4.980713532138114E-006
   98.1350000000000         5.512612915255907E-006
   98.3250000000000         6.232043877172267E-006
   98.5150000000000         7.033730838667800E-006
   98.7050000000000         7.812226674096945E-006
   98.8950000000000         8.476382175140552E-006
   99.0850000000000         8.982073315206197E-006
   99.2750000000000         9.361742910632540E-006
   99.4650000000000         9.404690575907355E-006
   99.6550000000000         9.048887106607663E-006
   99.8450000000000         8.285109889575383E-006
   100.035000000000         7.282677835930846E-006
   100.225000000000         6.054459006436838E-006
   100.415000000000         4.749536522358547E-006
   100.605000000000         3.371524592766850E-006
   100.795000000000         2.309787765167629E-006
   100.985000000000         1.293094043466449E-006
   101.175000000000         9.234931752900031E-007
   101.365000000000         3.665163622802539E-007
   101.555000000000         1.910055942114394E-007
   101.745000000000        -1.291391431175911E-007
   101.935000000000        -3.379919103139536E-007
   102.125000000000         5.752988924591609E-007
   102.315000000000         2.380880209805569E-006
   102.505000000000         4.222046917769060E-006
   102.695000000000         6.050387590690604E-006
   102.885000000000         7.827976088147852E-006
   103.075000000000         9.434928679278158E-006
   103.265000000000         1.068912666664486E-005
   103.455000000000         1.167150217773447E-005
   103.645000000000         1.222351209344464E-005
   103.835000000000         1.258190783032296E-005
   104.025000000000         1.283288083472748E-005
   104.215000000000         1.290249807488536E-005
   104.405000000000         1.294784684180125E-005
   104.595000000000         1.295573273543821E-005
   104.785000000000         1.286695399113976E-005
   104.975000000000         1.261732847325275E-005
   105.165000000000         1.224221923663876E-005
   105.355000000000         1.184279751469207E-005
   105.545000000000         1.144696650140962E-005
   105.735000000000         1.104717474173927E-005
   105.925000000000         1.068047171445086E-005
   106.115000000000         1.038724724056715E-005
   106.305000000000         1.000839794849222E-005
   106.495000000000         9.821559720755838E-006
   106.685000000000         9.442617417231990E-006
   106.875000000000         9.286358970431714E-006
   107.065000000000         8.995347760797204E-006
   107.255000000000         8.706919669804632E-006
   107.445000000000         8.437641785915777E-006
   107.635000000000         8.200205912425365E-006
   107.825000000000         8.008783335830432E-006
   108.015000000000         7.864542669837923E-006
   108.205000000000         7.738884140964803E-006
   108.395000000000         7.600043652586085E-006
   108.585000000000         7.471552885559573E-006
   108.775000000000         7.364804849381808E-006
   108.965000000000         7.251599504635075E-006
   109.155000000000         7.229968532803516E-006
   109.345000000000         7.125484739158632E-006
   109.535000000000         7.114267818294378E-006
   109.725000000000         7.085164626560029E-006
   109.915000000000         7.059280413766399E-006
   110.105000000000         7.031860269559360E-006