  -1.42500000000000         0.000000000000000E+000
  -1.23500000000000         1.796906172131397E-020
  -1.04500000000000         3.482736044303205E-019
 -0.855000000000000         2.489463239322734E-018
 -0.665000000000000         1.522744839999389E-017
 -0.475000000000000         6.449097436276186E-017
 -0.285000000000000         2.214487567905373E-016
 -9.499999999999975E-002    7.282395578878025E-016
  9.500000000000020E-002    1.898027095455050E-015
  0.285000000000000         4.876973184276841E-015
  0.475000000000000         1.121769935920249E-014
  0.665000000000000         2.263406827240507E-014
  0.855000000000000         4.118095471214269E-014
   1.04500000000000         7.390851779645205E-014
   1.23500000000000         1.248081320610583E-013
   1.42500000000000         1.965940082578654E-013
   1.61500000000000         2.960147672122169E-013
   1.80500000000000         4.289741881467368E-013
   1.99500000000000         6.019618355980324E-013
   2.18500000000000         8.140404598063270E-013
   2.37500000000000         1.070707884595198E-012
   2.56500000000000         1.375185225304760E-012
   2.75500000000000         1.728118716339482E-012
   2.94500000000000         2.133312594998226E-012
   3.13500000000000         2.592495961030527E-012
   3.32500000000000         3.106862267758916E-012
   3.51500000000000         3.677060243397356E-012
   3.70500000000000         4.303635829032723E-012
   3.89500000000000         4.986501754895856E-012
   4.08500000000000         5.725393858694739E-012
   4.27500000000000         6.519998145607358E-012
   4.46500000000000         7.369915814567561E-012
   4.65500000000000         8.273980056215389E-012
   4.84500000000000         9.230625197227446E-012
   5.03500000000000         1.023900159779511E-011
   5.22500000000000         1.129846392956615E-011
   5.41500000000000         1.240794297413282E-011
   5.60500000000000         1.356208336919557E-011
   5.79500000000000         1.476048847098158E-011
   5.98500000000000         1.599877266717616E-011
   6.17500000000000         1.726853494478002E-011
   6.36500000000000         1.856683888555667E-011
   6.55500000000000         1.988966499595389E-011
   6.74500000000000         2.123338111571399E-011
   6.93500000000000         2.259738802166032E-011
   7.12500000000000         2.397870076446731E-011
   7.31500000000000         2.538276421439927E-011
   7.50500000000000         2.680634351661491E-011
   7.69500000000000         2.824881291946219E-011
   7.88500000000000         2.970986019636084E-011
   8.07500000000000         3.118846747523479E-011
   8.26500000000000         3.268799859049796E-011
   8.45500000000000         3.421341228288708E-011
   8.64500000000000         3.576745494792942E-011
   8.83500000000000         3.735122622198628E-011
   9.02500000000000         3.896662171708394E-011
   9.21500000000000         4.061541861671194E-011
   9.40500000000000         4.229798220975733E-011
   9.59500000000000         4.401071852776662E-011
   9.78500000000000         4.575843554133629E-011
   9.97500000000000         4.753754527630756E-011
   10.1650000000000         4.935217360663041E-011
   10.3550000000000         5.120567765842566E-011
   10.5450000000000         5.309615252520240E-011
   10.7350000000000         5.502327734808866E-011
   10.9250000000000         5.698815320653640E-011
   11.1150000000000         5.899088077923585E-011
   11.3050000000000         6.103150587305926E-011
   11.4950000000000         6.311053357061716E-011
   11.6850000000000         6.522894683357607E-011
   11.8750000000000         6.738879889144158E-011
   12.0650000000000         6.959151787676477E-011
   12.2550000000000         7.183838451599687E-011
   12.4450000000000         7.412966384640076E-011
   12.6350000000000         7.646456504855326E-011
   12.8250000000000         7.884243765198258E-011
   13.0150000000000         8.125938453498302E-011
   13.2050000000000         8.371439984553487E-011
   13.3950000000000         8.620339438559584E-011
   13.5850000000000         8.872102902288441E-011
   13.7750000000000         9.126394110992826E-011
   13.9650000000000         9.382887145681333E-011
   14.1550000000000         9.641203415763517E-011
   14.3450000000000         9.901484203192623E-011
   14.5350000000000         1.016355761682118E-010
   14.7250000000000         1.042746074820274E-010
   14.9150000000000         1.069328397143498E-010
   15.1050000000000         1.096145295739910E-010
   15.2950000000000         1.123242295695174E-010
   15.4850000000000         1.150641804702155E-010
   15.6750000000000         1.178369828634636E-010
   15.8650000000000         1.206453422297901E-010
   16.0550000000000         1.234921584628999E-010
   16.2450000000000         1.263814924107825E-010
   16.4350000000000         1.293150638160957E-010
   16.6250000000000         1.322925958249923E-010
   16.8150000000000         1.353158570671119E-010
   17.0050000000000         1.383869831964376E-010
   17.1950000000000         1.415053569784111E-010
   17.3850000000000         1.446726227458588E-010
   17.5750000000000         1.478896837432868E-010
   17.7650000000000         1.511571736757595E-010
   17.9550000000000         1.544759307677738E-010
   18.1450000000000         1.578461027691679E-010
   18.3350000000000         1.612675827653374E-010
   18.5250000000000         1.647401472376769E-010
   18.7150000000000         1.682633997440229E-010
   18.9050000000000         1.718359727317025E-010
   19.0950000000000         1.754561995340204E-010
   19.2850000000000         1.791211627129743E-010
   19.4750000000000         1.828248432531936E-010
   19.6650000000000         1.865660342538867E-010
   19.8550000000000         1.903404903302195E-010
   20.0450000000000         1.941461033719862E-010
   20.2350000000000         1.979766870565940E-010
   20.4250000000000         2.018284636668834E-010
   20.6150000000000         2.056977749967518E-010
   20.8050000000000         2.095797050308650E-010
   20.9950000000000         2.134720951513156E-010
   21.1850000000000         2.173735802785197E-010
   21.3750000000000         2.212846021885876E-010
   21.5650000000000         2.252017493964905E-010
   21.7550000000000         2.291248404841519E-010
   21.9450000000000         2.330535493544674E-010
   22.1350000000000         2.369886456086435E-010
   22.3250000000000         2.409334282916282E-010
   22.5150000000000         2.448898130065826E-010
   22.7050000000000         2.488595906672770E-010
   22.8950000000000         2.528438417186910E-010
   23.0850000000000         2.568475936855392E-010
   23.2750000000000         2.608764649531017E-010
   23.4650000000000         2.649324169453707E-010
   23.6550000000000         2.690275894472980E-010
   23.8450000000000         2.731641893347215E-010
   24.0350000000000         2.773463937891834E-010
   24.2250000000000         2.815793042582747E-010
   24.4150000000000         2.858652416596747E-010
   24.6050000000000         2.902077352940428E-010
   24.7950000000000         2.946072090672115E-010
   24.9850000000000         2.990680673327772E-010
   25.1750000000000         3.035934502532898E-010
   25.3650000000000         3.081796627082934E-010
   25.5550000000000         3.128253062009913E-010
   25.7450000000000         3.175296567588860E-010
   25.9350000000000         3.222901149798305E-010
   26.1250000000000         3.271066269063176E-010
   26.3150000000000         3.319752704826064E-010
   26.5050000000000         3.368966227195187E-010
   26.6950000000000         3.418686922510180E-010
   26.8850000000000         3.468904632581083E-010
   27.0750000000000         3.519596700510324E-010
   27.2650000000000         3.570726140307609E-010
   27.4550000000000         3.622294260918308E-010
   27.6450000000000         3.674276707117667E-010
   27.8350000000000         3.726647314585375E-010
   28.0250000000000         3.779401012924824E-010
   28.2150000000000         3.832469707618375E-010
   28.4050000000000         3.885837728400151E-010
   28.5950000000000         3.939460554259284E-010
   28.7850000000000         3.993293552986612E-010
   28.9750000000000         4.047308575910203E-010
   29.1650000000000         4.101394675613015E-010
   29.3550000000000         4.155525845893713E-010
   29.5450000000000         4.209715296884482E-010
   29.7350000000000         4.263930315027734E-010
   29.9250000000000         4.318141117316611E-010
   30.1150000000000         4.372337315577415E-010
   30.3050000000000         4.426506248478889E-010
   30.4950000000000         4.480634562300900E-010
   30.6850000000000         4.534760847289972E-010
   30.8750000000000         4.588899973632815E-010
   31.0650000000000         4.643075122920117E-010
   31.2550000000000         4.697369195772207E-010
   31.4450000000000         4.751804147931337E-010
   31.6350000000000         4.806435222355703E-010
   31.8250000000000         4.861319583085648E-010
   32.0150000000000         4.916514096946197E-010
   32.2050000000000         4.972103219747485E-010
   32.3950000000000         5.028209306038525E-010
   32.5850000000000         5.084907804424153E-010
   32.7750000000000         5.142193067693816E-010
   32.9650000000000         5.200148766739022E-010
   33.1550000000000         5.258775774168895E-010
   33.3450000000000         5.318059941467178E-010
   33.5350000000000         5.378007396323200E-010
   33.7250000000000         5.438618603346225E-010
   33.9150000000000         5.499858403275387E-010
   34.1050000000000         5.561680664529128E-010
   34.2950000000000         5.624035444555614E-010
   34.4850000000000         5.686879435894684E-010
   34.6750000000000         5.750154448564378E-010
   34.8650000000000         5.813834176069338E-010
   35.0550000000000         5.877896129633003E-010
   35.2450000000000         5.942332698221236E-010
   35.4350000000000         6.007102745634775E-010
   35.6250000000000         6.072199972497303E-010
   35.8150000000000         6.137609820632423E-010
   36.0050000000000         6.203319591417212E-010
   36.1950000000000         6.269320411264339E-010
   36.3850000000000         6.335620435047724E-010
   36.5750000000000         6.402212409141032E-010
   36.7650000000000         6.469053140054012E-010
   36.9550000000000         6.536139336264299E-010
   37.1450000000000         6.603447240280415E-010
   37.3350000000000         6.670954385672998E-010
   37.5250000000000         6.738648679181470E-010
   37.7150000000000         6.806519980137269E-010
   37.9050000000000         6.874559346844679E-010
   38.0950000000000         6.942764160135738E-010
   38.2850000000000         7.011134899159090E-010
   38.4750000000000         7.079717297518977E-010
   38.6650000000000         7.148516731337128E-010
   38.8550000000000         7.217625010579201E-010
   39.0450000000000         7.287038472202975E-010
   39.2350000000000         7.356788697319462E-010
   39.4250000000000         7.426952048179729E-010
   39.6150000000000         7.497612354977003E-010
   39.8050000000000         7.568833020776382E-010
   39.9950000000000         7.640656925857068E-010
   40.1850000000000         7.713083369570820E-010
   40.3750000000000         7.786113649457232E-010
   40.5650000000000         7.859751547613485E-010
   40.7550000000000         7.934008348752407E-010
   40.9450000000000         8.008879823329255E-010
   41.1350000000000         8.084324293321760E-010
   41.3250000000000         8.160312486517219E-010
   41.5150000000000         8.236824946390086E-010
   41.7050000000000         8.313874548092599E-010
   41.8950000000000         8.391416804863925E-010
   42.0850000000000         8.469401021573867E-010
   42.2750000000000         8.547809191971198E-010
   42.4650000000000         8.626627166245149E-010
   42.6550000000000         8.705818583792815E-010
   42.8450000000000         8.785340860495491E-010
   43.0350000000000         8.865164154524755E-010
   43.2250000000000         8.945277665265092E-010
   43.4150000000000         9.025647600969860E-010
   43.6050000000000         9.106248063096173E-010
   43.7950000000000         9.187088489138354E-010
   43.9850000000000         9.268152628993814E-010
   44.1750000000000         9.349423400516348E-010
   44.3650000000000         9.430885638353318E-010
   44.5550000000000         9.512546726809295E-010
   44.7450000000000         9.594447243777052E-010
   44.9350000000000         9.676589698549203E-010
   45.1250000000000         9.759065860245999E-010
   45.3150000000000         9.841913301553640E-010
   45.5050000000000         9.925160489152821E-010
   45.6950000000000         1.000885477426263E-009
   45.8850000000000         1.009304804053990E-009
   46.0750000000000         1.017777780132066E-009
   46.2650000000000         1.026304575924275E-009
   46.4550000000000         1.034886531326253E-009
   46.6450000000000         1.043522440359756E-009
   46.8350000000000         1.052210547966202E-009
   47.0250000000000         1.060949297534049E-009
   47.2150000000000         1.069733860708892E-009
   47.4050000000000         1.078559656113982E-009
   47.5950000000000         1.087423406070013E-009
   47.7850000000000         1.096321770837762E-009
   47.9750000000000         1.105249825535442E-009
   48.1650000000000         1.114209669169666E-009
   48.3550000000000         1.123200710877574E-009
   48.5450000000000         1.132216939596850E-009
   48.7350000000000         1.141252671814807E-009
   48.9250000000000         1.150307752803768E-009
   49.1150000000000         1.159383265356047E-009
   49.3050000000000         1.168477838729230E-009
   49.4950000000000         1.177589643765644E-009
   49.6850000000000         1.186718437030079E-009
   49.8750000000000         1.195870055014643E-009
   50.0650000000000         1.205045565009898E-009
   50.2550000000000         1.214241527581020E-009
   50.4450000000000         1.223457354273576E-009
   50.6350000000000         1.232692912556340E-009
   50.8250000000000         1.241946878127868E-009
   51.0150000000000         1.251220243940228E-009
   51.2050000000000         1.260513281406034E-009
   51.3950000000000         1.269827246295085E-009
   51.5850000000000         1.279165512036503E-009
   51.7750000000000         1.288530792536639E-009
   51.9650000000000         1.297912740855824E-009
   52.1550000000000         1.307314266624444E-009
   52.3450000000000         1.316739192991169E-009
   52.5350000000000         1.326190791298767E-009
   52.7250000000000         1.335672292341883E-009
   52.9150000000000         1.345187755086756E-009
   53.1050000000000         1.354753175445190E-009
   53.2950000000000         1.364370856154364E-009
   53.4850000000000         1.374045028683314E-009
   53.6750000000000         1.383780719575913E-009
   53.8650000000000         1.393578502629896E-009
   54.0550000000000         1.403443321232197E-009
   54.2450000000000         1.413379196357661E-009
   54.4350000000000         1.423386289094065E-009
   54.6250000000000         1.433464765931993E-009
   54.8150000000000         1.443615745132914E-009
   55.0050000000000         1.453838671356447E-009
   55.1950000000000         1.464133106674588E-009
   55.3850000000000         1.474497757441175E-009
   55.5750000000000         1.484930011726532E-009
   55.7650000000000         1.495429301546267E-009
   55.9550000000000         1.505992796457349E-009
   56.1450000000000         1.516618170017402E-009
   56.3350000000000         1.527299739346149E-009
   56.5250000000000         1.538037047653268E-009
   56.7150000000000         1.548827607518401E-009
   56.9050000000000         1.559668203710888E-009
   57.0950000000000         1.570551737764544E-009
   57.2850000000000         1.581462082648203E-009
   57.4750000000000         1.592394455168347E-009
   57.6650000000000         1.603339439115705E-009
   57.8550000000000         1.614294239879434E-009
   58.0450000000000         1.625258698683741E-009
   58.2350000000000         1.636231897151484E-009
   58.4250000000000         1.647212984182287E-009
   58.6150000000000         1.658202118849168E-009
   58.8050000000000         1.669200576370904E-009
   58.9950000000000         1.680207855719574E-009
   59.1850000000000         1.691222590713860E-009
   59.3750000000000         1.702243734645541E-009
   59.5650000000000         1.713270987548471E-009
   59.7550000000000         1.724304332672167E-009
   59.9450000000000         1.735343951546268E-009
   60.1350000000000         1.746389920879041E-009
   60.3250000000000         1.757442210632456E-009
   60.5150000000000         1.768500547466361E-009
   60.7050000000000         1.779567641230744E-009
   60.8950000000000         1.790648248121427E-009
   61.0850000000000         1.801746551856494E-009
   61.2750000000000         1.812867932763943E-009
   61.4650000000000         1.824003608289556E-009
   61.6550000000000         1.835156595032101E-009
   61.8450000000000         1.846335182592910E-009
   62.0350000000000         1.857549827162998E-009
   62.2250000000000         1.868812886073864E-009
   62.4150000000000         1.880127704158947E-009
   62.6050000000000         1.891499608317343E-009
   62.7950000000000         1.902927617122439E-009
   62.9850000000000         1.914412876607535E-009
   63.1750000000000         1.925958544396397E-009
   63.3650000000000         1.937566616580123E-009
   63.5550000000000         1.949236626883424E-009
   63.7450000000000         1.960967702205494E-009
   63.9350000000000         1.972757476722552E-009
   64.1250000000000         1.984600446088074E-009
   64.3150000000000         1.996493651517235E-009
   64.5050000000000         2.008435802336224E-009
   64.6950000000000         2.020422930155873E-009
   64.8850000000000         2.032452688431519E-009
   65.0750000000000         2.044515482623115E-009
   65.2650000000000         2.056608533925333E-009
   65.4550000000000         2.068729976470014E-009
   65.6450000000000         2.080876829338157E-009
   65.8350000000000         2.093049071544871E-009
   66.0250000000000         2.105245822014208E-009
   66.2150000000000         2.117464511766234E-009
   66.4050000000000         2.129701804357481E-009
   66.5950000000000         2.141958442035557E-009
   66.7850000000000         2.154234283185183E-009
   66.9750000000000         2.166528082927766E-009
   67.1650000000000         2.178837539866262E-009
   67.3550000000000         2.191161567185698E-009
   67.5450000000000         2.203499575088372E-009
   67.7350000000000         2.215852114661794E-009
   67.9250000000000         2.228223071914913E-009
   68.1150000000000         2.240613154158191E-009
   68.3050000000000         2.253025234592843E-009
   68.4950000000000         2.265465079849812E-009
   68.6850000000000         2.277937994878974E-009
   68.8750000000000         2.290448831834976E-009
   69.0650000000000         2.303002872449958E-009
   69.2550000000000         2.315605217608704E-009
   69.4450000000000         2.328257810231458E-009
   69.6350000000000         2.340960769594240E-009
   69.8250000000000         2.353713353283163E-009
   70.0150000000000         2.366516048117372E-009
   70.2050000000000         2.379368793842631E-009
   70.3950000000000         2.392272975669635E-009
   70.5850000000000         2.405228550648281E-009
   70.7750000000000         2.418234974511500E-009
   70.9650000000000         2.431291781155841E-009
   71.1550000000000         2.444400449183180E-009
   71.3450000000000         2.457563035360920E-009
   71.5350000000000         2.470782164075127E-009
   71.7250000000000         2.484058707069666E-009
   71.9150000000000         2.497393600632893E-009
   72.1050000000000         2.510785474039823E-009
   72.2950000000000         2.524234830049859E-009
   72.4850000000000         2.537742567839034E-009
   72.6750000000000         2.551309254996868E-009
   72.8650000000000         2.564935045854239E-009
   73.0550000000000         2.578619049459604E-009
   73.2450000000000         2.592359903957623E-009
   73.4350000000000         2.606155938681435E-009
   73.6250000000000         2.620004965066480E-009
   73.8150000000000         2.633903650544639E-009
   74.0050000000000         2.647851731560252E-009
   74.1950000000000         2.661847293820026E-009
   74.3850000000000         2.675889941779910E-009
   74.5750000000000         2.689972935230527E-009
   74.7650000000000         2.704095372921023E-009
   74.9550000000000         2.718256434714187E-009
   75.1450000000000         2.732458907168456E-009
   75.3350000000000         2.746700085252162E-009
   75.5250000000000         2.760978664087686E-009
   75.7150000000000         2.775292137033558E-009
   75.9050000000000         2.789643575713544E-009
   76.0950000000000         2.804033868660249E-009
   76.2850000000000         2.818462224936211E-009
   76.4750000000000         2.832928561229814E-009
   76.6650000000000         2.847431818555819E-009
   76.8550000000000         2.861969985604452E-009
   77.0450000000000         2.876541766831520E-009
   77.2350000000000         2.891145383585349E-009
   77.4250000000000         2.905777217784471E-009
   77.6150000000000         2.920432465014764E-009
   77.8050000000000         2.935110643334063E-009
   77.9950000000000         2.949809879138109E-009
   78.1850000000000         2.964529765964204E-009
   78.3750000000000         2.979270045733480E-009
   78.5650000000000         2.994030264919296E-009
   78.7550000000000         3.008808457297227E-009
   78.9450000000000         3.023600942416655E-009
   79.1350000000000         3.038408872075343E-009
   79.3250000000000         3.053230542502456E-009
   79.5150000000000         3.068065839687043E-009
   79.7050000000000         3.082914417398962E-009
   79.8950000000000         3.097776803184586E-009
   80.0850000000000         3.112657593467974E-009
   80.2750000000000         3.127555846224040E-009
   80.4650000000000         3.142480819700270E-009
   80.6550000000000         3.157441023823667E-009
   80.8450000000000         3.172434928373862E-009
   81.0350000000000         3.187467900355992E-009
   81.2250000000000         3.202545476893708E-009
   81.4150000000000         3.217667735656605E-009
   81.6050000000000         3.232844331380325E-009
   81.7950000000000         3.248067046284817E-009
   81.9850000000000         3.263346888573029E-009
   82.1750000000000         3.278686775698676E-009
   82.3650000000000         3.294085359208047E-009
   82.5550000000000         3.309543509454758E-009
   82.7450000000000         3.325061317191478E-009
   82.9350000000000         3.340637497231125E-009
   83.1250000000000         3.356269348079049E-009
   83.3150000000000         3.371957650191635E-009
   83.5050000000000         3.387704864197502E-009
   83.6950000000000         3.403510808366968E-009
   83.8850000000000         3.419373258471416E-009
   84.0750000000000         3.435293325010586E-009
   84.2650000000000         3.451270456515584E-009
   84.4550000000000         3.467305859384556E-009
   84.6450000000000         3.483400298836207E-009
   84.8350000000000         3.499554346763844E-009
   85.0250000000000         3.515768250357608E-009
   85.2150000000000         3.532042320412731E-009
   85.4050000000000         3.548376121094075E-009
   85.5950000000000         3.564767612418530E-009
   85.7850000000000         3.581214432617625E-009
   85.9750000000000         3.597714960007331E-009
   86.1650000000000         3.614266110443230E-009
   86.3550000000000         3.630863639725485E-009
   86.5450000000000         3.647503405635880E-009
   86.7350000000000         3.664180505839703E-009
   86.9250000000000         3.680889434732264E-009
   87.1150000000000         3.697621362295555E-009
   87.3050000000000         3.714369482920068E-009
   87.4950000000000         3.731132022827463E-009
   87.6850000000000         3.747907943989286E-009
   87.8750000000000         3.764694507653635E-009
   88.0650000000000         3.781493330854084E-009
   88.2550000000000         3.798303341853373E-009
   88.4450000000000         3.815125150154467E-009
   88.6350000000000         3.831959114886296E-009
   88.8250000000000         3.848806442971144E-009
   89.0150000000000         3.865668550179061E-009
   89.2050000000000         3.882549124435746E-009
   89.3950000000000         3.899447533944003E-009
   89.5850000000000         3.916368935557123E-009
   89.7750000000000         3.933315141019090E-009
   89.9650000000000         3.950289973619280E-009
   90.1550000000000         3.967297203671141E-009
   90.3450000000000         3.984342177499518E-009
   90.5350000000000         4.001436041012237E-009
   90.7250000000000         4.018583464733314E-009
   90.9150000000000         4.035788941234472E-009
   91.1050000000000         4.053056384218636E-009
   91.2950000000000         4.070386867108890E-009
   91.4850000000000         4.087784415486736E-009
   91.6750000000000         4.105250284321287E-009
   91.8650000000000         4.122787205135183E-009
   92.0550000000000         4.140393703700167E-009
   92.2450000000000         4.158068657293061E-009
   92.4350000000000         4.175812021006420E-009
   92.6250000000000         4.193623566110037E-009
   92.8150000000000         4.211502100093987E-009
   93.0050000000000         4.229446981620754E-009
   93.1950000000000         4.247454126150785E-009
   93.3850000000000         4.265520626180609E-009
   93.5750000000000         4.283643360511975E-009
   93.7650000000000         4.301820669592222E-009
   93.9550000000000         4.320055432165351E-009
   94.1450000000000         4.338336559329122E-009
   94.3350000000000         4.356662005650663E-009
   94.5250000000000         4.375028699127886E-009
   94.7150000000000         4.393428596250283E-009
   94.9050000000000         4.411853931711166E-009
   95.0950000000000         4.430300479580416E-009
   95.2850000000000         4.448766547382404E-009
   95.4750000000000         4.467249854345816E-009
   95.6650000000000         4.485750470401266E-009
   95.8550000000000         4.504263350141794E-009
   96.0450000000000         4.522789339388651E-009
   96.2350000000000         4.541328139430279E-009
   96.4250000000000         4.559876829182866E-009
   96.6150000000000         4.578433150029140E-009
   96.8050000000000         4.596995717997877E-009
   96.9950000000000         4.615564269606600E-009
   97.1850000000000         4.634139006106088E-009
   97.3750000000000         4.652722685004217E-009
   97.5650000000000         4.671318851260464E-009
   97.7550000000000         4.689930777414742E-009
   97.9450000000000         4.708561853599771E-009
   98.1350000000000         4.727216255428362E-009
   98.3250000000000         4.745899554985767E-009
   98.5150000000000         4.764617335316022E-009
   98.7050000000000         4.783372277565212E-009
   98.8950000000000         4.802167610387194E-009
   99.0850000000000         4.821006548552813E-009
   99.2750000000000         4.839890223064158E-009
   99.4650000000000         4.858819778372782E-009
   99.6550000000000         4.877796752377879E-009
   99.8450000000000         4.896823430627689E-009
   100.035000000000         4.915898594595868E-009
   100.225000000000         4.935022124846604E-009
   100.415000000000         4.954193232419328E-009
   100.605000000000         4.973412786060744E-009
   100.795000000000         4.992680940736072E-009
   100.985000000000         5.012002438371784E-009
   101.175000000000         5.031376812443900E-009
   101.365000000000         5.050800143490558E-009
   101.555000000000         5.070268562211264E-009
   101.745000000000         5.089782570405020E-009
   101.935000000000         5.109341420905394E-009
   102.125000000000         5.128945837356638E-009
   102.315000000000         5.148596963667083E-009
   102.505000000000         5.168300925820866E-009
   102.695000000000         5.188053462931405E-009
   102.885000000000         5.207854787115641E-009
   103.075000000000         5.227706791208369E-009
   103.265000000000         5.247609384903771E-009
   103.455000000000         5.267562985796063E-009
   103.645000000000         5.287568819133345E-009
   103.835000000000         5.307617316269149E-009
   104.025000000000         5.327706754201207E-009
   104.215000000000         5.347834660961296E-009
   104.405000000000         5.368002886301065E-009
   104.595000000000         5.388210989718682E-009
   104.785000000000         5.408458158115878E-009
   104.975000000000         5.428744317269528E-009
   105.165000000000         5.449068739011403E-009
   105.355000000000         5.469431205439987E-009
   105.545000000000         5.489832676730209E-009
   105.735000000000         5.510272815541439E-009
   105.925000000000         5.530750047886303E-009
   106.115000000000         5.551264242094802E-009
   106.305000000000         5.571814469431132E-009
   106.495000000000         5.592398923246554E-009
   106.685000000000         5.613018025418417E-009
   106.875000000000         5.633669619370319E-009
   107.065000000000         5.654351721199519E-009
   107.255000000000         5.675062684393638E-009
   107.445000000000         5.695802522693516E-009
   107.635000000000         5.716572608741999E-009
   107.825000000000         5.737373912250193E-009
   108.015000000000         5.758205914741076E-009
   108.205000000000         5.779067051194401E-009
   108.395000000000         5.799955963873045E-009
   108.585000000000         5.820872438314885E-009
   108.775000000000         5.841819776118313E-009
   108.965000000000         5.862800443921784E-009
   109.155000000000         5.883816466590923E-009
   109.345000000000         5.904867899517467E-009
   109.535000000000         5.925955100753203E-009
   109.725000000000         5.947077930569909E-009
   109.915000000000         5.968237316178815E-009
   110.105000000000         5.989435411553065E-009