  -1.42500000000000         1.628490020805607E-020
  -1.23500000000000        -4.501595762359182E-018
  -1.04500000000000        -3.068815312709568E-017
 -0.855000000000000        -1.679479521885383E-016
 -0.665000000000000        -7.628048946634476E-016
 -0.475000000000000        -2.825505328919902E-015
 -0.285000000000000        -8.705971394034010E-015
 -9.499999999999975E-002   -2.212061841611608E-014
  9.500000000000020E-002   -4.793497603881821E-014
  0.285000000000000        -9.570354689047875E-014
  0.475000000000000        -1.836624160339112E-013
  0.665000000000000        -3.246633851168588E-013
  0.855000000000000        -5.124676540591504E-013
   1.04500000000000        -7.444848416493521E-013
   1.23500000000000        -1.018251728759928E-012
   1.42500000000000        -1.315784538116572E-012
   1.61500000000000        -1.639801786507349E-012
   1.80500000000000        -1.996691132279465E-012
   1.99500000000000        -2.373988442604289E-012
   2.18500000000000        -2.762369295264949E-012
   2.37500000000000        -3.152900286826879E-012
   2.56500000000000        -3.536543288586970E-012
   2.75500000000000        -3.909783741093796E-012
   2.94500000000000        -4.270940496290404E-012
   3.13500000000000        -4.616648139645340E-012
   3.32500000000000        -4.951140976364720E-012
   3.51500000000000        -5.276921855418464E-012
   3.70500000000000        -5.593203170138617E-012
   3.89500000000000        -5.901335833920159E-012
   4.08500000000000        -6.200928934829707E-012
   4.27500000000000        -6.491911489469125E-012
   4.46500000000000        -6.770972007878711E-012
   4.65500000000000        -7.034863379767792E-012
   4.84500000000000        -7.285842555847995E-012
   5.03500000000000        -7.530979554560099E-012
   5.22500000000000        -7.773831129623100E-012
   5.41500000000000        -8.012351709862257E-012
   5.60500000000000        -8.241011818846562E-012
   5.79500000000000        -8.452450477188362E-012
   5.98500000000000        -8.639737303348799E-012
   6.17500000000000        -8.801251934018895E-012
   6.36500000000000        -8.943531956114338E-012
   6.55500000000000        -9.070910022464965E-012
   6.74500000000000        -9.186716126346800E-012
   6.93500000000000        -9.304707073675564E-012
   7.12500000000000        -9.448232111376054E-012
   7.31500000000000        -9.626641875445079E-012
   7.50500000000000        -9.842556398433313E-012
   7.69500000000000        -1.010356018727387E-011
   7.88500000000000        -1.040758477140943E-011
   8.07500000000000        -1.075171171536840E-011
   8.26500000000000        -1.112734062400972E-011
   8.45500000000000        -1.153118424696151E-011
   8.64500000000000        -1.196297018644268E-011
   8.83500000000000        -1.240959756507762E-011
   9.02500000000000        -1.284794176475424E-011
   9.21500000000000        -1.324415695938568E-011
   9.40500000000000        -1.358745258408802E-011
   9.59500000000000        -1.387324666191548E-011
   9.78500000000000        -1.409960968097839E-011
   9.97500000000000        -1.427333718646800E-011
   10.1650000000000        -1.440493603445172E-011
   10.3550000000000        -1.451189266949394E-011
   10.5450000000000        -1.459574036181115E-011
   10.7350000000000        -1.466440128670320E-011
   10.9250000000000        -1.472954948490884E-011
   11.1150000000000        -1.479172030826785E-011
   11.3050000000000        -1.484977559144713E-011
   11.4950000000000        -1.490639548115359E-011
   11.6850000000000        -1.497125199832604E-011
   11.8750000000000        -1.505482357599879E-011
   12.0650000000000        -1.516215890107729E-011
   12.2550000000000        -1.529333537611023E-011
   12.4450000000000        -1.544702239578068E-011
   12.6350000000000        -1.561375058365963E-011
   12.8250000000000        -1.578659588808651E-011
   13.0150000000000        -1.596399623670153E-011
   13.2050000000000        -1.613746250297709E-011
   13.3950000000000        -1.629313685101273E-011
   13.5850000000000        -1.642209690224423E-011
   13.7750000000000        -1.652674007132152E-011
   13.9650000000000        -1.661112109105834E-011
   14.1550000000000        -1.668664966402327E-011
   14.3450000000000        -1.675719534803335E-011
   14.5350000000000        -1.682162557741535E-011
   14.7250000000000        -1.688542092683059E-011
   14.9150000000000        -1.696016921550071E-011
   15.1050000000000        -1.706520534598129E-011
   15.2950000000000        -1.720829897579053E-011
   15.4850000000000        -1.738467157697697E-011
   15.6750000000000        -1.758941147283380E-011
   15.8650000000000        -1.781960679174948E-011
   16.0550000000000        -1.807059309456150E-011
   16.2450000000000        -1.833974884668888E-011
   16.4350000000000        -1.862490007110044E-011
   16.6250000000000        -1.892293480442979E-011
   16.8150000000000        -1.923215644613232E-011
   17.0050000000000        -1.954570402599010E-011
   17.1950000000000        -1.986189797213447E-011
   17.3850000000000        -2.018291984384762E-011
   17.5750000000000        -2.050752686105147E-011
   17.7650000000000        -2.083499061265365E-011
   17.9550000000000        -2.116330056324730E-011
   18.1450000000000        -2.149210067652805E-011
   18.3350000000000        -2.182135672037852E-011
   18.5250000000000        -2.215042207750433E-011
   18.7150000000000        -2.247696242501009E-011
   18.9050000000000        -2.279844583547425E-011
   19.0950000000000        -2.311392894933773E-011
   19.2850000000000        -2.341992613410308E-011
   19.4750000000000        -2.371484960783192E-011
   19.6650000000000        -2.399814199065895E-011
   19.8550000000000        -2.426882029764091E-011
   20.0450000000000        -2.452427576150081E-011
   20.2350000000000        -2.476068387779025E-011
   20.4250000000000        -2.497699439589177E-011
   20.6150000000000        -2.517150597731417E-011
   20.8050000000000        -2.534459388102721E-011
   20.9950000000000        -2.549995874204730E-011
   21.1850000000000        -2.564816299174561E-011
   21.3750000000000        -2.578988885700888E-011
   21.5650000000000        -2.592501525300835E-011
   21.7550000000000        -2.606077291876624E-011
   21.9450000000000        -2.620209135462060E-011
   22.1350000000000        -2.636227243352080E-011
   22.3250000000000        -2.656078814645637E-011
   22.5150000000000        -2.680899561282192E-011
   22.7050000000000        -2.710649139601064E-011
   22.8950000000000        -2.745225195131331E-011
   23.0850000000000        -2.784069174467243E-011
   23.2750000000000        -2.826481466259485E-011
   23.4650000000000        -2.872614877764698E-011
   23.6550000000000        -2.922519513834112E-011
   23.8450000000000        -2.975436298058153E-011
   24.0350000000000        -3.030254935647034E-011
   24.2250000000000        -3.086124572162979E-011
   24.4150000000000        -3.142097099184813E-011
   24.6050000000000        -3.196441158646455E-011
   24.7950000000000        -3.248893845039101E-011
   24.9850000000000        -3.298895846902413E-011
   25.1750000000000        -3.345757328207052E-011
   25.3650000000000        -3.389143590932986E-011
   25.5550000000000        -3.428518836495083E-011
   25.7450000000000        -3.463424277877064E-011
   25.9350000000000        -3.493331759135975E-011
   26.1250000000000        -3.519440508983322E-011
   26.3150000000000        -3.543202179800773E-011
   26.5050000000000        -3.565054081895038E-011
   26.6950000000000        -3.585202562615896E-011
   26.8850000000000        -3.604303804633651E-011
   27.0750000000000        -3.622886629710775E-011
   27.2650000000000        -3.641944352201852E-011
   27.4550000000000        -3.662559128903201E-011
   27.6450000000000        -3.684903767784796E-011
   27.8350000000000        -3.708464581304991E-011
   28.0250000000000        -3.732486010358448E-011
   28.2150000000000        -3.756422918546592E-011
   28.4050000000000        -3.779603064412886E-011
   28.5950000000000        -3.800047403479443E-011
   28.7850000000000        -3.815715167990681E-011
   28.9750000000000        -3.825351578106860E-011
   29.1650000000000        -3.828510265261650E-011
   29.3550000000000        -3.823810401258774E-011
   29.5450000000000        -3.810459696086147E-011
   29.7350000000000        -3.789737548556347E-011
   29.9250000000000        -3.762545248862561E-011
   30.1150000000000        -3.730307766378115E-011
   30.3050000000000        -3.695706454096328E-011
   30.4950000000000        -3.660176294332503E-011
   30.6850000000000        -3.624154697048560E-011
   30.8750000000000        -3.588851820066441E-011
   31.0650000000000        -3.558071533119376E-011
   31.2550000000000        -3.535344553718627E-011
   31.4450000000000        -3.520878283286495E-011
   31.6350000000000        -3.514268307400095E-011
   31.8250000000000        -3.516645272049928E-011
   32.0150000000000        -3.528662800878107E-011
   32.2050000000000        -3.548016790715171E-011
   32.3950000000000        -3.572792071979810E-011
   32.5850000000000        -3.601370748458445E-011
   32.7750000000000        -3.632772280304916E-011
   32.9650000000000        -3.666827784681365E-011
   33.1550000000000        -3.702156793610189E-011
   33.3450000000000        -3.737972127870439E-011
   33.5350000000000        -3.774156837879384E-011
   33.7250000000000        -3.809135290157944E-011
   33.9150000000000        -3.840371284930149E-011
   34.1050000000000        -3.865931046970567E-011
   34.2950000000000        -3.885739903379576E-011
   34.4850000000000        -3.901431875952426E-011
   34.6750000000000        -3.914068099651010E-011
   34.8650000000000        -3.924111850145826E-011
   35.0550000000000        -3.932757442090758E-011
   35.2450000000000        -3.941677303389041E-011
   35.4350000000000        -3.952814440500544E-011
   35.6250000000000        -3.967182148572634E-011
   35.8150000000000        -3.984878228909229E-011
   36.0050000000000        -4.005713309661569E-011
   36.1950000000000        -4.029259081823750E-011
   36.3850000000000        -4.054425515312094E-011
   36.5750000000000        -4.080357946541904E-011
   36.7650000000000        -4.106807792705752E-011
   36.9550000000000        -4.133472366418535E-011
   37.1450000000000        -4.159925696139730E-011
   37.3350000000000        -4.185639194894832E-011
   37.5250000000000        -4.210440817024883E-011
   37.7150000000000        -4.234191444008572E-011
   37.9050000000000        -4.256886904385698E-011
   38.0950000000000        -4.278877313652220E-011
   38.2850000000000        -4.301284580335083E-011
   38.4750000000000        -4.327390215936482E-011
   38.6650000000000        -4.359878816608805E-011
   38.8550000000000        -4.399581372252014E-011
   39.0450000000000        -4.446873717423468E-011
   39.2350000000000        -4.501571307608766E-011
   39.4250000000000        -4.562785547473877E-011
   39.6150000000000        -4.629118995269281E-011
   39.8050000000000        -4.699773709125277E-011
   39.9950000000000        -4.772739662543027E-011
   40.1850000000000        -4.847464697550528E-011
   40.3750000000000        -4.923674793957053E-011
   40.5650000000000        -5.000039384268429E-011
   40.7550000000000        -5.076321359550583E-011
   40.9450000000000        -5.150692580889186E-011
   41.1350000000000        -5.220299550775656E-011
   41.3250000000000        -5.282777174804095E-011
   41.5150000000000        -5.337342447070377E-011
   41.7050000000000        -5.384996120412219E-011
   41.8950000000000        -5.425493858019153E-011
   42.0850000000000        -5.458933872959092E-011
   42.2750000000000        -5.486325488239406E-011
   42.4650000000000        -5.507587722358704E-011
   42.6550000000000        -5.523384129806416E-011
   42.8450000000000        -5.534172975982519E-011
   43.0350000000000        -5.540387714821126E-011
   43.2250000000000        -5.542830370105558E-011
   43.4150000000000        -5.541466233556762E-011
   43.6050000000000        -5.537504582248743E-011
   43.7950000000000        -5.532385676096938E-011
   43.9850000000000        -5.526146475565088E-011
   44.1750000000000        -5.518791748911447E-011
   44.3650000000000        -5.510955145358376E-011
   44.5550000000000        -5.505183727497882E-011
   44.7450000000000        -5.506101757253687E-011
   44.9350000000000        -5.516727343786744E-011
   45.1250000000000        -5.536767864454991E-011
   45.3150000000000        -5.564828574011105E-011
   45.5050000000000        -5.599845217944611E-011
   45.6950000000000        -5.640910428119219E-011
   45.8850000000000        -5.686086605604372E-011
   46.0750000000000        -5.732865281837231E-011
   46.2650000000000        -5.780700826682669E-011
   46.4550000000000        -5.829475319723400E-011
   46.6450000000000        -5.878022928916073E-011
   46.8350000000000        -5.923493128574284E-011
   47.0250000000000        -5.961732726819010E-011
   47.2150000000000        -5.991624184746326E-011
   47.4050000000000        -6.014213154869231E-011
   47.5950000000000        -6.030135508644354E-011
   47.7850000000000        -6.039739578149500E-011
   47.9750000000000        -6.043414082384263E-011
   48.1650000000000        -6.042685906786134E-011
   48.3550000000000        -6.038662574330474E-011
   48.5450000000000        -6.031601043839895E-011
   48.7350000000000        -6.021780081776971E-011
   48.9250000000000        -6.010176961801241E-011
   49.1150000000000        -5.998079974288437E-011
   49.3050000000000        -5.986025376514620E-011
   49.4950000000000        -5.978028701516533E-011
   49.6850000000000        -5.978254245491105E-011
   49.8750000000000        -5.987151906678205E-011
   50.0650000000000        -6.004575068709889E-011
   50.2550000000000        -6.030194901632779E-011
   50.4450000000000        -6.062697962444870E-011
   50.6350000000000        -6.098915474503315E-011
   50.8250000000000        -6.138783850854064E-011
   51.0150000000000        -6.182012212126524E-011
   51.2050000000000        -6.226003424462930E-011
   51.3950000000000        -6.270881859456190E-011
   51.5850000000000        -6.314896598584123E-011
   51.7750000000000        -6.353348297658797E-011
   51.9650000000000        -6.384706658053906E-011
   52.1550000000000        -6.410384016338258E-011
   52.3450000000000        -6.430863459702245E-011
   52.5350000000000        -6.447036786985425E-011
   52.7250000000000        -6.459742752225233E-011
   52.9150000000000        -6.470801957375150E-011
   53.1050000000000        -6.481813023004599E-011
   53.2950000000000        -6.492917627825636E-011
   53.4850000000000        -6.505103013631529E-011
   53.6750000000000        -6.520960411532474E-011
   53.8650000000000        -6.541428334670498E-011
   54.0550000000000        -6.565981022717628E-011
   54.2450000000000        -6.595241971264684E-011
   54.4350000000000        -6.629529067758671E-011
   54.6250000000000        -6.668706215972184E-011
   54.8150000000000        -6.712089617259167E-011
   55.0050000000000        -6.758769004201768E-011
   55.1950000000000        -6.807692510465100E-011
   55.3850000000000        -6.858406820806730E-011
   55.5750000000000        -6.910557128109615E-011
   55.7650000000000        -6.962930055495314E-011
   55.9550000000000        -7.014114978565964E-011
   56.1450000000000        -7.062485223874643E-011
   56.3350000000000        -7.105478691827730E-011
   56.5250000000000        -7.141964096750070E-011
   56.7150000000000        -7.172721428174277E-011
   56.9050000000000        -7.198346601707252E-011
   57.0950000000000        -7.219616942869097E-011
   57.2850000000000        -7.236986103263498E-011
   57.4750000000000        -7.250350520923776E-011
   57.6650000000000        -7.260171866384940E-011
   57.8550000000000        -7.267712766403556E-011
   58.0450000000000        -7.274350089859396E-011
   58.2350000000000        -7.280768815872256E-011
   58.4250000000000        -7.287102128805991E-011
   58.6150000000000        -7.293990877882943E-011
   58.8050000000000        -7.301974368083324E-011
   58.9950000000000        -7.311262623480532E-011
   59.1850000000000        -7.321953535913914E-011
   59.3750000000000        -7.333881905901979E-011
   59.5650000000000        -7.346850753983437E-011
   59.7550000000000        -7.360809814290117E-011
   59.9450000000000        -7.375888734666317E-011
   60.1350000000000        -7.392217869507083E-011
   60.3250000000000        -7.409657765930228E-011
   60.5150000000000        -7.427657785056772E-011
   60.7050000000000        -7.445270055392841E-011
   60.8950000000000        -7.460663130474370E-011
   61.0850000000000        -7.473207690225784E-011
   61.2750000000000        -7.483386173678876E-011
   61.4650000000000        -7.491638320262002E-011
   61.6550000000000        -7.497400340512080E-011
   61.8450000000000        -7.500085387533303E-011
   62.0350000000000        -7.500655044595183E-011
   62.2250000000000        -7.500041819703572E-011
   62.4150000000000        -7.498401901166624E-011
   62.6050000000000        -7.495795210609779E-011
   62.7950000000000        -7.492838206230688E-011
   62.9850000000000        -7.489992155738083E-011
   63.1750000000000        -7.487554927532915E-011
   63.3650000000000        -7.485717813787523E-011
   63.5550000000000        -7.484700675370477E-011
   63.7450000000000        -7.484967314312602E-011
   63.9350000000000        -7.486774179061808E-011
   64.1250000000000        -7.490096775733387E-011
   64.3150000000000        -7.494926349366015E-011
   64.5050000000000        -7.501265605804027E-011
   64.6950000000000        -7.510214133343303E-011
   64.8850000000000        -7.521092641108830E-011
   65.0750000000000        -7.533010587108493E-011
   65.2650000000000        -7.546795282532608E-011
   65.4550000000000        -7.562221548874834E-011
   65.6450000000000        -7.579014804250303E-011
   65.8350000000000        -7.596861601134096E-011
   66.0250000000000        -7.615258700281530E-011
   66.2150000000000        -7.633729639624077E-011
   66.4050000000000        -7.652262461746991E-011
   66.5950000000000        -7.670825418113065E-011
   66.7850000000000        -7.689247473479172E-011
   66.9750000000000        -7.707713175985107E-011
   67.1650000000000        -7.726344561980155E-011
   67.3550000000000        -7.745288855624422E-011
   67.5450000000000        -7.764583846002567E-011
   67.7350000000000        -7.784288798269675E-011
   67.9250000000000        -7.804295903084733E-011
   68.1150000000000        -7.824375420870336E-011
   68.3050000000000        -7.844456476548122E-011
   68.4950000000000        -7.864652687179454E-011
   68.6850000000000        -7.885344634297921E-011
   68.8750000000000        -7.907045394904445E-011
   69.0650000000000        -7.930210494191602E-011
   69.2550000000000        -7.955106687984070E-011
   69.4450000000000        -7.981767968762931E-011
   69.6350000000000        -8.010253763977161E-011
   69.8250000000000        -8.040280682521560E-011
   70.0150000000000        -8.071518279687452E-011
   70.2050000000000        -8.104256881218168E-011
   70.3950000000000        -8.138813403639901E-011
   70.5850000000000        -8.175333367970510E-011
   70.7750000000000        -8.214242242172832E-011
   70.9650000000000        -8.256066047741657E-011
   71.1550000000000        -8.301569509459911E-011
   71.3450000000000        -8.350660024563500E-011
   71.5350000000000        -8.403209237083647E-011
   71.7250000000000        -8.458699319307232E-011
   71.9150000000000        -8.515974105608904E-011
   72.1050000000000        -8.574557038491070E-011
   72.2950000000000        -8.633836969860548E-011
   72.4850000000000        -8.693493622514753E-011
   72.6750000000000        -8.753355050284817E-011
   72.8650000000000        -8.813424015729634E-011
   73.0550000000000        -8.873523665650964E-011
   73.2450000000000        -8.933079544277876E-011
   73.4350000000000        -8.990913236951102E-011
   73.6250000000000        -9.045591848983263E-011
   73.8150000000000        -9.096017219192861E-011
   74.0050000000000        -9.140464112232847E-011
   74.1950000000000        -9.178227282382813E-011
   74.3850000000000        -9.209562438687271E-011
   74.5750000000000        -9.234669230574795E-011
   74.7650000000000        -9.254194511873521E-011
   74.9550000000000        -9.269351561572534E-011
   75.1450000000000        -9.281738671828080E-011
   75.3350000000000        -9.292557162902418E-011
   75.5250000000000        -9.302014354723607E-011
   75.7150000000000        -9.310546265247748E-011
   75.9050000000000        -9.318950687942091E-011
   76.0950000000000        -9.327425763346583E-011
   76.2850000000000        -9.336851798570365E-011
   76.4750000000000        -9.348095212407151E-011
   76.6650000000000        -9.361081039286557E-011
   76.8550000000000        -9.375039109740473E-011
   77.0450000000000        -9.389292284388391E-011
   77.2350000000000        -9.402843963827688E-011
   77.4250000000000        -9.413898226063650E-011
   77.6150000000000        -9.420117463870988E-011
   77.8050000000000        -9.420667428205549E-011
   77.9950000000000        -9.416325420055549E-011
   78.1850000000000        -9.407380259474463E-011
   78.3750000000000        -9.394398059087812E-011
   78.5650000000000        -9.378418419609291E-011
   78.7550000000000        -9.359385142320932E-011
   78.9450000000000        -9.337835082752713E-011
   79.1350000000000        -9.314645097838135E-011
   79.3250000000000        -9.290028532739589E-011
   79.5150000000000        -9.264482139593591E-011
   79.7050000000000        -9.239030325249363E-011
   79.8950000000000        -9.216610669764323E-011
   80.0850000000000        -9.201049760047650E-011
   80.2750000000000        -9.194859388882387E-011
   80.4650000000000        -9.198364805718779E-011
   80.6550000000000        -9.210889483501152E-011
   80.8450000000000        -9.232257074256731E-011
   81.0350000000000        -9.262350130263186E-011
   81.2250000000000        -9.300336400273955E-011
   81.4150000000000        -9.344876653924799E-011
   81.6050000000000        -9.394837438631481E-011
   81.7950000000000        -9.447897631411175E-011
   81.9850000000000        -9.503522127728729E-011
   82.1750000000000        -9.561470409588509E-011
   82.3650000000000        -9.620278747852360E-011
   82.5550000000000        -9.678101034142107E-011
   82.7450000000000        -9.730780574304720E-011
   82.9350000000000        -9.776513097803678E-011
   83.1250000000000        -9.816148542435054E-011
   83.3150000000000        -9.850720035887611E-011
   83.5050000000000        -9.881370171776648E-011
   83.6950000000000        -9.909464910962394E-011
   83.8850000000000        -9.934563601622375E-011
   84.0750000000000        -9.957185366697822E-011
   84.2650000000000        -9.979277910518076E-011
   84.4550000000000        -1.000118011939405E-010
   84.6450000000000        -1.002298305399253E-010
   84.8350000000000        -1.004470246090940E-010
   85.0250000000000        -1.006628360970606E-010
   85.2150000000000        -1.008784100370466E-010
   85.4050000000000        -1.010965871110263E-010
   85.5950000000000        -1.013263460307895E-010
   85.7850000000000        -1.015849485023584E-010
   85.9750000000000        -1.018748681214904E-010
   86.1650000000000        -1.021850018232542E-010
   86.3550000000000        -1.025065828690128E-010
   86.5450000000000        -1.028338812467232E-010
   86.7350000000000        -1.031632751138448E-010
   86.9250000000000        -1.034906078239689E-010
   87.1150000000000        -1.038155229627796E-010
   87.3050000000000        -1.041372510986814E-010
   87.4950000000000        -1.044561725689752E-010
   87.6850000000000        -1.047777659941724E-010
   87.8750000000000        -1.051060250384632E-010
   88.0650000000000        -1.054409620957872E-010
   88.2550000000000        -1.057816247171064E-010
   88.4450000000000        -1.061267262161735E-010
   88.6350000000000        -1.064740213789335E-010
   88.8250000000000        -1.068238699575428E-010
   89.0150000000000        -1.071805051444529E-010
   89.2050000000000        -1.075436645702195E-010
   89.3950000000000        -1.078927362597309E-010
   89.5850000000000        -1.082059032463043E-010
   89.7750000000000        -1.084937648114882E-010
   89.9650000000000        -1.087702647051430E-010
   90.1550000000000        -1.090348104083464E-010
   90.3450000000000        -1.092903577608798E-010
   90.5350000000000        -1.095395358336366E-010
   90.7250000000000        -1.097836111633865E-010
   90.9150000000000        -1.100226370598863E-010
   91.1050000000000        -1.102541553044327E-010
   91.2950000000000        -1.104758240206149E-010
   91.4850000000000        -1.106839983938505E-010
   91.6750000000000        -1.108701732076890E-010
   91.8650000000000        -1.110305799092218E-010
   92.0550000000000        -1.111647474957512E-010
   92.2450000000000        -1.112750553310937E-010
   92.4350000000000        -1.113664740337146E-010
   92.6250000000000        -1.114377556276987E-010
   92.8150000000000        -1.114894789393427E-010
   93.0050000000000        -1.115208536098743E-010
   93.1950000000000        -1.115273305406807E-010
   93.3850000000000        -1.115180058854590E-010
   93.5750000000000        -1.115276482325173E-010
   93.7650000000000        -1.115697660019718E-010
   93.9550000000000        -1.116467232465137E-010
   94.1450000000000        -1.117610620015318E-010
   94.3350000000000        -1.118996169365411E-010
   94.5250000000000        -1.120661131344768E-010
   94.7150000000000        -1.122574905572323E-010
   94.9050000000000        -1.124677769497954E-010
   95.0950000000000        -1.126914175389007E-010
   95.2850000000000        -1.129241197502576E-010
   95.4750000000000        -1.131692955276104E-010
   95.6650000000000        -1.134261195200035E-010
   95.8550000000000        -1.136933468568829E-010
   96.0450000000000        -1.139676652307336E-010
   96.2350000000000        -1.142441173229753E-010
   96.4250000000000        -1.145127617799531E-010
   96.6150000000000        -1.147640176503500E-010
   96.8050000000000        -1.149916837105212E-010
   96.9950000000000        -1.151924365312909E-010
   97.1850000000000        -1.153706050202015E-010
   97.3750000000000        -1.155359671042093E-010
   97.5650000000000        -1.156985128984081E-010
   97.7550000000000        -1.158671424239072E-010
   97.9450000000000        -1.160507905894660E-010
   98.1350000000000        -1.162587678452290E-010
   98.3250000000000        -1.164942123079888E-010
   98.5150000000000        -1.167526726840865E-010
   98.7050000000000        -1.170270926380289E-010
   98.8950000000000        -1.173088158412611E-010
   99.0850000000000        -1.175874407419483E-010
   99.2750000000000        -1.178503853815152E-010
   99.4650000000000        -1.180725631385780E-010
   99.6550000000000        -1.182394331439080E-010
   99.8450000000000        -1.183453060789268E-010
   100.035000000000        -1.183866791835311E-010
   100.225000000000        -1.183648278122695E-010
   100.415000000000        -1.182752539964003E-010
   100.605000000000        -1.181178814783458E-010
   100.795000000000        -1.179030996076338E-010
   100.985000000000        -1.176406403295972E-010
   101.175000000000        -1.173464626483291E-010
   101.365000000000        -1.170290979333957E-010
   101.555000000000        -1.166905947659574E-010
   101.745000000000        -1.163397907114935E-010
   101.935000000000        -1.159930330145076E-010
   102.125000000000        -1.157161873131731E-010
   102.315000000000        -1.155473698074342E-010
   102.505000000000        -1.154883327853993E-010
   102.695000000000        -1.155405925557303E-010
   102.885000000000        -1.156918686876642E-010
   103.075000000000        -1.159369981925893E-010
   103.265000000000        -1.162523213917680E-010
   103.455000000000        -1.166210302396232E-010
   103.645000000000        -1.170319303899332E-010
   103.835000000000        -1.174584722452390E-010
   104.025000000000        -1.178952999225050E-010
   104.215000000000        -1.183420822417524E-010
   104.405000000000        -1.187914505884852E-010
   104.595000000000        -1.192420159574895E-010
   104.785000000000        -1.196896249413379E-010
   104.975000000000        -1.201239341559424E-010
   105.165000000000        -1.205345264669689E-010
   105.355000000000        -1.209179316617732E-010
   105.545000000000        -1.212748139695815E-010
   105.735000000000        -1.216063752099212E-010
   105.925000000000        -1.219164420739023E-010
   106.115000000000        -1.222112569556536E-010
   106.305000000000        -1.224921732325006E-010
   106.495000000000        -1.227647797875869E-010
   106.685000000000        -1.230320989849441E-010
   106.875000000000        -1.232942433539206E-010
   107.065000000000        -1.235516793745929E-010
   107.255000000000        -1.237993328754800E-010
   107.445000000000        -1.240354183081564E-010
   107.635000000000        -1.242599249030018E-010
   107.825000000000        -1.244749583777590E-010
   108.015000000000        -1.246844009672361E-010
   108.205000000000        -1.248929694541760E-010
   108.395000000000        -1.251042491649113E-010
   108.585000000000        -1.253202834173768E-010
   108.775000000000        -1.255391671751626E-010
   108.965000000000        -1.257556058496188E-010
   109.155000000000        -1.259665215826679E-010
   109.345000000000        -1.261665751970194E-010
   109.535000000000        -1.263521266696914E-010
   109.725000000000        -1.265236481038504E-010
   109.915000000000        -1.266820298724066E-010
   110.105000000000        -1.268313297215808E-010