  -1.42500000000000         0.000000000000000E+000
  -1.23500000000000         1.663204713136528E-020
  -1.04500000000000         8.991017323877774E-020
 -0.855000000000000         4.704588233497648E-019
 -0.665000000000000         2.424521975973669E-018
 -0.475000000000000         9.889898965549037E-018
 -0.285000000000000         3.660692763772528E-017
 -9.499999999999975E-002    1.126948691193446E-016
  9.500000000000020E-002    3.145853849871887E-016
  0.285000000000000         7.726211440244435E-016
  0.475000000000000         1.696876511192903E-015
  0.665000000000000         3.398803804961532E-015
  0.855000000000000         6.245191788662667E-015
   1.04500000000000         1.063268857729884E-014
   1.23500000000000         1.700694412305712E-014
   1.42500000000000         2.579153402136159E-014
   1.61500000000000         3.725836829594646E-014
   1.80500000000000         5.183141327179040E-014
   1.99500000000000         7.000178127150008E-014
   2.18500000000000         9.221253108852582E-014
   2.37500000000000         1.189061783805028E-013
   2.56500000000000         1.505028957620386E-013
   2.75500000000000         1.873507952667326E-013
   2.94500000000000         2.297284232882775E-013
   3.13500000000000         2.778417683314980E-013
   3.32500000000000         3.317997759109113E-013
   3.51500000000000         3.916324029976801E-013
   3.70500000000000         4.573838964089394E-013
   3.89500000000000         5.290578201818229E-013
   4.08500000000000         6.066475620068944E-013
   4.27500000000000         6.901405945575410E-013
   4.46500000000000         7.795133792773870E-013
   4.65500000000000         8.747098929947143E-013
   4.84500000000000         9.756233461549866E-013
   5.03500000000000         1.082085689394937E-012
   5.22500000000000         1.193904171849970E-012
   5.41500000000000         1.311038432663202E-012
   5.60500000000000         1.433321940767634E-012
   5.79500000000000         1.560658971059158E-012
   5.98500000000000         1.693029344213068E-012
   6.17500000000000         1.830515852521117E-012
   6.36500000000000         1.973307554951768E-012
   6.55500000000000         2.121709030946885E-012
   6.74500000000000         2.276037323507799E-012
   6.93500000000000         2.436611398291544E-012
   7.12500000000000         2.603794044237114E-012
   7.31500000000000         2.778042791772231E-012
   7.50500000000000         2.959662672885822E-012
   7.69500000000000         3.148831817336019E-012
   7.88500000000000         3.345599010831785E-012
   8.07500000000000         3.549903627141603E-012
   8.26500000000000         3.761566513919936E-012
   8.45500000000000         3.980405828564599E-012
   8.64500000000000         4.206157890369521E-012
   8.83500000000000         4.438456423419571E-012
   9.02500000000000         4.676892168456191E-012
   9.21500000000000         4.920680889052658E-012
   9.40500000000000         5.168701876923361E-012
   9.59500000000000         5.419955119695270E-012
   9.78500000000000         5.673639907911962E-012
   9.97500000000000         5.929244249599871E-012
   10.1650000000000         6.186320625606455E-012
   10.3550000000000         6.444580274328379E-012
   10.5450000000000         6.703856189236500E-012
   10.7350000000000         6.964052489182673E-012
   10.9250000000000         7.225160380782863E-012
   11.1150000000000         7.487178459099634E-012
   11.3050000000000         7.750104572581478E-012
   11.4950000000000         8.013958451018241E-012
   11.6850000000000         8.278856323826215E-012
   11.8750000000000         8.545067333907073E-012
   12.0650000000000         8.812970052156551E-012
   12.2550000000000         9.082979018676586E-012
   12.4450000000000         9.355496283171022E-012
   12.6350000000000         9.630983058883351E-012
   12.8250000000000         9.909541146913795E-012
   13.0150000000000         1.019150392933231E-011
   13.2050000000000         1.047710845371110E-011
   13.3950000000000         1.076652442757439E-011
   13.5850000000000         1.105988818958382E-011
   13.7750000000000         1.135725222812865E-011
   13.9650000000000         1.165861545800483E-011
   14.1550000000000         1.196397087781886E-011
   14.3450000000000         1.227331535251031E-011
   14.5350000000000         1.258666737616448E-011
   14.7250000000000         1.290405485053344E-011
   14.9150000000000         1.322556478835870E-011
   15.1050000000000         1.355145529172840E-011
   15.2950000000000         1.388228032967658E-011
   15.4850000000000         1.421872530770363E-011
   15.6750000000000         1.456149033525572E-011
   15.8650000000000         1.491110812698319E-011
   16.0550000000000         1.526805122607066E-011
   16.2450000000000         1.563274484875723E-011
   16.4350000000000         1.600545229842012E-011
   16.6250000000000         1.638629456193986E-011
   16.8150000000000         1.677529791411460E-011
   17.0050000000000         1.717240558334341E-011
   17.1950000000000         1.757759886876086E-011
   17.3850000000000         1.799074825230694E-011
   17.5750000000000         1.841179819763114E-011
   17.7650000000000         1.884049619162242E-011
   17.9550000000000         1.927674989115847E-011
   18.1450000000000         1.972041480955343E-011
   18.3350000000000         2.017137091260332E-011
   18.5250000000000         2.062949117321711E-011
   18.7150000000000         2.109460397266297E-011
   18.9050000000000         2.156633607465970E-011
   19.0950000000000         2.204415488466608E-011
   19.2850000000000         2.252748605871807E-011
   19.4750000000000         2.301582443093088E-011
   19.6650000000000         2.350878096965595E-011
   19.8550000000000         2.400605607374024E-011
   20.0450000000000         2.450736690469758E-011
   20.2350000000000         2.501243093647787E-011
   20.4250000000000         2.552096128636494E-011
   20.6150000000000         2.603264918550087E-011
   20.8050000000000         2.654711765699212E-011
   20.9950000000000         2.706395579072453E-011
   21.1850000000000         2.758275467469665E-011
   21.3750000000000         2.810341883277825E-011
   21.5650000000000         2.862546319485823E-011
   21.7550000000000         2.914877676847168E-011
   21.9450000000000         2.967312177913037E-011
   22.1350000000000         3.019817733697228E-011
   22.3250000000000         3.072363843488049E-011
   22.5150000000000         3.124940309648855E-011
   22.7050000000000         3.177573425189220E-011
   22.8950000000000         3.230313954488250E-011
   23.0850000000000         3.283228494213100E-011
   23.2750000000000         3.336390502840420E-011
   23.4650000000000         3.389875874262589E-011
   23.6550000000000         3.443753981486833E-011
   23.8450000000000         3.498107863424985E-011
   24.0350000000000         3.553024853386506E-011
   24.2250000000000         3.608578774955262E-011
   24.4150000000000         3.664834087722568E-011
   24.6050000000000         3.721843096608945E-011
   24.7950000000000         3.779650481431671E-011
   24.9850000000000         3.838272464605836E-011
   25.1750000000000         3.897713679545588E-011
   25.3650000000000         3.957965635189283E-011
   25.5550000000000         4.019007842393217E-011
   25.7450000000000         4.080817410738353E-011
   25.9350000000000         4.143354662012099E-011
   26.1250000000000         4.206578661420018E-011
   26.3150000000000         4.270461861576690E-011
   26.5050000000000         4.334982088528667E-011
   26.6950000000000         4.400116653236424E-011
   26.8850000000000         4.465847177956384E-011
   27.0750000000000         4.532157938844012E-011
   27.2650000000000         4.599036020162722E-011
   27.4550000000000         4.666478495891220E-011
   27.6450000000000         4.734494606374978E-011
   27.8350000000000         4.803100246419143E-011
   28.0250000000000         4.872300283995573E-011
   28.2150000000000         4.942117459551475E-011
   28.4050000000000         5.012569287384178E-011
   28.5950000000000         5.083671169455887E-011
   28.7850000000000         5.155429188762434E-011
   28.9750000000000         5.227827435015185E-011
   29.1650000000000         5.300822681031645E-011
   29.3550000000000         5.374351359812803E-011
   29.5450000000000         5.448328906065981E-011
   29.7350000000000         5.522661751978165E-011
   29.9250000000000         5.597261035360229E-011
   30.1150000000000         5.672037251133352E-011
   30.3050000000000         5.746914376582084E-011
   30.4950000000000         5.821829318545374E-011
   30.6850000000000         5.896751327151808E-011
   30.8750000000000         5.971649201537510E-011
   31.0650000000000         6.046485806863857E-011
   31.2550000000000         6.121218293769601E-011
   31.4450000000000         6.195843671681396E-011
   31.6350000000000         6.270382715613712E-011
   31.8250000000000         6.344872606766699E-011
   32.0150000000000         6.419354661093204E-011
   32.2050000000000         6.493871258496971E-011
   32.3950000000000         6.568468799126244E-011
   32.5850000000000         6.643193318927398E-011
   32.7750000000000         6.718083734602028E-011
   32.9650000000000         6.793176467369455E-011
   33.1550000000000         6.868501142744358E-011
   33.3450000000000         6.944071844879317E-011
   33.5350000000000         7.019910384514524E-011
   33.7250000000000         7.096051626204775E-011
   33.9150000000000         7.172547654873770E-011
   34.1050000000000         7.249464871439284E-011
   34.2950000000000         7.326869113188087E-011
   34.4850000000000         7.404813024439666E-011
   34.6750000000000         7.483327825741929E-011
   34.8650000000000         7.562443460202412E-011
   35.0550000000000         7.642186872211826E-011
   35.2450000000000         7.722580984842211E-011
   35.4350000000000         7.803647683038628E-011
   35.6250000000000         7.885400770925119E-011
   35.8150000000000         7.967843341343509E-011
   36.0050000000000         8.050969418085409E-011
   36.1950000000000         8.134767079820612E-011
   36.3850000000000         8.219220114702135E-011
   36.5750000000000         8.304324755383107E-011
   36.7650000000000         8.390068795968699E-011
   36.9550000000000         8.476447888505584E-011
   37.1450000000000         8.563446531653346E-011
   37.3350000000000         8.651046076195428E-011
   37.5250000000000         8.739229067764875E-011
   37.7150000000000         8.827980842916875E-011
   37.9050000000000         8.917288002035426E-011
   38.0950000000000         9.007139202728210E-011
   38.2850000000000         9.097527314527000E-011
   38.4750000000000         9.188444405374067E-011
   38.6650000000000         9.279881758653494E-011
   38.8550000000000         9.371832594079719E-011
   39.0450000000000         9.464292140683819E-011
   39.2350000000000         9.557253997016589E-011
   39.4250000000000         9.650707172222443E-011
   39.6150000000000         9.744633139491314E-011
   39.8050000000000         9.839008518759456E-011
   39.9950000000000         9.933804178610784E-011
   40.1850000000000         1.002900135492467E-010
   40.3750000000000         1.012456795892376E-010
   40.5650000000000         1.022049556702203E-010
   40.7550000000000         1.031676847414166E-010
   40.9450000000000         1.041335827770846E-010
   41.1350000000000         1.051020078693587E-010
   41.3250000000000         1.060720609540314E-010
   41.5150000000000         1.070429059398537E-010
   41.7050000000000         1.080140732283628E-010
   41.8950000000000         1.089853627307405E-010
   42.0850000000000         1.099567693228295E-010
   42.2750000000000         1.109284499182761E-010
   42.4650000000000         1.119006860315194E-010
   42.6550000000000         1.128738745627154E-010
   42.8450000000000         1.138484529648652E-010
   43.0350000000000         1.148249668046025E-010
   43.2250000000000         1.158039261920310E-010
   43.4150000000000         1.167857499147417E-010
   43.6050000000000         1.177710196559359E-010
   43.7950000000000         1.187599046326984E-010
   43.9850000000000         1.197526352948054E-010
   44.1750000000000         1.207494304803119E-010
   44.3650000000000         1.217506209721071E-010
   44.5550000000000         1.227566892176260E-010
   44.7450000000000         1.237681946209573E-010
   44.9350000000000         1.247855236456663E-010
   45.1250000000000         1.258087108052488E-010
   45.3150000000000         1.268375981802748E-010
   45.5050000000000         1.278719425043489E-010
   45.6950000000000         1.289115018757030E-010
   45.8850000000000         1.299560936299852E-010
   46.0750000000000         1.310055989162452E-010
   46.2650000000000         1.320599809530329E-010
   46.4550000000000         1.331192125672602E-010
   46.6450000000000         1.341832939338826E-010
   46.8350000000000         1.352522441407570E-010
   47.0250000000000         1.363261848119855E-010
   47.2150000000000         1.374053472956144E-010
   47.4050000000000         1.384899693506550E-010
   47.5950000000000         1.395801710578052E-010
   47.7850000000000         1.406759761185066E-010
   47.9750000000000         1.417772852694273E-010
   48.1650000000000         1.428838994189909E-010
   48.3550000000000         1.439955858755123E-010
   48.5450000000000         1.451120373708140E-010
   48.7350000000000         1.462329677129767E-010
   48.9250000000000         1.473580861077116E-010
   49.1150000000000         1.484871867375411E-010
   49.3050000000000         1.496200978770900E-010
   49.4950000000000         1.507564874206691E-010
   49.6850000000000         1.518959873495071E-010
   49.8750000000000         1.530385011937658E-010
   50.0650000000000         1.541842013521764E-010
   50.2550000000000         1.553333703662570E-010
   50.4450000000000         1.564863742324849E-010
   50.6350000000000         1.576435749601627E-010
   50.8250000000000         1.588051631255000E-010
   51.0150000000000         1.599715101026571E-010
   51.2050000000000         1.611427067599374E-010
   51.3950000000000         1.623188802928405E-010
   51.5850000000000         1.635001990576898E-010
   51.7750000000000         1.646867446908624E-010
   51.9650000000000         1.658781085739586E-010
   52.1550000000000         1.670735362507813E-010
   52.3450000000000         1.682721226376356E-010
   52.5350000000000         1.694729582915883E-010
   52.7250000000000         1.706750987106083E-010
   52.9150000000000         1.718777470872584E-010
   53.1050000000000         1.730803360516251E-010
   53.2950000000000         1.742821992647477E-010
   53.4850000000000         1.754828368859755E-010
   53.6750000000000         1.766818687638790E-010
   53.8650000000000         1.778791819054019E-010
   54.0550000000000         1.790750664148341E-010
   54.2450000000000         1.802701374489215E-010
   54.4350000000000         1.814652523482222E-010
   54.6250000000000         1.826614621944386E-010
   54.8150000000000         1.838598128870744E-010
   55.0050000000000         1.850613697480614E-010
   55.1950000000000         1.862671210266342E-010
   55.3850000000000         1.874778190960897E-010
   55.5750000000000         1.886942711069518E-010
   55.7650000000000         1.899169181340932E-010
   55.9550000000000         1.911461589025072E-010
   56.1450000000000         1.923824267056832E-010
   56.3350000000000         1.936261190780435E-010
   56.5250000000000         1.948772831899519E-010
   56.7150000000000         1.961356705304290E-010
   56.9050000000000         1.974008843620129E-010
   57.0950000000000         1.986724128150866E-010
   57.2850000000000         1.999497721101625E-010
   57.4750000000000         2.012325667061784E-010
   57.6650000000000         2.025203567661579E-010
   57.8550000000000         2.038127055544997E-010
   58.0450000000000         2.051093150410670E-010
   58.2350000000000         2.064100503531874E-010
   58.4250000000000         2.077147954280644E-010
   58.6150000000000         2.090234369624398E-010
   58.8050000000000         2.103359159409852E-010
   58.9950000000000         2.116522110190572E-010
   59.1850000000000         2.129723237517462E-010
   59.3750000000000         2.142962785272552E-010
   59.5650000000000         2.156241021700655E-010
   59.7550000000000         2.169558148636540E-010
   59.9450000000000         2.182914356852704E-010
   60.1350000000000         2.196309824297984E-010
   60.3250000000000         2.209744665044961E-010
   60.5150000000000         2.223218455061738E-010
   60.7050000000000         2.236729505095951E-010
   60.8950000000000         2.250275189399134E-010
   61.0850000000000         2.263851759042593E-010
   61.2750000000000         2.277455643300295E-010
   61.4650000000000         2.291083201030022E-010
   61.6550000000000         2.304730864369303E-010
   61.8450000000000         2.318395371236953E-010
   62.0350000000000         2.332073418538383E-010
   62.2250000000000         2.345762187070493E-010
   62.4150000000000         2.359459376958688E-010
   62.6050000000000         2.373162258043333E-010
   62.7950000000000         2.386868506560775E-010
   62.9850000000000         2.400577530129128E-010
   63.1750000000000         2.414288263027802E-010
   63.3650000000000         2.427999047818145E-010
   63.5550000000000         2.441707358847310E-010
   63.7450000000000         2.455409909482678E-010
   63.9350000000000         2.469103585700321E-010
   64.1250000000000         2.482786445104914E-010
   64.3150000000000         2.496457790375860E-010
   64.5050000000000         2.510118137814413E-010
   64.6950000000000         2.523769082678073E-010
   64.8850000000000         2.537413986932699E-010
   65.0750000000000         2.551055800418735E-010
   65.2650000000000         2.564698878423146E-010
   65.4550000000000         2.578348992099975E-010
   65.6450000000000         2.592012016196383E-010
   65.8350000000000         2.605694290244668E-010
   66.0250000000000         2.619402757125027E-010
   66.2150000000000         2.633143505511500E-010
   66.4050000000000         2.646921960044359E-010
   66.5950000000000         2.660743464616787E-010
   66.7850000000000         2.674609768060048E-010
   66.9750000000000         2.688524710677702E-010
   67.1650000000000         2.702490103644008E-010
   67.3550000000000         2.716508076762181E-010
   67.5450000000000         2.730580972968033E-010
   67.7350000000000         2.744711351984723E-010
   67.9250000000000         2.758901299754018E-010
   68.1150000000000         2.773151426563842E-010
   68.3050000000000         2.787460518886269E-010
   68.4950000000000         2.801825683606437E-010
   68.6850000000000         2.816243052548838E-010
   68.8750000000000         2.830708763313220E-010
   69.0650000000000         2.845219203675735E-010
   69.2550000000000         2.859771211359133E-010
   69.4450000000000         2.874362156021194E-010
   69.6350000000000         2.888990132037011E-010
   69.8250000000000         2.903654017971677E-010
   70.0150000000000         2.918353267661197E-010
   70.2050000000000         2.933087718546682E-010
   70.3950000000000         2.947857626222430E-010
   70.5850000000000         2.962663673061488E-010
   70.7750000000000         2.977506701122426E-010
   70.9650000000000         2.992387418204031E-010
   71.1550000000000         3.007306039480311E-010
   71.3450000000000         3.022261738498430E-010
   71.5350000000000         3.037253539735101E-010
   71.7250000000000         3.052278913529939E-010
   71.9150000000000         3.067336739716399E-010
   72.1050000000000         3.082424064452140E-010
   72.2950000000000         3.097539552501876E-010
   72.4850000000000         3.112681648558602E-010
   72.6750000000000         3.127848952858684E-010
   72.8650000000000         3.143040386826112E-010
   73.0550000000000         3.158253352453470E-010
   73.2450000000000         3.173484280068896E-010
   73.4350000000000         3.188728248499898E-010
   73.6250000000000         3.203978307816948E-010
   73.8150000000000         3.219227199724590E-010
   74.0050000000000         3.234469595899557E-010
   74.1950000000000         3.249702095429070E-010
   74.3850000000000         3.264923474923925E-010
   74.5750000000000         3.280133907513699E-010
   74.7650000000000         3.295334580446799E-010
   74.9550000000000         3.310527622004833E-010
   75.1450000000000         3.325715477789625E-010
   75.3350000000000         3.340901122494788E-010
   75.5250000000000         3.356085910555019E-010
   75.7150000000000         3.371274811243119E-010
   75.9050000000000         3.386469591183027E-010
   76.0950000000000         3.401672900008629E-010
   76.2850000000000         3.416889022072026E-010
   76.4750000000000         3.432125874952183E-010
   76.6650000000000         3.447392365572580E-010
   76.8550000000000         3.462695443400984E-010
   77.0450000000000         3.478038630857568E-010
   77.2350000000000         3.493425036499039E-010
   77.4250000000000         3.508859311894816E-010
   77.6150000000000         3.524346988055643E-010
   77.8050000000000         3.539891971131658E-010
   77.9950000000000         3.555495021164962E-010
   78.1850000000000         3.571154950948163E-010
   78.3750000000000         3.586869352912844E-010
   78.5650000000000         3.602635237472398E-010
   78.7550000000000         3.618449900899995E-010
   78.9450000000000         3.634310160369629E-010
   79.1350000000000         3.650214923488899E-010
   79.3250000000000         3.666162075603364E-010
   79.5150000000000         3.682150126788779E-010
   79.7050000000000         3.698176425956882E-010
   79.8950000000000         3.714236559205930E-010
   80.0850000000000         3.730324333107392E-010
   80.2750000000000         3.746433749298362E-010
   80.4650000000000         3.762560548774935E-010
   80.6550000000000         3.778702007079747E-010
   80.8450000000000         3.794856325325603E-010
   81.0350000000000         3.811022193813551E-010
   81.2250000000000         3.827198615199508E-010
   81.4150000000000         3.843384968015836E-010
   81.6050000000000         3.859580562273871E-010
   81.7950000000000         3.875784572272510E-010
   81.9850000000000         3.891996492223308E-010
   82.1750000000000         3.908215378296201E-010
   82.3650000000000         3.924440373281897E-010
   82.5550000000000         3.940670180811139E-010
   82.7450000000000         3.956902332404728E-010
   82.9350000000000         3.973133809473661E-010
   83.1250000000000         3.989362184346140E-010
   83.3150000000000         4.005585739370037E-010
   83.5050000000000         4.021803520214686E-010
   83.6950000000000         4.038015110322474E-010
   83.8850000000000         4.054220764160192E-010
   84.0750000000000         4.070421237690453E-010
   84.2650000000000         4.086617132977295E-010
   84.4550000000000         4.102808855649392E-010
   84.6450000000000         4.118996466872269E-010
   84.8350000000000         4.135179832416525E-010
   85.0250000000000         4.151358769300101E-010
   85.2150000000000         4.167533806151908E-010
   85.4050000000000         4.183706811716654E-010
   85.5950000000000         4.199881225849385E-010
   85.7850000000000         4.216061547339910E-010
   85.9750000000000         4.232251896852125E-010
   86.1650000000000         4.248455666615361E-010
   86.3550000000000         4.264675799437221E-010
   86.5450000000000         4.280914996295831E-010
   86.7350000000000         4.297176109993613E-010
   86.9250000000000         4.313462179609433E-010
   87.1150000000000         4.329776238230510E-010
   87.3050000000000         4.346121298484368E-010
   87.4950000000000         4.362500532423086E-010
   87.6850000000000         4.378917275727282E-010
   87.8750000000000         4.395374779721057E-010
   88.0650000000000         4.411875244357430E-010
   88.2550000000000         4.428420912130771E-010
   88.4450000000000         4.445013265253698E-010
   88.6350000000000         4.461653935191690E-010
   88.8250000000000         4.478344404058655E-010
   89.0150000000000         4.495086451604597E-010
   89.2050000000000         4.511881180884365E-010
   89.3950000000000         4.528727530262123E-010
   89.5850000000000         4.545621105143195E-010
   89.7750000000000         4.562554877609218E-010
   89.9650000000000         4.579522890781566E-010
   90.1550000000000         4.596519182601091E-010
   90.3450000000000         4.613537460932044E-010
   90.5350000000000         4.630572363630139E-010
   90.7250000000000         4.647619029384278E-010
   90.9150000000000         4.664673545837732E-010
   91.1050000000000         4.681733053550477E-010
   91.2950000000000         4.698795850365270E-010
   91.4850000000000         4.715861255455666E-010
   91.6750000000000         4.732929441745288E-010
   91.8650000000000         4.750001531322870E-010
   92.0550000000000         4.767079288922791E-010
   92.2450000000000         4.784164644675099E-010
   92.4350000000000         4.801258897463475E-010
   92.6250000000000         4.818362957360307E-010
   92.8150000000000         4.835477616555189E-010
   93.0050000000000         4.852603218583708E-010
   93.1950000000000         4.869739821285922E-010
   93.3850000000000         4.886886723748466E-010
   93.5750000000000         4.904041507463824E-010
   93.7650000000000         4.921198907988703E-010
   93.9550000000000         4.938352748526176E-010
   94.1450000000000         4.955497354166131E-010
   94.3350000000000         4.972627339080059E-010
   94.5250000000000         4.989737707741755E-010
   94.7150000000000         5.006824208829029E-010
   94.9050000000000         5.023883505180447E-010
   95.0950000000000         5.040912866698505E-010
   95.2850000000000         5.057910938259610E-010
   95.4750000000000         5.074877117880840E-010
   95.6650000000000         5.091811267214332E-010
   95.8550000000000         5.108715081337344E-010
   96.0450000000000         5.125589371058359E-010
   96.2350000000000         5.142435862817674E-010
   96.4250000000000         5.159257483781351E-010
   96.6150000000000         5.176059571926575E-010
   96.8050000000000         5.192849493293108E-010
   96.9950000000000         5.209635829924641E-010
   97.1850000000000         5.226426668734826E-010
   97.3750000000000         5.243228534520746E-010
   97.5650000000000         5.260044997386672E-010
   97.7550000000000         5.276880124472501E-010
   97.9450000000000         5.293737692657002E-010
   98.1350000000000         5.310621286924938E-010
   98.3250000000000         5.327534252888185E-010
   98.5150000000000         5.344478926336401E-010
   98.7050000000000         5.361456448076585E-010
   98.8950000000000         5.378466755114983E-010
   99.0850000000000         5.395508763424447E-010
   99.2750000000000         5.412580603853861E-010
   99.4650000000000         5.429679038686811E-010
   99.6550000000000         5.446798505691920E-010
   99.8450000000000         5.463933636812157E-010
   100.035000000000         5.481078573304373E-010
   100.225000000000         5.498228110283362E-010
   100.415000000000         5.515377472738325E-010
   100.605000000000         5.532522911149784E-010
   100.795000000000         5.549661449429469E-010
   100.985000000000         5.566791314997301E-010
   101.175000000000         5.583911164770609E-010
   101.365000000000         5.601020786779626E-010
   101.555000000000         5.618119546113853E-010
   101.745000000000         5.635207205050956E-010
   101.935000000000         5.652283062985436E-010
   102.125000000000         5.669346113479543E-010
   102.315000000000         5.686395870773710E-010
   102.505000000000         5.703432736782242E-010
   102.695000000000         5.720457395080730E-010
   102.885000000000         5.737470444097472E-010
   103.075000000000         5.754472670392981E-010
   103.265000000000         5.771464988958377E-010
   103.455000000000         5.788447906029250E-010
   103.645000000000         5.805421773704008E-010
   103.835000000000         5.822386554676930E-010
   104.025000000000         5.839341805522637E-010
   104.215000000000         5.856286451155776E-010
   104.405000000000         5.873219781587633E-010
   104.595000000000         5.890140970769459E-010
   104.785000000000         5.907048783401403E-010
   104.975000000000         5.923940936764065E-010
   105.165000000000         5.940813917162148E-010
   105.355000000000         5.957663881412017E-010
   105.545000000000         5.974487572514077E-010
   105.735000000000         5.991282401521288E-010
   105.925000000000         6.008046548022793E-010
   106.115000000000         6.024779204629566E-010
   106.305000000000         6.041480386511284E-010
   106.495000000000         6.058150754503242E-010
   106.685000000000         6.074791109997061E-010
   106.875000000000         6.091403117273462E-010
   107.065000000000         6.107987818528807E-010
   107.255000000000         6.124547301611400E-010
   107.445000000000         6.141084093223426E-010
   107.635000000000         6.157601220875597E-010
   107.825000000000         6.174101934637120E-010
   108.015000000000         6.190589388544980E-010
   108.205000000000         6.207066493869831E-010
   108.395000000000         6.223536586321326E-010
   108.585000000000         6.240005000424426E-010
   108.775000000000         6.256479021292816E-010
   108.965000000000         6.272964938060301E-010
   109.155000000000         6.289468411117515E-010
   109.345000000000         6.305990685848356E-010
   109.535000000000         6.322534734099759E-010
   109.725000000000         6.339100825975416E-010
   109.915000000000         6.355689239957904E-010
   110.105000000000         6.372300215838944E-010