  -1.42500000000000         4.376854508254020E-020
  -1.23500000000000         2.366057190494151E-019
  -1.04500000000000         1.194280990048420E-018
 -0.855000000000000         6.143715270354977E-018
 -0.665000000000000         2.478800037420862E-017
 -0.475000000000000         8.995369910987266E-017
 -0.285000000000000         2.705393951415672E-016
 -9.499999999999975E-002    7.315222561827985E-016
  9.500000000000020E-002    1.736648091855524E-015
  0.285000000000000         3.637608226857143E-015
  0.475000000000000         6.911007002466019E-015
  0.665000000000000         1.196925073018359E-014
  0.855000000000000         1.903653887457187E-014
   1.04500000000000         2.832040087998542E-014
   1.23500000000000         3.989169853700724E-014
   1.42500000000000         5.329322150760353E-014
   1.61500000000000         6.852599802744427E-014
   1.80500000000000         8.616687625145689E-014
   1.99500000000000         1.062660995177248E-013
   2.18500000000000         1.286957818657966E-013
   2.37500000000000         1.533956965092442E-013
   2.56500000000000         1.801174128584995E-013
   2.75500000000000         2.084882303322075E-013
   2.94500000000000         2.381341396441195E-013
   3.13500000000000         2.686088226911415E-013
   3.32500000000000         2.994490385952160E-013
   3.51500000000000         3.304845276263897E-013
   3.70500000000000         3.616458346951128E-013
   3.89500000000000         3.927991199946180E-013
   4.08500000000000         4.239020378308371E-013
   4.27500000000000         4.549100454486650E-013
   4.46500000000000         4.857086800978238E-013
   4.65500000000000         5.160788602042095E-013
   4.84500000000000         5.457257800005868E-013
   5.03500000000000         5.744232255131154E-013
   5.22500000000000         6.025072191270127E-013
   5.41500000000000         6.300467603096400E-013
   5.60500000000000         6.568961536735676E-013
   5.79500000000000         6.834405353827200E-013
   5.98500000000000         7.101496880577848E-013
   6.17500000000000         7.375742387860540E-013
   6.36500000000000         7.662978379625489E-013
   6.55500000000000         7.966572856737663E-013
   6.74500000000000         8.286904403806811E-013
   6.93500000000000         8.625176861297750E-013
   7.12500000000000         8.985036670544410E-013
   7.31500000000000         9.364963911808124E-013
   7.50500000000000         9.757605935889147E-013
   7.69500000000000         1.015621941963058E-012
   7.88500000000000         1.055452131067326E-012
   8.07500000000000         1.094651323916190E-012
   8.26500000000000         1.132900530060517E-012
   8.45500000000000         1.169977306446273E-012
   8.64500000000000         1.205396302249924E-012
   8.83500000000000         1.238774416017554E-012
   9.02500000000000         1.269011751666020E-012
   9.21500000000000         1.294236074913603E-012
   9.40500000000000         1.313879554322660E-012
   9.59500000000000         1.328784292075262E-012
   9.78500000000000         1.340234552380524E-012
   9.97500000000000         1.349159783406566E-012
   10.1650000000000         1.356147433496074E-012
   10.3550000000000         1.361935693763266E-012
   10.5450000000000         1.367032144353408E-012
   10.7350000000000         1.371853135648327E-012
   10.9250000000000         1.376647289255158E-012
   11.1150000000000         1.381432083680565E-012
   11.3050000000000         1.386263136627913E-012
   11.4950000000000         1.391451976959844E-012
   11.6850000000000         1.397654954970612E-012
   11.8750000000000         1.405562442974560E-012
   12.0650000000000         1.415557065182932E-012
   12.2550000000000         1.427700607932818E-012
   12.4450000000000         1.442115895280961E-012
   12.6350000000000         1.458012799323095E-012
   12.8250000000000         1.475054922234110E-012
   13.0150000000000         1.493598175782387E-012
   13.2050000000000         1.513211837479157E-012
   13.3950000000000         1.533630883875577E-012
   13.5850000000000         1.554546843563831E-012
   13.7750000000000         1.575598074792131E-012
   13.9650000000000         1.596628025500535E-012
   14.1550000000000         1.617631301330188E-012
   14.3450000000000         1.638674995646374E-012
   14.5350000000000         1.659840784271387E-012
   14.7250000000000         1.681308979458472E-012
   14.9150000000000         1.703685371565702E-012
   15.1050000000000         1.728198792941807E-012
   15.2950000000000         1.755973726250602E-012
   15.4850000000000         1.787394751524034E-012
   15.6750000000000         1.822060050735701E-012
   15.8650000000000         1.859370765302483E-012
   16.0550000000000         1.899044004668506E-012
   16.2450000000000         1.940529137761729E-012
   16.4350000000000         1.983025561006936E-012
   16.6250000000000         2.025909514985490E-012
   16.8150000000000         2.068713214219873E-012
   17.0050000000000         2.111318301700687E-012
   17.1950000000000         2.153533339377701E-012
   17.3850000000000         2.195261391763903E-012
   17.5750000000000         2.236178787672311E-012
   17.7650000000000         2.276188667177193E-012
   17.9550000000000         2.315575310344781E-012
   18.1450000000000         2.354265845907495E-012
   18.3350000000000         2.392306220167578E-012
   18.5250000000000         2.429560684367499E-012
   18.7150000000000         2.465381319585785E-012
   18.9050000000000         2.498818189481882E-012
   19.0950000000000         2.529342063311483E-012
   19.2850000000000         2.557025121749459E-012
   19.4750000000000         2.582355028783908E-012
   19.6650000000000         2.605872744235155E-012
   19.8550000000000         2.627857723793727E-012
   20.0450000000000         2.648354901941168E-012
   20.2350000000000         2.667353635966760E-012
   20.4250000000000         2.684784865849962E-012
   20.6150000000000         2.700411501650491E-012
   20.8050000000000         2.713964750588591E-012
   20.9950000000000         2.725360572906629E-012
   21.1850000000000         2.735429058036094E-012
   21.3750000000000         2.743969789898896E-012
   21.5650000000000         2.750941936035367E-012
   21.7550000000000         2.756996274400386E-012
   21.9450000000000         2.761580443422632E-012
   22.1350000000000         2.764517515131876E-012
   22.3250000000000         2.766383577674373E-012
   22.5150000000000         2.768673202662402E-012
   22.7050000000000         2.772990653668332E-012
   22.8950000000000         2.780396553260005E-012
   23.0850000000000         2.791488114530766E-012
   23.2750000000000         2.806510001302336E-012
   23.4650000000000         2.825354701221369E-012
   23.6550000000000         2.848210241115710E-012
   23.8450000000000         2.875549260517723E-012
   24.0350000000000         2.907129250796761E-012
   24.2250000000000         2.942348272001640E-012
   24.4150000000000         2.980640043517979E-012
   24.6050000000000         3.021484044976413E-012
   24.7950000000000         3.063930736760294E-012
   24.9850000000000         3.106926266155696E-012
   25.1750000000000         3.149820278511730E-012
   25.3650000000000         3.191951653884990E-012
   25.5550000000000         3.232941461817686E-012
   25.7450000000000         3.272284726812695E-012
   25.9350000000000         3.309506596885908E-012
   26.1250000000000         3.344926304331348E-012
   26.3150000000000         3.379037555490765E-012
   26.5050000000000         3.411968201571977E-012
   26.6950000000000         3.443818142834663E-012
   26.8850000000000         3.474770673883902E-012
   27.0750000000000         3.504969531745735E-012
   27.2650000000000         3.534751501242277E-012
   27.4550000000000         3.564699637164620E-012
   27.6450000000000         3.595309224419028E-012
   27.8350000000000         3.626465200541930E-012
   28.0250000000000         3.658347714008689E-012
   28.2150000000000         3.691289562858067E-012
   28.4050000000000         3.725097629063519E-012
   28.5950000000000         3.759471088901465E-012
   28.7850000000000         3.793585935770964E-012
   28.9750000000000         3.826144533400234E-012
   29.1650000000000         3.855892757832001E-012
   29.3550000000000         3.881742764061495E-012
   29.5450000000000         3.902905056983219E-012
   29.7350000000000         3.919266560374991E-012
   29.9250000000000         3.930934188294434E-012
   30.1150000000000         3.938245821627725E-012
   30.3050000000000         3.941896510842613E-012
   30.4950000000000         3.943077646571694E-012
   30.6850000000000         3.942628499793072E-012
   30.8750000000000         3.940381045053907E-012
   31.0650000000000         3.936028742949777E-012
   31.2550000000000         3.930470126777322E-012
   31.4450000000000         3.925379522213483E-012
   31.6350000000000         3.921814081192185E-012
   31.8250000000000         3.920314354723427E-012
   32.0150000000000         3.921017150796683E-012
   32.2050000000000         3.924056264027445E-012
   32.3950000000000         3.929527906063869E-012
   32.5850000000000         3.937235144099596E-012
   32.7750000000000         3.946924959001499E-012
   32.9650000000000         3.958352845850793E-012
   33.1550000000000         3.970930987101647E-012
   33.3450000000000         3.984453730793821E-012
   33.5350000000000         3.999467929617356E-012
   33.7250000000000         4.016770272611758E-012
   33.9150000000000         4.037190664065976E-012
   34.1050000000000         4.061091008271458E-012
   34.2950000000000         4.088109289483767E-012
   34.4850000000000         4.117334540890566E-012
   34.6750000000000         4.148169362177479E-012
   34.8650000000000         4.180501222891989E-012
   35.0550000000000         4.214145385257829E-012
   35.2450000000000         4.248968705968499E-012
   35.4350000000000         4.284731212708078E-012
   35.6250000000000         4.320938376444240E-012
   35.8150000000000         4.357069662112920E-012
   36.0050000000000         4.392729959923796E-012
   36.1950000000000         4.427649910966482E-012
   36.3850000000000         4.462044093749873E-012
   36.5750000000000         4.496017928067541E-012
   36.7650000000000         4.529556134801984E-012
   36.9550000000000         4.562571991701206E-012
   37.1450000000000         4.594689149732802E-012
   37.3350000000000         4.625856213461303E-012
   37.5250000000000         4.656178071616975E-012
   37.7150000000000         4.685761428172415E-012
   37.9050000000000         4.714693679245669E-012
   38.0950000000000         4.743139802409762E-012
   38.2850000000000         4.771189543312055E-012
   38.4750000000000         4.798801161223624E-012
   38.6650000000000         4.826004965938078E-012
   38.8550000000000         4.852904790271671E-012
   39.0450000000000         4.879510603601903E-012
   39.2350000000000         4.905658724700571E-012
   39.4250000000000         4.931030065124415E-012
   39.6150000000000         4.955298593079399E-012
   39.8050000000000         4.978185239986020E-012
   39.9950000000000         4.999811478031937E-012
   40.1850000000000         5.020099481920575E-012
   40.3750000000000         5.039321370983083E-012
   40.5650000000000         5.057908295207623E-012
   40.7550000000000         5.075334491748025E-012
   40.9450000000000         5.090324020900377E-012
   41.1350000000000         5.101258360386488E-012
   41.3250000000000         5.107626501302557E-012
   41.5150000000000         5.110558616661610E-012
   41.7050000000000         5.111728397070638E-012
   41.8950000000000         5.112358143333392E-012
   42.0850000000000         5.113387335619912E-012
   42.2750000000000         5.115570286025979E-012
   42.4650000000000         5.119538537998152E-012
   42.6550000000000         5.125702456172977E-012
   42.8450000000000         5.134453268123773E-012
   43.0350000000000         5.145982176752276E-012
   43.2250000000000         5.159955552998054E-012
   43.4150000000000         5.176561747118087E-012
   43.6050000000000         5.195143994622943E-012
   43.7950000000000         5.214777997024920E-012
   43.9850000000000         5.235594335824854E-012
   44.1750000000000         5.257857045530969E-012
   44.3650000000000         5.282259835037063E-012
   44.5550000000000         5.309404339079437E-012
   44.7450000000000         5.339037968527205E-012
   44.9350000000000         5.369779432345957E-012
   45.1250000000000         5.400196143706659E-012
   45.3150000000000         5.429557102895168E-012
   45.5050000000000         5.457641303758461E-012
   45.6950000000000         5.484608225358799E-012
   45.8850000000000         5.510781685637301E-012
   46.0750000000000         5.536545586967310E-012
   46.2650000000000         5.562141186881560E-012
   46.4550000000000         5.587665739078250E-012
   46.6450000000000         5.613240982886294E-012
   46.8350000000000         5.639186521323353E-012
   47.0250000000000         5.666060933835215E-012
   47.2150000000000         5.694169838603896E-012
   47.4050000000000         5.723220426817821E-012
   47.5950000000000         5.752649389083201E-012
   47.7850000000000         5.781879504268882E-012
   47.9750000000000         5.810324474958839E-012
   48.1650000000000         5.837633173907806E-012
   48.3550000000000         5.863520925850122E-012
   48.5450000000000         5.887846940695581E-012
   48.7350000000000         5.910654570783215E-012
   48.9250000000000         5.932155327801329E-012
   49.1150000000000         5.952662550995924E-012
   49.3050000000000         5.971843902968512E-012
   49.4950000000000         5.989182822150054E-012
   49.6850000000000         6.005299402885941E-012
   49.8750000000000         6.021615796498183E-012
   50.0650000000000         6.039129401292710E-012
   50.2550000000000         6.058349685022432E-012
   50.4450000000000         6.079485773436097E-012
   50.6350000000000         6.102076034250267E-012
   50.8250000000000         6.126145111827365E-012
   51.0150000000000         6.151430616940729E-012
   51.2050000000000         6.177289974166856E-012
   51.3950000000000         6.203927099348298E-012
   51.5850000000000         6.231222100057581E-012
   51.7750000000000         6.257656621759881E-012
   51.9650000000000         6.281030420839182E-012
   52.1550000000000         6.300037009676379E-012
   52.3450000000000         6.314268528439612E-012
   52.5350000000000         6.323621244665139E-012
   52.7250000000000         6.328391567552863E-012
   52.9150000000000         6.329571950044244E-012
   53.1050000000000         6.327505730234818E-012
   53.2950000000000         6.322370616711533E-012
   53.4850000000000         6.314919734556251E-012
   53.6750000000000         6.306171103753677E-012
   53.8650000000000         6.297888555144949E-012
   54.0550000000000         6.291988272419954E-012
   54.2450000000000         6.289962982600151E-012
   54.4350000000000         6.292959856623976E-012
   54.6250000000000         6.301475102242804E-012
   54.8150000000000         6.315546193744354E-012
   55.0050000000000         6.335021419894444E-012
   55.1950000000000         6.359077231653410E-012
   55.3850000000000         6.387237053467139E-012
   55.5750000000000         6.418681678956564E-012
   55.7650000000000         6.452336304093127E-012
   55.9550000000000         6.488180451552681E-012
   56.1450000000000         6.526210988253465E-012
   56.3350000000000         6.565411800706928E-012
   56.5250000000000         6.604082769435332E-012
   56.7150000000000         6.641055715949940E-012
   56.9050000000000         6.675637591204480E-012
   57.0950000000000         6.707599337235895E-012
   57.2850000000000         6.737247081820418E-012
   57.4750000000000         6.764696463145937E-012
   57.6650000000000         6.789839074529846E-012
   57.8550000000000         6.813048091865821E-012
   58.0450000000000         6.835117891283075E-012
   58.2350000000000         6.856527334204024E-012
   58.4250000000000         6.877333182243491E-012
   58.6150000000000         6.897685560317676E-012
   58.8050000000000         6.917826464782554E-012
   58.9950000000000         6.937915291476145E-012
   59.1850000000000         6.958072389994591E-012
   59.3750000000000         6.978364258735200E-012
   59.5650000000000         6.998779832628416E-012
   59.7550000000000         7.019298724223346E-012
   59.9450000000000         7.039914647748465E-012
   60.1350000000000         7.060607419014888E-012
   60.3250000000000         7.081218622040317E-012
   60.5150000000000         7.101273697628784E-012
   60.7050000000000         7.120193246683207E-012
   60.8950000000000         7.137435249116528E-012
   61.0850000000000         7.152751026621516E-012
   61.2750000000000         7.166168944060040E-012
   61.4650000000000         7.177689755001956E-012
   61.6550000000000         7.187413212350295E-012
   61.8450000000000         7.195408991863003E-012
   62.0350000000000         7.201793640405174E-012
   62.2250000000000         7.206831163238230E-012
   62.4150000000000         7.210544992852587E-012
   62.6050000000000         7.212928842654692E-012
   62.7950000000000         7.214545285735654E-012
   62.9850000000000         7.215725386059462E-012
   63.1750000000000         7.216188865530641E-012
   63.3650000000000         7.215551531449679E-012
   63.5550000000000         7.213384648561444E-012
   63.7450000000000         7.209533382370864E-012
   63.9350000000000         7.204351479535515E-012
   64.1250000000000         7.198474914615600E-012
   64.3150000000000         7.192550713026059E-012
   64.5050000000000         7.187182184792853E-012
   64.6950000000000         7.183118189022774E-012
   64.8850000000000         7.180715194910860E-012
   65.0750000000000         7.180234602749181E-012
   65.2650000000000         7.182418863484308E-012
   65.4550000000000         7.187667835062425E-012
   65.6450000000000         7.196131090708686E-012
   65.8350000000000         7.208089718064206E-012
   66.0250000000000         7.223477701797870E-012
   66.2150000000000         7.241895505087089E-012
   66.4050000000000         7.263147132970439E-012
   66.5950000000000         7.286265267286675E-012
   66.7850000000000         7.310854226556473E-012
   66.9750000000000         7.336930416831797E-012
   67.1650000000000         7.364043706442246E-012
   67.3550000000000         7.392334032638266E-012
   67.5450000000000         7.421914532247738E-012
   67.7350000000000         7.452717575259205E-012
   67.9250000000000         7.484230152399525E-012
   68.1150000000000         7.515583982171045E-012
   68.3050000000000         7.545857116472473E-012
   68.4950000000000         7.574350963834099E-012
   68.6850000000000         7.600810449153527E-012
   68.8750000000000         7.625302928130640E-012
   69.0650000000000         7.648012643661131E-012
   69.2550000000000         7.669197985647067E-012
   69.4450000000000         7.689189652073164E-012
   69.6350000000000         7.708384723811466E-012
   69.8250000000000         7.727140953732993E-012
   70.0150000000000         7.745710677632679E-012
   70.2050000000000         7.764304884534961E-012
   70.3950000000000         7.783145924948730E-012
   70.5850000000000         7.802388131578090E-012
   70.7750000000000         7.822038195406195E-012
   70.9650000000000         7.841931146811706E-012
   71.1550000000000         7.861663235368243E-012
   71.3450000000000         7.880921119681795E-012
   71.5350000000000         7.899256587239053E-012
   71.7250000000000         7.916631574025586E-012
   71.9150000000000         7.932934453210837E-012
   72.1050000000000         7.948108627757232E-012
   72.2950000000000         7.962522133279632E-012
   72.4850000000000         7.976157988633903E-012
   72.6750000000000         7.989141649344846E-012
   72.8650000000000         8.001157788101302E-012
   73.0550000000000         8.011550853364367E-012
   73.2450000000000         8.019709485902541E-012
   73.4350000000000         8.024744144224065E-012
   73.6250000000000         8.026039795971419E-012
   73.8150000000000         8.024023179633969E-012
   74.0050000000000         8.019709395915683E-012
   74.1950000000000         8.014178690622942E-012
   74.3850000000000         8.008371601218011E-012
   74.5750000000000         8.002922506019639E-012
   74.7650000000000         7.998345918719562E-012
   74.9550000000000         7.994972984954263E-012
   75.1450000000000         7.993026444724910E-012
   75.3350000000000         7.992219148787679E-012
   75.5250000000000         7.993075986402828E-012
   75.7150000000000         7.995705428423374E-012
   75.9050000000000         7.999497043555554E-012
   76.0950000000000         8.005113391841913E-012
   76.2850000000000         8.013940774619286E-012
   76.4750000000000         8.027195658040319E-012
   76.6650000000000         8.044623276000329E-012
   76.8550000000000         8.064806653944025E-012
   77.0450000000000         8.086735025803904E-012
   77.2350000000000         8.110705536118200E-012
   77.4250000000000         8.137355672790489E-012
   77.6150000000000         8.166489272853109E-012
   77.8050000000000         8.196850818241786E-012
   77.9950000000000         8.227099951712015E-012
   78.1850000000000         8.256403091548308E-012
   78.3750000000000         8.284285927430180E-012
   78.5650000000000         8.310670522934157E-012
   78.7550000000000         8.335506025587075E-012
   78.9450000000000         8.359216470764469E-012
   79.1350000000000         8.382082956246042E-012
   79.3250000000000         8.404000868389516E-012
   79.5150000000000         8.424829040399402E-012
   79.7050000000000         8.443798004512972E-012
   79.8950000000000         8.459975565923721E-012
   80.0850000000000         8.472944761166206E-012
   80.2750000000000         8.483214649352992E-012
   80.4650000000000         8.491646784575100E-012
   80.6550000000000         8.498888565965639E-012
   80.8450000000000         8.505312298369473E-012
   81.0350000000000         8.511128914185507E-012
   81.2250000000000         8.516519526916959E-012
   81.4150000000000         8.521565019569026E-012
   81.6050000000000         8.526211646493283E-012
   81.7950000000000         8.530507881430806E-012
   81.9850000000000         8.534422637813275E-012
   82.1750000000000         8.537863436470590E-012
   82.3650000000000         8.540737503930969E-012
   82.5550000000000         8.542620821797939E-012
   82.7450000000000         8.543060174348056E-012
   82.9350000000000         8.542066300371533E-012
   83.1250000000000         8.539981551677821E-012
   83.3150000000000         8.537193649617733E-012
   83.5050000000000         8.534044987483415E-012
   83.6950000000000         8.530853669869887E-012
   83.8850000000000         8.527928254731798E-012
   84.0750000000000         8.525360215027043E-012
   84.2650000000000         8.523057357615551E-012
   84.4550000000000         8.520877340782616E-012
   84.6450000000000         8.518678096613516E-012
   84.8350000000000         8.516395375745517E-012
   85.0250000000000         8.514203614575024E-012
   85.2150000000000         8.512642741197837E-012
   85.4050000000000         8.512478867756721E-012
   85.5950000000000         8.514404111382874E-012
   85.7850000000000         8.518597632300169E-012
   85.9750000000000         8.524768230382140E-012
   86.1650000000000         8.532605943446539E-012
   86.3550000000000         8.541928863281696E-012
   86.5450000000000         8.552713304313254E-012
   86.7350000000000         8.565048240421241E-012
   86.9250000000000         8.578981114972640E-012
   87.1150000000000         8.594504967088205E-012
   87.3050000000000         8.611656366467544E-012
   87.4950000000000         8.630520327082834E-012
   87.6850000000000         8.651117709992556E-012
   87.8750000000000         8.673149639512363E-012
   88.0650000000000         8.696350634135317E-012
   88.2550000000000         8.720531814807795E-012
   88.4450000000000         8.745532384452363E-012
   88.6350000000000         8.771352317093961E-012
   88.8250000000000         8.798030634975756E-012
   89.0150000000000         8.825467585713139E-012
   89.2050000000000         8.852915436191242E-012
   89.3950000000000         8.878927436534224E-012
   89.5850000000000         8.901933512393454E-012
   89.7750000000000         8.921522536413245E-012
   89.9650000000000         8.937974997861180E-012
   90.1550000000000         8.951202671178767E-012
   90.3450000000000         8.961363428696856E-012
   90.5350000000000         8.968833803219293E-012
   90.7250000000000         8.973995317787461E-012
   90.9150000000000         8.977374780578635E-012
   91.1050000000000         8.979553823036184E-012
   91.2950000000000         8.981105764523499E-012
   91.4850000000000         8.982524047372894E-012
   91.6750000000000         8.984283122948245E-012
   91.8650000000000         8.986801888816783E-012
   92.0550000000000         8.990292987428482E-012
   92.2450000000000         8.994633826495531E-012
   92.4350000000000         8.999555969791594E-012
   92.6250000000000         9.004926076766564E-012
   92.8150000000000         9.010595058789365E-012
   93.0050000000000         9.016369665982855E-012
   93.1950000000000         9.021975043357296E-012
   93.3850000000000         9.026759520500231E-012
   93.5750000000000         9.029522168483765E-012
   93.7650000000000         9.029273963776852E-012
   93.9550000000000         9.025906888796899E-012
   94.1450000000000         9.019629093127093E-012
   94.3350000000000         9.010619362006244E-012
   94.5250000000000         8.999176249729072E-012
   94.7150000000000         8.985736168077264E-012
   94.9050000000000         8.970699439335675E-012
   95.0950000000000         8.954587652411324E-012
   95.2850000000000         8.937960837456907E-012
   95.4750000000000         8.921139198611285E-012
   95.6650000000000         8.904727225395865E-012
   95.8550000000000         8.888974695796403E-012
   96.0450000000000         8.873889863244670E-012
   96.2350000000000         8.860029663945314E-012
   96.4250000000000         8.848344502342659E-012
   96.6150000000000         8.840002503094100E-012
   96.8050000000000         8.835857367911813E-012
   96.9950000000000         8.836098800451447E-012
   97.1850000000000         8.840185420027667E-012
   97.3750000000000         8.846928592591349E-012
   97.5650000000000         8.855681566250914E-012
   97.7550000000000         8.866498755349654E-012
   97.9450000000000         8.879253276956942E-012
   98.1350000000000         8.893831639784523E-012
   98.3250000000000         8.909905108279936E-012
   98.5150000000000         8.926893470631599E-012
   98.7050000000000         8.944165468047508E-012
   98.8950000000000         8.961135617858539E-012
   99.0850000000000         8.977328615494259E-012
   99.2750000000000         8.992177700622120E-012
   99.4650000000000         9.004711010015685E-012
   99.6550000000000         9.014367927722445E-012
   99.8450000000000         9.021070424329992E-012
   100.035000000000         9.024861439791132E-012
   100.225000000000         9.026026166829063E-012
   100.415000000000         9.024947596426636E-012
   100.605000000000         9.022099129248384E-012
   100.795000000000         9.018001012504322E-012
   100.985000000000         9.013082984510729E-012
   101.175000000000         9.007755732190969E-012
   101.365000000000         9.002205616643391E-012
   101.555000000000         8.996425860876442E-012
   101.745000000000         8.990399176731846E-012
   101.935000000000         8.983923270680896E-012
   102.125000000000         8.977054681124642E-012
   102.315000000000         8.970164027026188E-012
   102.505000000000         8.963559028163529E-012
   102.695000000000         8.957291398744287E-012
   102.885000000000         8.951388240066140E-012
   103.075000000000         8.945932858133360E-012
   103.265000000000         8.940851483228461E-012
   103.455000000000         8.935995985691742E-012
   103.645000000000         8.931223328336820E-012
   103.835000000000         8.926324162797270E-012
   104.025000000000         8.921025389170403E-012
   104.215000000000         8.915256859209980E-012
   104.405000000000         8.909084108864014E-012
   104.595000000000         8.902368898360076E-012
   104.785000000000         8.894727893316988E-012
   104.975000000000         8.885561515985533E-012
   105.165000000000         8.874459117882160E-012
   105.355000000000         8.861488250507820E-012
   105.545000000000         8.846978976124292E-012
   105.735000000000         8.831309344399239E-012
   105.925000000000         8.814948186388785E-012
   106.115000000000         8.798378549602555E-012
   106.305000000000         8.781986808861994E-012
   106.495000000000         8.765979864678197E-012
   106.685000000000         8.750621781636842E-012
   106.875000000000         8.735975929406603E-012
   107.065000000000         8.722153773141364E-012
   107.255000000000         8.709545972268285E-012
   107.445000000000         8.698399806367858E-012
   107.635000000000         8.688905635182469E-012
   107.825000000000         8.681096755101038E-012
   108.015000000000         8.674884008608161E-012
   108.205000000000         8.670315204301326E-012
   108.395000000000         8.668028040683361E-012
   108.585000000000         8.669061834602602E-012
   108.775000000000         8.673667798914657E-012
   108.965000000000         8.681418374921405E-012
   109.155000000000         8.690986260014309E-012
   109.345000000000         8.701663942695093E-012
   109.535000000000         8.713194770278660E-012
   109.725000000000         8.724869962669951E-012
   109.915000000000         8.736681543033830E-012
   110.105000000000         8.748593711445890E-012