  -1.42500000000000         4.607215271846337E-019
  -1.23500000000000         1.569143461940365E-018
  -1.04500000000000         8.511648864364947E-018
 -0.855000000000000         4.358765934938828E-017
 -0.665000000000000         1.526679733227553E-016
 -0.475000000000000         5.332867502105505E-016
 -0.285000000000000         1.367615313280971E-015
 -9.499999999999975E-002    3.484835855574096E-015
  9.500000000000020E-002    7.095436098875643E-015
  0.285000000000000         1.291467058535194E-014
  0.475000000000000         2.154215863158360E-014
  0.665000000000000         3.170251218649606E-014
  0.855000000000000         4.268999459653848E-014
   1.04500000000000         5.503486861834104E-014
   1.23500000000000         6.676826461346748E-014
   1.42500000000000         7.430039823491447E-014
   1.61500000000000         8.604461776340921E-014
   1.80500000000000         9.964883722619742E-014
   1.99500000000000         1.119219339976750E-013
   2.18500000000000         1.241799854557121E-013
   2.37500000000000         1.358191160542631E-013
   2.56500000000000         1.454621086747405E-013
   2.75500000000000         1.531780752590280E-013
   2.94500000000000         1.588841280242554E-013
   3.13500000000000         1.619020093128203E-013
   3.32500000000000         1.627318423090158E-013
   3.51500000000000         1.639575159138660E-013
   3.70500000000000         1.640562427042711E-013
   3.89500000000000         1.638730762378894E-013
   4.08500000000000         1.635260588802074E-013
   4.27500000000000         1.628740213074544E-013
   4.46500000000000         1.613221328942187E-013
   4.65500000000000         1.583639734887867E-013
   4.84500000000000         1.537088664730787E-013
   5.03500000000000         1.483695073430123E-013
   5.22500000000000         1.472514780664362E-013
   5.41500000000000         1.426384291191124E-013
   5.60500000000000         1.399867641853884E-013
   5.79500000000000         1.394277801214781E-013
   5.98500000000000         1.417211954055204E-013
   6.17500000000000         1.469582859446800E-013
   6.36500000000000         1.553953895973730E-013
   6.55500000000000         1.641777442049125E-013
   6.74500000000000         1.730133579731399E-013
   6.93500000000000         1.830629130699516E-013
   7.12500000000000         1.957368861370606E-013
   7.31500000000000         2.041865257194803E-013
   7.50500000000000         2.091208680500170E-013
   7.69500000000000         2.104722727304438E-013
   7.88500000000000         2.087928757355367E-013
   8.07500000000000         2.038302068840876E-013
   8.26500000000000         1.987930156877670E-013
   8.45500000000000         1.914888410044032E-013
   8.64500000000000         1.813426937708702E-013
   8.83500000000000         1.700058722041854E-013
   9.02500000000000         1.482818714638779E-013
   9.21500000000000         1.172373206159462E-013
   9.40500000000000         8.953614684780891E-014
   9.59500000000000         6.735582949537249E-014
   9.78500000000000         5.317322634948891E-014
   9.97500000000000         4.077657392463498E-014
   10.1650000000000         3.277763754387216E-014
   10.3550000000000         2.815141790025600E-014
   10.5450000000000         2.549543041701762E-014
   10.7350000000000         2.525184637160586E-014
   10.9250000000000         2.521292843715182E-014
   11.1150000000000         2.515332867238445E-014
   11.3050000000000         2.569986024707394E-014
   11.4950000000000         2.891951166798395E-014
   11.6850000000000         3.637499370852200E-014
   11.8750000000000         4.686172212251163E-014
   12.0650000000000         5.834482743930074E-014
   12.2550000000000         6.948193834897182E-014
   12.4450000000000         8.225792847359203E-014
   12.6350000000000         8.507790354887226E-014
   12.8250000000000         9.431286393548493E-014
   13.0150000000000         1.008792786779593E-013
   13.2050000000000         1.055803181301434E-013
   13.3950000000000         1.093570123584916E-013
   13.5850000000000         1.108109843599776E-013
   13.7750000000000         1.107809233063328E-013
   13.9650000000000         1.105869788873890E-013
   14.1550000000000         1.105001351089594E-013
   14.3450000000000         1.110124366403687E-013
   14.5350000000000         1.117853383597664E-013
   14.7250000000000         1.141956636095407E-013
   14.9150000000000         1.213453059402554E-013
   15.1050000000000         1.366907085450588E-013
   15.2950000000000         1.556770104948806E-013
   15.4850000000000         1.750706239622956E-013
   15.6750000000000         1.898272624763108E-013
   15.8650000000000         2.029171013845494E-013
   16.0550000000000         2.146959445735931E-013
   16.2450000000000         2.219896669340135E-013
   16.4350000000000         2.253411040681766E-013
   16.6250000000000         2.260689378113379E-013
   16.8150000000000         2.244963172874247E-013
   17.0050000000000         2.239782877737754E-013
   17.1950000000000         2.203905298790074E-013
   17.3850000000000         2.188521268178553E-013
   17.5750000000000         2.118573037969591E-013
   17.7650000000000         2.092993225702243E-013
   17.9550000000000         2.052969212991236E-013
   18.1450000000000         2.019718740978695E-013
   18.3350000000000         1.984531181135339E-013
   18.5250000000000         1.936991366224607E-013
   18.7150000000000         1.833601814647685E-013
   18.9050000000000         1.686068700730911E-013
   19.0950000000000         1.526970649753459E-013
   19.2850000000000         1.387035501612466E-013
   19.4750000000000         1.279270502013630E-013
   19.6650000000000         1.196278492854510E-013
   19.8550000000000         1.117929881732071E-013
   20.0450000000000         1.039667817998511E-013
   20.2350000000000         9.601989215374879E-014
   20.4250000000000         8.746673819574509E-014
   20.6150000000000         7.702416496771890E-014
   20.8050000000000         6.564161332806818E-014
   20.9950000000000         5.431441107234150E-014
   21.1850000000000         5.166964292202791E-014
   21.3750000000000         3.823279773905416E-014
   21.5650000000000         3.515821422378848E-014
   21.7550000000000         2.857166330272732E-014
   21.9450000000000         1.968274745775758E-014
   22.1350000000000         1.123379685007715E-014
   22.3250000000000         8.408966755152109E-015
   22.5150000000000         1.569234890831589E-014
   22.7050000000000         2.975450378568417E-014
   22.8950000000000         4.820233402140228E-014
   23.0850000000000         6.855094251292337E-014
   23.2750000000000         8.957418139833181E-014
   23.4650000000000         1.087910809072837E-013
   23.6550000000000         1.317935495594638E-013
   23.8450000000000         1.559856020406776E-013
   24.0350000000000         1.764353482649853E-013
   24.2250000000000         1.942911907337422E-013
   24.4150000000000         2.087800883856022E-013
   24.6050000000000         2.211567690715984E-013
   24.7950000000000         2.256505128639943E-013
   24.9850000000000         2.269340070876018E-013
   25.1750000000000         2.245819124496165E-013
   25.3650000000000         2.189062493741663E-013
   25.5550000000000         2.125654130752504E-013
   25.7450000000000         2.015742184511700E-013
   25.9350000000000         1.902349402142222E-013
   26.1250000000000         1.826040855272643E-013
   26.3150000000000         1.764617161508118E-013
   26.5050000000000         1.701766636514105E-013
   26.6950000000000         1.650858759558202E-013
   26.8850000000000         1.607302403519456E-013
   27.0750000000000         1.571524739831547E-013
   27.2650000000000         1.563419417699148E-013
   27.4550000000000         1.589015942547410E-013
   27.6450000000000         1.633045873705927E-013
   27.8350000000000         1.646530560283821E-013
   28.0250000000000         1.709523488848938E-013
   28.2150000000000         1.758039547927434E-013
   28.4050000000000         1.800704263172839E-013
   28.5950000000000         1.817554667137268E-013
   28.7850000000000         1.773481845441496E-013
   28.9750000000000         1.653738957639615E-013
   29.1650000000000         1.477653087809472E-013
   29.3550000000000         1.243400199505757E-013
   29.5450000000000         9.842095817285212E-014
   29.7350000000000         7.380539331947839E-014
   29.9250000000000         4.901174267466810E-014
   30.1150000000000         2.795281872838604E-014
   30.3050000000000         1.047548879675557E-014
   30.4950000000000         1.957518877786110E-015
   30.6850000000000        -6.685379705390783E-015
   30.8750000000000        -1.697203860161562E-014
   31.0650000000000        -2.884166775763140E-014
   31.2550000000000        -2.967008142610832E-014
   31.4450000000000        -2.391522977220563E-014
   31.6350000000000        -1.361572834671120E-014
   31.8250000000000        -2.170866061277700E-015
   32.0150000000000         9.568719463978158E-015
   32.2050000000000         2.242194612300296E-014
   32.3950000000000         3.517428583936065E-014
   32.5850000000000         4.595453558934297E-014
   32.7750000000000         5.604351600962638E-014
   32.9650000000000         6.425002977241151E-014
   33.1550000000000         6.815145707870714E-014
   33.3450000000000         7.419321336522526E-014
   33.5350000000000         8.385098477723714E-014
   33.7250000000000         9.827894147961812E-014
   33.9150000000000         1.166725475121633E-013
   34.1050000000000         1.349100230718560E-013
   34.2950000000000         1.494929370577095E-013
   34.4850000000000         1.581412882770086E-013
   34.6750000000000         1.664357779010228E-013
   34.8650000000000         1.738995980411951E-013
   35.0550000000000         1.802494794939509E-013
   35.2450000000000         1.863117911446769E-013
   35.4350000000000         1.901356482193213E-013
   35.6250000000000         1.909923911086960E-013
   35.8150000000000         1.893369317195016E-013
   36.0050000000000         1.860346241844681E-013
   36.1950000000000         1.815438078438092E-013
   36.3850000000000         1.805002214550316E-013
   36.5750000000000         1.771190871520017E-013
   36.7650000000000         1.759146679473875E-013
   36.9550000000000         1.716206678339063E-013
   37.1450000000000         1.664546798671030E-013
   37.3350000000000         1.616196751697539E-013
   37.5250000000000         1.575577791004741E-013
   37.7150000000000         1.538459741146720E-013
   37.9050000000000         1.507040371827415E-013
   38.0950000000000         1.487288382287682E-013
   38.2850000000000         1.465315923216927E-013
   38.4750000000000         1.441170172737848E-013
   38.6650000000000         1.422388218257123E-013
   38.8550000000000         1.409172237910472E-013
   39.0450000000000         1.391439691587634E-013
   39.2350000000000         1.360994108272228E-013
   39.4250000000000         1.309673304763965E-013
   39.6150000000000         1.244908585234353E-013
   39.8050000000000         1.164212141778368E-013
   39.9950000000000         1.112233968318105E-013
   40.1850000000000         1.023345388380671E-013
   40.3750000000000         1.000011355041228E-013
   40.5650000000000         9.565069843841041E-014
   40.7550000000000         8.778294935529842E-014
   40.9450000000000         7.000156803787401E-014
   41.1350000000000         4.509674234223202E-014
   41.3250000000000         2.193631993218039E-014
   41.5150000000000         8.928052268381534E-015
   41.7050000000000         3.385425721396174E-015
   41.8950000000000         3.243482307586256E-015
   42.0850000000000         7.590120708405342E-015
   42.2750000000000         1.538830461862806E-014
   42.4650000000000         2.638276877266280E-014
   42.6550000000000         3.850058043601256E-014
   42.8450000000000         5.361322957236741E-014
   43.0350000000000         6.774370335925027E-014
   43.2250000000000         7.934446764893215E-014
   43.4150000000000         9.545757571982138E-014
   43.6050000000000         1.001450295944661E-013
   43.7950000000000         1.065286799000353E-013
   43.9850000000000         1.125906758887419E-013
   44.1750000000000         1.217536368072140E-013
   44.3650000000000         1.351178316779765E-013
   44.5550000000000         1.506137898206945E-013
   44.7450000000000         1.613191517347539E-013
   44.9350000000000         1.622752042521073E-013
   45.1250000000000         1.579007048079006E-013
   45.3150000000000         1.511620234922006E-013
   45.5050000000000         1.444611434898251E-013
   45.6950000000000         1.394011891453252E-013
   45.8850000000000         1.361089190494252E-013
   46.0750000000000         1.350900423190843E-013
   46.2650000000000         1.343373251993394E-013
   46.4550000000000         1.343421716079105E-013
   46.6450000000000         1.348709211083387E-013
   46.8350000000000         1.382400098080695E-013
   47.0250000000000         1.446485429483764E-013
   47.2150000000000         1.512346651430287E-013
   47.4050000000000         1.545610002666871E-013
   47.5950000000000         1.552175498952072E-013
   47.7850000000000         1.524678731119602E-013
   47.9750000000000         1.469528709928682E-013
   48.1650000000000         1.405071179436092E-013
   48.3550000000000         1.319955340807728E-013
   48.5450000000000         1.240677800819488E-013
   48.7350000000000         1.160125366300025E-013
   48.9250000000000         1.103112214553882E-013
   49.1150000000000         1.055542858561549E-013
   49.3050000000000         9.635468227635177E-014
   49.4950000000000         8.616025647671744E-014
   49.6850000000000         8.348796179579713E-014
   49.8750000000000         8.826354991199464E-014
   50.0650000000000         9.609018476724613E-014
   50.2550000000000         1.062285913350788E-013
   50.4450000000000         1.162565498614203E-013
   50.6350000000000         1.215356692350865E-013
   50.8250000000000         1.318230421028019E-013
   51.0150000000000         1.343401696168042E-013
   51.2050000000000         1.378635906582369E-013
   51.3950000000000         1.425272007253351E-013
   51.5850000000000         1.447885962144930E-013
   51.7750000000000         1.334695269676192E-013
   51.9650000000000         1.125704633408157E-013
   52.1550000000000         8.749889284020701E-014
   52.3450000000000         6.230656782539739E-014
   52.5350000000000         3.614307665383071E-014
   52.7250000000000         1.407084848010237E-014
   52.9150000000000        -1.645769623456627E-015
   53.1050000000000        -2.010391258102437E-014
   53.2950000000000        -3.394991397988476E-014
   53.4850000000000        -4.448042449675331E-014
   53.6750000000000        -4.761042605665276E-014
   53.8650000000000        -3.957429614049825E-014
   54.0550000000000        -2.253394306995886E-014
   54.2450000000000         1.215102861509154E-015
   54.4350000000000         3.033093949452854E-014
   54.6250000000000         5.930322491420788E-014
   54.8150000000000         8.881352773370071E-014
   55.0050000000000         1.161888527935648E-013
   55.1950000000000         1.370302183534540E-013
   55.3850000000000         1.593889586331701E-013
   55.5750000000000         1.716070991502582E-013
   55.7650000000000         1.826521128135340E-013
   55.9550000000000         1.946547025502184E-013
   56.1450000000000         2.056667364054069E-013
   56.3350000000000         2.069733946836635E-013
   56.5250000000000         2.000894340363480E-013
   56.7150000000000         1.890994766437405E-013
   56.9050000000000         1.749202628777206E-013
   57.0950000000000         1.615191690319448E-013
   57.2850000000000         1.505623529104005E-013
   57.4750000000000         1.383785031476790E-013
   57.6650000000000         1.262805640513496E-013
   57.8550000000000         1.180248815905079E-013
   58.0450000000000         1.142887964858318E-013
   58.2350000000000         1.110737605767997E-013
   58.4250000000000         1.079351661544083E-013
   58.6150000000000         1.063003925212248E-013
   58.8050000000000         1.057091281616944E-013
   58.9950000000000         1.057522054550864E-013
   59.1850000000000         1.064277789496085E-013
   59.3750000000000         1.071708393725843E-013
   59.5650000000000         1.077299384507415E-013
   59.7550000000000         1.082583941274672E-013
   59.9450000000000         1.087513271895479E-013
   60.1350000000000         1.090673177201946E-013
   60.3250000000000         1.078927141264489E-013
   60.5150000000000         1.032133446995049E-013
   60.7050000000000         9.593980324177586E-014
   60.8950000000000         8.555495921425354E-014
   61.0850000000000         7.566375136457239E-014
   61.2750000000000         6.557748483040172E-014
   61.4650000000000         5.569420929504984E-014
   61.6550000000000         4.665797331906488E-014
   61.8450000000000         3.750812681469853E-014
   62.0350000000000         2.969869994500220E-014
   62.2250000000000         2.332785619244185E-014
   62.4150000000000         1.576508711660551E-014
   62.6050000000000         9.328068695014409E-015
   62.7950000000000         7.687121630891123E-015
   62.9850000000000         4.734987040768132E-015
   63.1750000000000         1.437442348063817E-016
   63.3650000000000        -6.852524034396545E-015
   63.5550000000000        -1.595676952596213E-014
   63.7450000000000        -2.458287458542952E-014
   63.9350000000000        -2.996347104979154E-014
   64.1250000000000        -3.189510705460393E-014
   64.3150000000000        -3.046490967740897E-014
   64.5050000000000        -2.604591383003519E-014
   64.6950000000000        -1.673298901288280E-014
   64.8850000000000        -8.561685849374856E-015
   65.0750000000000         3.502820989580123E-015
   65.2650000000000         1.948939727490742E-014
   65.4550000000000         3.576293512633513E-014
   65.6450000000000         5.332396641324066E-014
   65.8350000000000         7.255632153960198E-014
   66.0250000000000         8.942245460424846E-014
   66.2150000000000         1.044491589664961E-013
   66.4050000000000         1.192521871739967E-013
   66.5950000000000         1.240965951022095E-013
   66.7850000000000         1.347345551061810E-013
   66.9750000000000         1.397516583182931E-013
   67.1650000000000         1.456513902127095E-013
   67.3550000000000         1.521415171138309E-013
   67.5450000000000         1.592321629858906E-013
   67.7350000000000         1.650103950295565E-013
   67.9250000000000         1.667009432896152E-013
   68.1150000000000         1.633393700948125E-013
   68.3050000000000         1.553252014991554E-013
   68.4950000000000         1.446100338863944E-013
   68.6850000000000         1.339108642128038E-013
   68.8750000000000         1.239047039673720E-013
   69.0650000000000         1.151449331956605E-013
   69.2550000000000         1.078586666563006E-013
   69.4450000000000         1.025799273026374E-013
   69.6350000000000         9.947345941632827E-014
   69.8250000000000         9.796053975763450E-014
   70.0150000000000         9.751023813378777E-014
   70.2050000000000         9.821825557446448E-014
   70.3950000000000         1.001084856230882E-013
   70.5850000000000         1.024410578438760E-013
   70.7750000000000         1.044017192940549E-013
   70.9650000000000         1.049977691850118E-013
   71.1550000000000         1.027084261469486E-013
   71.3450000000000         1.000061455746571E-013
   71.5350000000000         9.299877608071750E-014
   71.7250000000000         8.989582167225610E-014
   71.9150000000000         8.171343290932700E-014
   72.1050000000000         7.801472021063179E-014
   72.2950000000000         7.370639055149447E-014
   72.4850000000000         6.982892896714484E-014
   72.6750000000000         6.684118377962216E-014
   72.8650000000000         5.964448734095994E-014
   73.0550000000000         4.975619963866281E-014
   73.2450000000000         3.612414286843873E-014
   73.4350000000000         1.687226051602864E-014
   73.6250000000000        -3.233821070200235E-015
   73.8150000000000        -1.799371932401092E-014
   74.0050000000000        -2.741453034213976E-014
   74.1950000000000        -3.080342010777458E-014
   74.3850000000000        -3.032383678623373E-014
   74.5750000000000        -2.703506003872714E-014
   74.7650000000000        -2.113954311995923E-014
   74.9550000000000        -1.436502283059364E-014
   75.1450000000000        -6.124874320473279E-015
   75.3350000000000        -2.372977650352262E-015
   75.5250000000000         1.139232096768992E-014
   75.7150000000000         1.628601609068358E-014
   75.9050000000000         2.362572214283007E-014
   76.0950000000000         3.549373350307458E-014
   76.2850000000000         5.742608520606079E-014
   76.4750000000000         8.209900343639405E-014
   76.6650000000000         1.013496066689757E-013
   76.8550000000000         1.111070032646844E-013
   77.0450000000000         1.197179636814007E-013
   77.2350000000000         1.326031975217278E-013
   77.4250000000000         1.479245569234336E-013
   77.6150000000000         1.587449174199127E-013
   77.8050000000000         1.608502971977649E-013
   77.9950000000000         1.575616340677641E-013
   78.1850000000000         1.508924694721764E-013
   78.3750000000000         1.426110661264626E-013
   78.5650000000000         1.351215181259265E-013
   78.7550000000000         1.263048255890206E-013
   78.9450000000000         1.232788078572336E-013
   79.1350000000000         1.174210393172269E-013
   79.3250000000000         1.132938253508992E-013
   79.5150000000000         1.059500905426205E-013
   79.7050000000000         9.372321591599369E-014
   79.8950000000000         7.656690419714820E-014
   80.0850000000000         5.995094046057953E-014
   80.2750000000000         4.815314571610044E-014
   80.4650000000000         4.060617241135377E-014
   80.6550000000000         3.562310538380092E-014
   80.8450000000000         3.199513044601899E-014
   81.0350000000000         2.923240445959431E-014
   81.2250000000000         2.751088745042166E-014
   81.4150000000000         2.559956151871777E-014
   81.6050000000000         2.331230084189627E-014
   81.7950000000000         2.191122481624861E-014
   81.9850000000000         1.929673710443868E-014
   82.1750000000000         1.692219613045571E-014
   82.3650000000000         1.333114555775138E-014
   82.5550000000000         6.493253041904587E-015
   82.7450000000000        -1.868489356443159E-015
   82.9350000000000        -8.593341975399730E-015
   83.1250000000000        -1.335138111631298E-014
   83.3150000000000        -1.599495635827806E-014
   83.5050000000000        -1.714885558190873E-014
   83.6950000000000        -1.644396140260492E-014
   83.8850000000000        -1.434988215622242E-014
   84.0750000000000        -1.268211473592503E-014
   84.2650000000000        -1.155848959558196E-014
   84.4550000000000        -1.138905601425662E-014
   84.6450000000000        -1.176088260783717E-014
   84.8350000000000        -1.226775810796159E-014
   85.0250000000000        -1.080341210772674E-014
   85.2150000000000        -5.626833967955624E-015
   85.4050000000000         3.901850377247552E-015
   85.5950000000000         1.636387200334977E-014
   85.7850000000000         2.777845344183986E-014
   85.9750000000000         3.717521057893483E-014
   86.1650000000000         4.532703220421548E-014
   86.3550000000000         5.280896606060750E-014
   86.5450000000000         6.071146585052694E-014
   86.7350000000000         6.912996686514296E-014
   86.9250000000000         7.753187051799327E-014
   87.1150000000000         8.587709911953735E-014
   87.3050000000000         9.466394697876361E-014
   87.4950000000000         1.039040594979823E-013
   87.6850000000000         1.129104974464414E-013
   87.8750000000000         1.190045501304556E-013
   88.0650000000000         1.252164459006630E-013
   88.2550000000000         1.293222980201417E-013
   88.4450000000000         1.338415929753479E-013
   88.6350000000000         1.379471716730425E-013
   88.8250000000000         1.428772270827015E-013
   89.0150000000000         1.459327806792269E-013
   89.2050000000000         1.429919611955539E-013
   89.3950000000000         1.308185687305769E-013
   89.5850000000000         1.113506508402482E-013
   89.7750000000000         9.484960199961851E-014
   89.9650000000000         7.833420271550498E-014
   90.1550000000000         6.090446378541089E-014
   90.3450000000000         4.605087851025821E-014
   90.5350000000000         3.258464277856931E-014
   90.7250000000000         2.174708951792646E-014
   90.9150000000000         1.382620302075301E-014
   91.1050000000000         9.111086006092902E-015
   91.2950000000000         7.225140176161982E-015
   91.4850000000000         7.704152975356902E-015
   91.6750000000000         1.081243202835016E-014
   91.8650000000000         1.570089290361724E-014
   92.0550000000000         2.104751353531398E-014
   92.2450000000000         2.464552927572755E-014
   92.4350000000000         2.716650541964647E-014
   92.6250000000000         2.936093642215584E-014
   92.8150000000000         3.031255855472312E-014
   93.0050000000000         3.047278032409157E-014
   93.1950000000000         2.853119203845658E-014
   93.3850000000000         2.183172525558739E-014
   93.5750000000000         7.248779834244939E-015
   93.7650000000000        -9.861460959652585E-015
   93.9550000000000        -2.558143356616749E-014
   94.1450000000000        -4.050062611601096E-014
   94.3350000000000        -5.433864884030995E-014
   94.5250000000000        -6.611516460361286E-014
   94.7150000000000        -7.535937909962566E-014
   94.9050000000000        -8.292197607503201E-014
   95.0950000000000        -8.667578102338182E-014
   95.2850000000000        -8.834332375996612E-014
   95.4750000000000        -8.872655882551352E-014
   95.6650000000000        -8.403105396838383E-014
   95.8550000000000        -8.178504707857802E-014
   96.0450000000000        -7.700266399231225E-014
   96.2350000000000        -6.889417073775825E-014
   96.4250000000000        -5.410753034281504E-014
   96.6150000000000        -3.370298806308756E-014
   96.8050000000000        -9.930013855711792E-015
   96.9950000000000         1.247140900975899E-014
   97.1850000000000         3.054563916098437E-014
   97.3750000000000         4.043512466726355E-014
   97.5650000000000         5.170144017026173E-014
   97.7550000000000         6.216370823753427E-014
   97.9450000000000         7.209441394444604E-014
   98.1350000000000         8.136203687220518E-014
   98.3250000000000         8.783236834264411E-014
   98.5150000000000         9.099249851696918E-014
   98.7050000000000         9.081800059788142E-014
   98.8950000000000         8.781515530770014E-014
   99.0850000000000         8.263745138407648E-014
   99.2750000000000         7.366870785656491E-014
   99.4650000000000         5.826086470726716E-014
   99.6550000000000         4.339090062705867E-014
   99.8450000000000         2.716169524184549E-014
   100.035000000000         1.274373066488413E-014
   100.225000000000        -4.834460551129400E-016
   100.415000000000        -1.086992660199442E-014
   100.605000000000        -1.911393843222273E-014
   100.795000000000        -2.402413255792654E-014
   100.985000000000        -2.774458316408579E-014
   101.175000000000        -2.833175704393362E-014
   101.365000000000        -3.009051187792097E-014
   101.555000000000        -3.074902251102826E-014
   101.745000000000        -3.268975795838124E-014
   101.935000000000        -3.547767415689497E-014
   102.125000000000        -3.682326854051243E-014
   102.315000000000        -3.570993249582796E-014
   102.505000000000        -3.381637132165017E-014
   102.695000000000        -3.215867519669517E-014
   102.885000000000        -2.997983720485324E-014
   103.075000000000        -2.744523577177206E-014
   103.265000000000        -2.604292112189393E-014
   103.455000000000        -2.506757926459625E-014
   103.645000000000        -2.517091920830868E-014
   103.835000000000        -2.639924436588938E-014
   104.025000000000        -2.937732012744254E-014
   104.215000000000        -3.134404787701326E-014
   104.405000000000        -3.363227155421271E-014
   104.595000000000        -3.705415480302254E-014
   104.785000000000        -4.337747722949485E-014
   104.975000000000        -5.311070520685723E-014
   105.165000000000        -6.375664324972564E-014
   105.355000000000        -7.277880279593113E-014
   105.545000000000        -7.995040124120291E-014
   105.735000000000        -8.499309060147406E-014
   105.925000000000        -8.722962529801488E-014
   106.115000000000        -8.718760403072866E-014
   106.305000000000        -8.535703534361025E-014
   106.495000000000        -8.313711395949410E-014
   106.685000000000        -7.852691805481048E-014
   106.875000000000        -7.563994752663559E-014
   107.065000000000        -6.985643421273109E-014
   107.255000000000        -6.285725918809477E-014
   107.445000000000        -5.447080292165573E-014
   107.635000000000        -4.546784113507940E-014
   107.825000000000        -3.673089656418692E-014
   108.015000000000        -2.866643493978532E-014
   108.205000000000        -1.942624197426220E-014
   108.395000000000        -4.649164530661705E-015
   108.585000000000         1.553120578585027E-014
   108.775000000000         3.295262907784435E-014
   108.965000000000         4.863238151950888E-014
   109.155000000000         5.208219840582491E-014
   109.345000000000         6.031446139188187E-014
   109.535000000000         6.106267106672782E-014
   109.725000000000         6.183409094683761E-014
   109.915000000000         6.249833393609584E-014
   110.105000000000         6.289291250663206E-014