  -1.42500000000000        -1.598012448180210E-020
  -1.23500000000000        -7.149216842180689E-019
  -1.04500000000000        -5.241716479907323E-018
 -0.855000000000000        -2.568435430032535E-017
 -0.665000000000000        -1.001617837888941E-016
 -0.475000000000000        -3.387609165940002E-016
 -0.285000000000000        -9.717699860689109E-016
 -9.499999999999975E-002   -2.470007627446242E-015
  9.500000000000020E-002   -5.595601791848782E-015
  0.285000000000000        -1.147537809214073E-014
  0.475000000000000        -2.119225728719437E-014
  0.665000000000000        -3.591565045042518E-014
  0.855000000000000        -5.622998609382993E-014
   1.04500000000000        -8.268779613265439E-014
   1.23500000000000        -1.166994213458115E-013
   1.42500000000000        -1.558045895247255E-013
   1.61500000000000        -1.980382202230227E-013
   1.80500000000000        -2.446708247263611E-013
   1.99500000000000        -2.953812943539175E-013
   2.18500000000000        -3.494475052981546E-013
   2.37500000000000        -4.061275150360029E-013
   2.56500000000000        -4.644341550573193E-013
   2.75500000000000        -5.233989841687199E-013
   2.94500000000000        -5.822461060897198E-013
   3.13500000000000        -6.404918433843312E-013
   3.32500000000000        -6.981722755274128E-013
   3.51500000000000        -7.551580660303288E-013
   3.70500000000000        -8.114163621111083E-013
   3.89500000000000        -8.671562864637820E-013
   4.08500000000000        -9.223514763608612E-013
   4.27500000000000        -9.769974009643174E-013
   4.46500000000000        -1.030868380866502E-012
   4.65500000000000        -1.083545623276339E-012
   4.84500000000000        -1.134540596240433E-012
   5.03500000000000        -1.183476587592183E-012
   5.22500000000000        -1.231076962557862E-012
   5.41500000000000        -1.277384683175490E-012
   5.60500000000000        -1.321638210995669E-012
   5.79500000000000        -1.363689295767487E-012
   5.98500000000000        -1.403107783458702E-012
   6.17500000000000        -1.439420545578553E-012
   6.36500000000000        -1.471978119515720E-012
   6.55500000000000        -1.500846606113825E-012
   6.74500000000000        -1.526979628718590E-012
   6.93500000000000        -1.551011884786403E-012
   7.12500000000000        -1.574220379506446E-012
   7.31500000000000        -1.598597510510616E-012
   7.50500000000000        -1.626199449503195E-012
   7.69500000000000        -1.659621414701827E-012
   7.88500000000000        -1.699774340167153E-012
   8.07500000000000        -1.746173013549104E-012
   8.26500000000000        -1.797635353464362E-012
   8.45500000000000        -1.853308616818369E-012
   8.64500000000000        -1.913393614129947E-012
   8.83500000000000        -1.977367741771011E-012
   9.02500000000000        -2.045352290860943E-012
   9.21500000000000        -2.115791993580718E-012
   9.40500000000000        -2.183785796055566E-012
   9.59500000000000        -2.244818443737981E-012
   9.78500000000000        -2.297155708923806E-012
   9.97500000000000        -2.340936255757767E-012
   10.1650000000000        -2.377075100318997E-012
   10.3550000000000        -2.407885744526883E-012
   10.5450000000000        -2.434552039935950E-012
   10.7350000000000        -2.458581062679280E-012
   10.9250000000000        -2.482058566956568E-012
   11.1150000000000        -2.504948111373214E-012
   11.3050000000000        -2.526776276707249E-012
   11.4950000000000        -2.547045672746873E-012
   11.6850000000000        -2.565498676462863E-012
   11.8750000000000        -2.582256345449442E-012
   12.0650000000000        -2.597817417283072E-012
   12.2550000000000        -2.612824813757642E-012
   12.4450000000000        -2.627904549497961E-012
   12.6350000000000        -2.643227824322404E-012
   12.8250000000000        -2.659120310167870E-012
   13.0150000000000        -2.676064260812695E-012
   13.2050000000000        -2.694090755811912E-012
   13.3950000000000        -2.713332702114661E-012
   13.5850000000000        -2.733542583407991E-012
   13.7750000000000        -2.753842417930606E-012
   13.9650000000000        -2.773399359360293E-012
   14.1550000000000        -2.792191367662475E-012
   14.3450000000000        -2.810085962981839E-012
   14.5350000000000        -2.826984811222203E-012
   14.7250000000000        -2.843036737783865E-012
   14.9150000000000        -2.857940669900203E-012
   15.1050000000000        -2.871915317431918E-012
   15.2950000000000        -2.886304521386001E-012
   15.4850000000000        -2.902943646487367E-012
   15.6750000000000        -2.922742037796137E-012
   15.8650000000000        -2.946004776123980E-012
   16.0550000000000        -2.973271376845781E-012
   16.2450000000000        -3.004379055735726E-012
   16.4350000000000        -3.038524965900194E-012
   16.6250000000000        -3.075076196619663E-012
   16.8150000000000        -3.113611648444738E-012
   17.0050000000000        -3.153297070942466E-012
   17.1950000000000        -3.193894919932962E-012
   17.3850000000000        -3.235432359015302E-012
   17.5750000000000        -3.277835246941868E-012
   17.7650000000000        -3.321149385452560E-012
   17.9550000000000        -3.365098773583818E-012
   18.1450000000000        -3.409671711280104E-012
   18.3350000000000        -3.454757017659741E-012
   18.5250000000000        -3.500292047118750E-012
   18.7150000000000        -3.546303173222898E-012
   18.9050000000000        -3.592788236402348E-012
   19.0950000000000        -3.639664317916735E-012
   19.2850000000000        -3.686926627529481E-012
   19.4750000000000        -3.734649835790134E-012
   19.6650000000000        -3.782784964444934E-012
   19.8550000000000        -3.831099784675920E-012
   20.0450000000000        -3.879328982062650E-012
   20.2350000000000        -3.927074018395296E-012
   20.4250000000000        -3.973785391571293E-012
   20.6150000000000        -4.018807126955977E-012
   20.8050000000000        -4.061464919183125E-012
   20.9950000000000        -4.101382039883006E-012
   21.1850000000000        -4.139507197341191E-012
   21.3750000000000        -4.175863707919160E-012
   21.5650000000000        -4.210721287104281E-012
   21.7550000000000        -4.245164592048519E-012
   21.9450000000000        -4.278871078003135E-012
   22.1350000000000        -4.311910774005982E-012
   22.3250000000000        -4.345295535976255E-012
   22.5150000000000        -4.381399384733477E-012
   22.7050000000000        -4.422755105477138E-012
   22.8950000000000        -4.470589933902416E-012
   23.0850000000000        -4.525390930791514E-012
   23.2750000000000        -4.586979578126993E-012
   23.4650000000000        -4.653793905212096E-012
   23.6550000000000        -4.725447953571484E-012
   23.8450000000000        -4.802718720598026E-012
   24.0350000000000        -4.885100968911106E-012
   24.2250000000000        -4.971701412975822E-012
   24.4150000000000        -5.061621833725396E-012
   24.6050000000000        -5.153638610474247E-012
   24.7950000000000        -5.245794708036394E-012
   24.9850000000000        -5.336396246842005E-012
   25.1750000000000        -5.424427696626222E-012
   25.3650000000000        -5.508777478859649E-012
   25.5550000000000        -5.589195909573211E-012
   25.7450000000000        -5.664706445823766E-012
   25.9350000000000        -5.734164179296828E-012
   26.1250000000000        -5.798183233666861E-012
   26.3150000000000        -5.857831616006055E-012
   26.5050000000000        -5.913576734010135E-012
   26.6950000000000        -5.965621899979597E-012
   26.8850000000000        -6.014287261117182E-012
   27.0750000000000        -6.059402173515062E-012
   27.2650000000000        -6.100935846783646E-012
   27.4550000000000        -6.139766806225832E-012
   27.6450000000000        -6.177236371651562E-012
   27.8350000000000        -6.214259219206783E-012
   28.0250000000000        -6.251476840970330E-012
   28.2150000000000        -6.289309578013802E-012
   28.4050000000000        -6.327901910592234E-012
   28.5950000000000        -6.366672697110602E-012
   28.7850000000000        -6.403619622175465E-012
   28.9750000000000        -6.435030240382120E-012
   29.1650000000000        -6.457474927435606E-012
   29.3550000000000        -6.468678581970764E-012
   29.5450000000000        -6.465578570076092E-012
   29.7350000000000        -6.447596183444918E-012
   29.9250000000000        -6.417028321382007E-012
   30.1150000000000        -6.375300896167010E-012
   30.3050000000000        -6.323709427684956E-012
   30.4950000000000        -6.264595645382598E-012
   30.6850000000000        -6.201884243898607E-012
   30.8750000000000        -6.137575521230361E-012
   31.0650000000000        -6.072042207698732E-012
   31.2550000000000        -6.009825850836579E-012
   31.4450000000000        -5.956895322526543E-012
   31.6350000000000        -5.916933534064321E-012
   31.8250000000000        -5.891553182870556E-012
   32.0150000000000        -5.880018603258694E-012
   32.2050000000000        -5.880621009930018E-012
   32.3950000000000        -5.893138900299560E-012
   32.5850000000000        -5.915262910426321E-012
   32.7750000000000        -5.943126326657136E-012
   32.9650000000000        -5.975456005315893E-012
   33.1550000000000        -6.010662790592743E-012
   33.3450000000000        -6.047652888884811E-012
   33.5350000000000        -6.086775736275549E-012
   33.7250000000000        -6.128063653981262E-012
   33.9150000000000        -6.170955304455831E-012
   34.1050000000000        -6.213857640082979E-012
   34.2950000000000        -6.254639391083816E-012
   34.4850000000000        -6.292382995073181E-012
   34.6750000000000        -6.326895242479667E-012
   34.8650000000000        -6.357825253531238E-012
   35.0550000000000        -6.385136505394612E-012
   35.2450000000000        -6.408910354684929E-012
   35.4350000000000        -6.429975366468673E-012
   35.6250000000000        -6.450481228236221E-012
   35.8150000000000        -6.472806153851897E-012
   36.0050000000000        -6.498516384815732E-012
   36.1950000000000        -6.528268513113064E-012
   36.3850000000000        -6.560482513672402E-012
   36.5750000000000        -6.594584694092477E-012
   36.7650000000000        -6.630700835990704E-012
   36.9550000000000        -6.668458033197011E-012
   37.1450000000000        -6.708326110454508E-012
   37.3350000000000        -6.749910092676100E-012
   37.5250000000000        -6.792640863884841E-012
   37.7150000000000        -6.835987189257645E-012
   37.9050000000000        -6.879503312805185E-012
   38.0950000000000        -6.922801458459303E-012
   38.2850000000000        -6.965562998930214E-012
   38.4750000000000        -7.008319828489115E-012
   38.6650000000000        -7.054020835332411E-012
   38.8550000000000        -7.106204644903005E-012
   39.0450000000000        -7.167573697903779E-012
   39.2350000000000        -7.240186847679306E-012
   39.4250000000000        -7.324382623499134E-012
   39.6150000000000        -7.418753201029794E-012
   39.8050000000000        -7.522858155030416E-012
   39.9950000000000        -7.633926864397386E-012
   40.1850000000000        -7.749186426458488E-012
   40.3750000000000        -7.867437812386379E-012
   40.5650000000000        -7.987153360034628E-012
   40.7550000000000        -8.108981132275578E-012
   40.9450000000000        -8.233387518722347E-012
   41.1350000000000        -8.359683170474711E-012
   41.3250000000000        -8.484673108020051E-012
   41.5150000000000        -8.603660120572600E-012
   41.7050000000000        -8.713172876924940E-012
   41.8950000000000        -8.811031478890910E-012
   42.0850000000000        -8.896505501219791E-012
   42.2750000000000        -8.970518878035678E-012
   42.4650000000000        -9.032742510160285E-012
   42.6550000000000        -9.084050005132277E-012
   42.8450000000000        -9.125599840902356E-012
   43.0350000000000        -9.157854397395182E-012
   43.2250000000000        -9.182981749557337E-012
   43.4150000000000        -9.201278283077740E-012
   43.6050000000000        -9.214592706446031E-012
   43.7950000000000        -9.225017901984456E-012
   43.9850000000000        -9.232315415931868E-012
   44.1750000000000        -9.236595142306153E-012
   44.3650000000000        -9.237418635399963E-012
   44.5550000000000        -9.234525401075580E-012
   44.7450000000000        -9.229766520774566E-012
   44.9350000000000        -9.229489012563624E-012
   45.1250000000000        -9.239592512472682E-012
   45.3150000000000        -9.262921022752861E-012
   45.5050000000000        -9.300501815834117E-012
   45.6950000000000        -9.350669406239182E-012
   45.8850000000000        -9.411147830336508E-012
   46.0750000000000        -9.477094277922172E-012
   46.2650000000000        -9.545031990145066E-012
   46.4550000000000        -9.614654899094560E-012
   46.6450000000000        -9.685898325083711E-012
   46.8350000000000        -9.759404483985736E-012
   47.0250000000000        -9.832488383649037E-012
   47.2150000000000        -9.899410738886184E-012
   47.4050000000000        -9.956238768854964E-012
   47.5950000000000        -1.000228648358174E-011
   47.7850000000000        -1.003636806716148E-011
   47.9750000000000        -1.005835127595614E-011
   48.1650000000000        -1.007138967807361E-011
   48.3550000000000        -1.007735208869216E-011
   48.5450000000000        -1.007738353104187E-011
   48.7350000000000        -1.007273759167912E-011
   48.9250000000000        -1.006471823499343E-011
   49.1150000000000        -1.005462291012601E-011
   49.3050000000000        -1.004197750814683E-011
   49.4950000000000        -1.002665209070420E-011
   49.6850000000000        -1.001176400594864E-011
   49.8750000000000        -1.000354183117608E-011
   50.0650000000000        -1.000802105677349E-011
   50.2550000000000        -1.002716305111648E-011
   50.4450000000000        -1.005969658433243E-011
   50.6350000000000        -1.010088992235722E-011
   50.8250000000000        -1.014980006569438E-011
   51.0150000000000        -1.020511523636392E-011
   51.2050000000000        -1.026304798441951E-011
   51.3950000000000        -1.032483559355948E-011
   51.5850000000000        -1.039172424119150E-011
   51.7750000000000        -1.046266462551169E-011
   51.9650000000000        -1.053015175720986E-011
   52.1550000000000        -1.058818028993939E-011
   52.3450000000000        -1.063575673949540E-011
   52.5350000000000        -1.067264190353055E-011
   52.7250000000000        -1.070095928734866E-011
   52.9150000000000        -1.072445992244173E-011
   53.1050000000000        -1.074480405257089E-011
   53.2950000000000        -1.076219870533730E-011
   53.4850000000000        -1.077819997102761E-011
   53.6750000000000        -1.079463951783412E-011
   53.8650000000000        -1.081424747071012E-011
   54.0550000000000        -1.083885327622429E-011
   54.2450000000000        -1.086965356265951E-011
   54.4350000000000        -1.090780861340102E-011
   54.6250000000000        -1.095300386100567E-011
   54.8150000000000        -1.100507323002293E-011
   55.0050000000000        -1.106378307955183E-011
   55.1950000000000        -1.112806098244448E-011
   55.3850000000000        -1.119772776332188E-011
   55.5750000000000        -1.127180998968611E-011
   55.7650000000000        -1.134902154035060E-011
   55.9550000000000        -1.142936495535594E-011
   56.1450000000000        -1.151236933747902E-011
   56.3350000000000        -1.159556845731233E-011
   56.5250000000000        -1.167464424785624E-011
   56.7150000000000        -1.174689142150260E-011
   56.9050000000000        -1.181182907902874E-011
   57.0950000000000        -1.186824198882132E-011
   57.2850000000000        -1.191657469735873E-011
   57.4750000000000        -1.195828551863807E-011
   57.6650000000000        -1.199346239504317E-011
   57.8550000000000        -1.202330598186211E-011
   58.0450000000000        -1.205008856777895E-011
   58.2350000000000        -1.207524660698686E-011
   58.4250000000000        -1.209894039980835E-011
   58.6150000000000        -1.212140185454388E-011
   58.8050000000000        -1.214293904224629E-011
   58.9950000000000        -1.216363910248532E-011
   59.1850000000000        -1.218361457037595E-011
   59.3750000000000        -1.220310452677239E-011
   59.5650000000000        -1.222243399778216E-011
   59.7550000000000        -1.224211133162838E-011
   59.9450000000000        -1.226279583679560E-011
   60.1350000000000        -1.228523982614817E-011
   60.3250000000000        -1.231027762125342E-011
   60.5150000000000        -1.233844151266978E-011
   60.7050000000000        -1.236928051153487E-011
   60.8950000000000        -1.240124090189064E-011
   61.0850000000000        -1.243211184747378E-011
   61.2750000000000        -1.245890248731708E-011
   61.4650000000000        -1.247983905200183E-011
   61.6550000000000        -1.249473773685979E-011
   61.8450000000000        -1.250333913185072E-011
   62.0350000000000        -1.250665516019404E-011
   62.2250000000000        -1.250719157407211E-011
   62.4150000000000        -1.250549630980143E-011
   62.6050000000000        -1.250136143167834E-011
   62.7950000000000        -1.249634143629771E-011
   62.9850000000000        -1.249095726947335E-011
   63.1750000000000        -1.248462455522257E-011
   63.3650000000000        -1.247696674051410E-011
   63.5550000000000        -1.246786192972921E-011
   63.7450000000000        -1.245779254476679E-011
   63.9350000000000        -1.244786397533133E-011
   64.1250000000000        -1.243928683352424E-011
   64.3150000000000        -1.243306981489945E-011
   64.5050000000000        -1.242993588891015E-011
   64.6950000000000        -1.243051682657562E-011
   64.8850000000000        -1.243480187645439E-011
   65.0750000000000        -1.244231761286593E-011
   65.2650000000000        -1.245306588541154E-011
   65.4550000000000        -1.246700688634038E-011
   65.6450000000000        -1.248406825512487E-011
   65.8350000000000        -1.250440373912416E-011
   66.0250000000000        -1.252795230597934E-011
   66.2150000000000        -1.255443705216374E-011
   66.4050000000000        -1.258355614590549E-011
   66.5950000000000        -1.261443958440292E-011
   66.7850000000000        -1.264638021572315E-011
   66.9750000000000        -1.267879207213214E-011
   67.1650000000000        -1.271090426381037E-011
   67.3550000000000        -1.274247591484104E-011
   67.5450000000000        -1.277358536835456E-011
   67.7350000000000        -1.280458128615709E-011
   67.9250000000000        -1.283586587153883E-011
   68.1150000000000        -1.286777863707390E-011
   68.3050000000000        -1.290055011594205E-011
   68.4950000000000        -1.293423027747936E-011
   68.6850000000000        -1.296875141033200E-011
   68.8750000000000        -1.300401856409982E-011
   69.0650000000000        -1.303998377855631E-011
   69.2550000000000        -1.307673160568369E-011
   69.4450000000000        -1.311451387203752E-011
   69.6350000000000        -1.315364017458696E-011
   69.8250000000000        -1.319407647003059E-011
   70.0150000000000        -1.323611239670951E-011
   70.2050000000000        -1.328056357236354E-011
   70.3950000000000        -1.332838205413962E-011
   70.5850000000000        -1.338043108795029E-011
   70.7750000000000        -1.343750770242159E-011
   70.9650000000000        -1.350009184963075E-011
   71.1550000000000        -1.356873608708512E-011
   71.3450000000000        -1.364339075207565E-011
   71.5350000000000        -1.372384808460866E-011
   71.7250000000000        -1.380845319974490E-011
   71.9150000000000        -1.389639969171670E-011
   72.1050000000000        -1.398702789235903E-011
   72.2950000000000        -1.407854845237508E-011
   72.4850000000000        -1.417110309155751E-011
   72.6750000000000        -1.426457107778590E-011
   72.8650000000000        -1.435944284923823E-011
   73.0550000000000        -1.445631785256706E-011
   73.2450000000000        -1.455522224525182E-011
   73.4350000000000        -1.465614215901117E-011
   73.6250000000000        -1.475838520337227E-011
   73.8150000000000        -1.485991776904824E-011
   74.0050000000000        -1.495729307140982E-011
   74.1950000000000        -1.504724801698877E-011
   74.3850000000000        -1.512697224705477E-011
   74.5750000000000        -1.519478954608335E-011
   74.7650000000000        -1.525089905916705E-011
   74.9550000000000        -1.529668514410116E-011
   75.1450000000000        -1.533407896881349E-011
   75.3350000000000        -1.536640601658494E-011
   75.5250000000000        -1.539446231544567E-011
   75.7150000000000        -1.541921071435893E-011
   75.9050000000000        -1.544312339956437E-011
   76.0950000000000        -1.546551883377049E-011
   76.2850000000000        -1.548576538959787E-011
   76.4750000000000        -1.550406821172554E-011
   76.6650000000000        -1.552122502622442E-011
   76.8550000000000        -1.553768912787457E-011
   77.0450000000000        -1.555356733806854E-011
   77.2350000000000        -1.556919120353872E-011
   77.4250000000000        -1.558474139816397E-011
   77.6150000000000        -1.559909053405908E-011
   77.8050000000000        -1.561000428491668E-011
   77.9950000000000        -1.561600667743902E-011
   78.1850000000000        -1.561665227035633E-011
   78.3750000000000        -1.561112652933037E-011
   78.5650000000000        -1.560002229586483E-011
   78.7550000000000        -1.558447498495003E-011
   78.9450000000000        -1.556594927713051E-011
   79.1350000000000        -1.554543825263793E-011
   79.3250000000000        -1.552302919087094E-011
   79.5150000000000        -1.549908628933803E-011
   79.7050000000000        -1.547296907243038E-011
   79.8950000000000        -1.544441318535000E-011
   80.0850000000000        -1.541515299806986E-011
   80.2750000000000        -1.538994640412321E-011
   80.4650000000000        -1.537441358400538E-011
   80.6550000000000        -1.537177534837224E-011
   80.8450000000000        -1.538283363518722E-011
   81.0350000000000        -1.540820163189166E-011
   81.2250000000000        -1.544894275894439E-011
   81.4150000000000        -1.550350490436652E-011
   81.6050000000000        -1.556980847569693E-011
   81.7950000000000        -1.564409832877374E-011
   81.9850000000000        -1.572376335639386E-011
   82.1750000000000        -1.580804860055120E-011
   82.3650000000000        -1.589539454826444E-011
   82.5550000000000        -1.598647286958052E-011
   82.7450000000000        -1.607998192809131E-011
   82.9350000000000        -1.617169057215172E-011
   83.1250000000000        -1.625681447028675E-011
   83.3150000000000        -1.633365439317308E-011
   83.5050000000000        -1.640345246391366E-011
   83.6950000000000        -1.646856368157491E-011
   83.8850000000000        -1.652909488867804E-011
   84.0750000000000        -1.658645174019843E-011
   84.2650000000000        -1.664299917874034E-011
   84.4550000000000        -1.669843419298176E-011
   84.6450000000000        -1.675270472689930E-011
   84.8350000000000        -1.680535591568458E-011
   85.0250000000000        -1.685568551575508E-011
   85.2150000000000        -1.690300233362697E-011
   85.4050000000000        -1.694720876682620E-011
   85.5950000000000        -1.698888812708669E-011
   85.7850000000000        -1.702924119758844E-011
   85.9750000000000        -1.707087079188089E-011
   86.1650000000000        -1.711598906358407E-011
   86.3550000000000        -1.716421025353492E-011
   86.5450000000000        -1.721520889178341E-011
   86.7350000000000        -1.726912705650860E-011
   86.9250000000000        -1.732551976519948E-011
   87.1150000000000        -1.738414914129124E-011
   87.3050000000000        -1.744432773347568E-011
   87.4950000000000        -1.750543092900658E-011
   87.6850000000000        -1.756754256018367E-011
   87.8750000000000        -1.763046982393139E-011
   88.0650000000000        -1.769403303706287E-011
   88.2550000000000        -1.775828277707452E-011
   88.4450000000000        -1.782323080761362E-011
   88.6350000000000        -1.788891048862503E-011
   88.8250000000000        -1.795544804305635E-011
   89.0150000000000        -1.802312056365253E-011
   89.2050000000000        -1.809219689042559E-011
   89.3950000000000        -1.816250307942412E-011
   89.5850000000000        -1.823226887292116E-011
   89.7750000000000        -1.829991510065752E-011
   89.9650000000000        -1.836514451198890E-011
   90.1550000000000        -1.842686423321854E-011
   90.3450000000000        -1.848403716618516E-011
   90.5350000000000        -1.853707181603928E-011
   90.7250000000000        -1.858671742185668E-011
   90.9150000000000        -1.863348244204504E-011
   91.1050000000000        -1.867795706665470E-011
   91.2950000000000        -1.872069540839897E-011
   91.4850000000000        -1.876195404666555E-011
   91.6750000000000        -1.880137365707783E-011
   91.8650000000000        -1.883824333823517E-011
   92.0550000000000        -1.887173175521036E-011
   92.2450000000000        -1.890172201633287E-011
   92.4350000000000        -1.892877827433658E-011
   92.6250000000000        -1.895299887645448E-011
   92.8150000000000        -1.897459977752129E-011
   93.0050000000000        -1.899387909372453E-011
   93.1950000000000        -1.901051407268922E-011
   93.3850000000000        -1.902396762884880E-011
   93.5750000000000        -1.903416913980236E-011
   93.7650000000000        -1.904269508294094E-011
   93.9550000000000        -1.905373484355289E-011
   94.1450000000000        -1.906981899336290E-011
   94.3350000000000        -1.909036432757087E-011
   94.5250000000000        -1.911538960934325E-011
   94.7150000000000        -1.914424405773404E-011
   94.9050000000000        -1.917612923200385E-011
   95.0950000000000        -1.921096890642398E-011
   95.2850000000000        -1.924879337307520E-011
   95.4750000000000        -1.928846610940591E-011
   95.6650000000000        -1.933029573520845E-011
   95.8550000000000        -1.937438281093775E-011
   96.0450000000000        -1.941931449223342E-011
   96.2350000000000        -1.946538657817967E-011
   96.4250000000000        -1.951259445310036E-011
   96.6150000000000        -1.956060269184331E-011
   96.8050000000000        -1.960875353492047E-011
   96.9950000000000        -1.965623463129786E-011
   97.1850000000000        -1.970239639881140E-011
   97.3750000000000        -1.974732613128621E-011
   97.5650000000000        -1.979124680386910E-011
   97.7550000000000        -1.983419550385097E-011
   97.9450000000000        -1.987643595166954E-011
   98.1350000000000        -1.991832649106753E-011
   98.3250000000000        -1.996052782941481E-011
   98.5150000000000        -2.000386183883741E-011
   98.7050000000000        -2.004888496105000E-011
   98.8950000000000        -2.009566927895233E-011
   99.0850000000000        -2.014384033083553E-011
   99.2750000000000        -2.019278591774546E-011
   99.4650000000000        -2.024115684830189E-011
   99.6550000000000        -2.028626586518373E-011
   99.8450000000000        -2.032436242078687E-011
   100.035000000000        -2.035331275490420E-011
   100.225000000000        -2.037082230588290E-011
   100.415000000000        -2.037516710981153E-011
   100.605000000000        -2.036684488326444E-011
   100.795000000000        -2.034669324826741E-011
   100.985000000000        -2.031662519381346E-011
   101.175000000000        -2.028040967607729E-011
   101.365000000000        -2.023957516597530E-011
   101.555000000000        -2.019493794090415E-011
   101.745000000000        -2.014793851894871E-011
   101.935000000000        -2.009712420647679E-011
   102.125000000000        -2.004343801613489E-011
   102.315000000000        -1.999345542188148E-011
   102.505000000000        -1.995547210727121E-011
   102.695000000000        -1.993368313717810E-011
   102.885000000000        -1.992932153469368E-011
   103.075000000000        -1.994417465628585E-011
   103.265000000000        -1.997579178006682E-011
   103.455000000000        -2.002060631500207E-011
   103.645000000000        -2.007746749928661E-011
   103.835000000000        -2.014097804798418E-011
   104.025000000000        -2.020834695678044E-011
   104.215000000000        -2.027883636994039E-011
   104.405000000000        -2.035069720494881E-011
   104.595000000000        -2.042442151179779E-011
   104.785000000000        -2.050019215768202E-011
   104.975000000000        -2.057780534875287E-011
   105.165000000000        -2.065630492851647E-011
   105.355000000000        -2.073433953750505E-011
   105.545000000000        -2.081092866113192E-011
   105.735000000000        -2.088561172163666E-011
   105.925000000000        -2.095841883109881E-011
   106.115000000000        -2.102995760805834E-011
   106.305000000000        -2.110060983010036E-011
   106.495000000000        -2.117097044311076E-011
   106.685000000000        -2.124087617073898E-011
   106.875000000000        -2.130991599944343E-011
   107.065000000000        -2.137766589202415E-011
   107.255000000000        -2.144299032312725E-011
   107.445000000000        -2.150551704399193E-011
   107.635000000000        -2.156536720481493E-011
   107.825000000000        -2.162318690154133E-011
   108.015000000000        -2.168001510258129E-011
   108.205000000000        -2.173689034936467E-011
   108.395000000000        -2.179434003792903E-011
   108.585000000000        -2.185227331562080E-011
   108.775000000000        -2.191035780770637E-011
   108.965000000000        -2.196778314673751E-011
   109.155000000000        -2.202407553217459E-011
   109.345000000000        -2.207818103898463E-011
   109.535000000000        -2.212925969198406E-011
   109.725000000000        -2.217763980473491E-011
   109.915000000000        -2.222356959712294E-011
   110.105000000000        -2.226768475646267E-011