  -1.42500000000000        -3.223277786201087E-019
  -1.23500000000000         1.183167083166706E-019
  -1.04500000000000         1.912664342545748E-018
 -0.855000000000000         8.984793926815699E-018
 -0.665000000000000         3.122692459681729E-017
 -0.475000000000000         9.395563857609200E-017
 -0.285000000000000         2.583675958636282E-016
 -9.499999999999975E-002    5.899351461821740E-016
  9.500000000000020E-002    1.241748246187090E-015
  0.285000000000000         2.391590179174516E-015
  0.475000000000000         4.054827785783875E-015
  0.665000000000000         6.105137963457066E-015
  0.855000000000000         8.319341787513209E-015
   1.04500000000000         1.158976367781503E-014
   1.23500000000000         1.523371812444971E-014
   1.42500000000000         1.647515379281019E-014
   1.61500000000000         1.894040589364255E-014
   1.80500000000000         2.200200214561398E-014
   1.99500000000000         2.492934138390190E-014
   2.18500000000000         2.806260050988004E-014
   2.37500000000000         3.126605299205952E-014
   2.56500000000000         3.423025338855237E-014
   2.75500000000000         3.685653605427477E-014
   2.94500000000000         3.910271643430764E-014
   3.13500000000000         4.060036358441922E-014
   3.32500000000000         4.111443274028922E-014
   3.51500000000000         4.213850080801329E-014
   3.70500000000000         4.250546644106740E-014
   3.89500000000000         4.288457424385908E-014
   4.08500000000000         4.317543004175601E-014
   4.27500000000000         4.344530448213955E-014
   4.46500000000000         4.373893884859988E-014
   4.65500000000000         4.395487244071845E-014
   4.84500000000000         4.396821385201070E-014
   5.03500000000000         4.364495987630287E-014
   5.22500000000000         4.352447500947973E-014
   5.41500000000000         4.279301285181617E-014
   5.60500000000000         4.196455464041628E-014
   5.79500000000000         4.107610036354243E-014
   5.98500000000000         4.043318656368527E-014
   6.17500000000000         4.041213397070082E-014
   6.36500000000000         4.129581935186793E-014
   6.55500000000000         4.286922563064372E-014
   6.74500000000000         4.476365495747323E-014
   6.93500000000000         4.712491003535640E-014
   7.12500000000000         5.052941151278120E-014
   7.31500000000000         5.388364869462563E-014
   7.50500000000000         5.644286152692738E-014
   7.69500000000000         5.807722454509940E-014
   7.88500000000000         5.864061358139531E-014
   8.07500000000000         5.849807648673299E-014
   8.26500000000000         5.804367443212563E-014
   8.45500000000000         5.697635234514138E-014
   8.64500000000000         5.548976346881348E-014
   8.83500000000000         5.366140551250635E-014
   9.02500000000000         4.974891745254139E-014
   9.21500000000000         4.251526986642992E-014
   9.40500000000000         3.340637683967910E-014
   9.59500000000000         2.619497106412216E-014
   9.78500000000000         2.042432587448849E-014
   9.97500000000000         1.610003889316396E-014
   10.1650000000000         1.365674022421311E-014
   10.3550000000000         1.217903975869145E-014
   10.5450000000000         1.075420240426058E-014
   10.7350000000000         1.054965577978409E-014
   10.9250000000000         1.044141724236209E-014
   11.1150000000000         1.022998477246179E-014
   11.3050000000000         9.896516454991035E-015
   11.4950000000000         9.601095795148960E-015
   11.6850000000000         9.592746866259428E-015
   11.8750000000000         1.014623099020765E-014
   12.0650000000000         1.134183325814545E-014
   12.2550000000000         1.293832311882404E-014
   12.4450000000000         1.528880666358454E-014
   12.6350000000000         1.589752794258776E-014
   12.8250000000000         1.828820173601408E-014
   13.0150000000000         2.047488542457419E-014
   13.2050000000000         2.254718976452654E-014
   13.3950000000000         2.513481341462431E-014
   13.5850000000000         2.754495058934381E-014
   13.7750000000000         2.922142166652244E-014
   13.9650000000000         3.029050786414306E-014
   14.1550000000000         3.046255243411279E-014
   14.3450000000000         3.106245388726321E-014
   14.5350000000000         3.120065407738910E-014
   14.7250000000000         3.152192430931998E-014
   14.9150000000000         3.228706140973579E-014
   15.1050000000000         3.409446330066769E-014
   15.2950000000000         3.747433653849732E-014
   15.4850000000000         4.194265168296128E-014
   15.6750000000000         4.622662510845963E-014
   15.8650000000000         5.056630016287142E-014
   16.0550000000000         5.498091671564716E-014
   16.2450000000000         5.838263400250572E-014
   16.4350000000000         6.067990334848401E-014
   16.6250000000000         6.213659033701390E-014
   16.8150000000000         6.309854764690823E-014
   17.0050000000000         6.329682448550983E-014
   17.1950000000000         6.353815015502651E-014
   17.3850000000000         6.355100698593135E-014
   17.5750000000000         6.324810565070743E-014
   17.7650000000000         6.309205193048124E-014
   17.9550000000000         6.279260223372241E-014
   18.1450000000000         6.252162393152114E-014
   18.3350000000000         6.222711263585008E-014
   18.5250000000000         6.180617175164137E-014
   18.7150000000000         6.073329078722645E-014
   18.9050000000000         5.886218672547941E-014
   19.0950000000000         5.608691452239431E-014
   19.2850000000000         5.245888512316700E-014
   19.4750000000000         4.858488899417185E-014
   19.6650000000000         4.475341664874092E-014
   19.8550000000000         4.077920287309544E-014
   20.0450000000000         3.721045745687547E-014
   20.2350000000000         3.423989854295141E-014
   20.4250000000000         3.160997031226943E-014
   20.6150000000000         2.885852856262371E-014
   20.8050000000000         2.605061781680066E-014
   20.9950000000000         2.325596658539771E-014
   21.1850000000000         2.266542074302199E-014
   21.3750000000000         1.950303278749512E-014
   21.5650000000000         1.898012732621997E-014
   21.7550000000000         1.762152545710693E-014
   21.9450000000000         1.528166504441606E-014
   22.1350000000000         1.235700671317812E-014
   22.3250000000000         8.654685301714605E-015
   22.5150000000000         6.866205220864358E-015
   22.7050000000000         7.283370328730741E-015
   22.8950000000000         9.968011824211735E-015
   23.0850000000000         1.401643980586730E-014
   23.2750000000000         1.824026723912948E-014
   23.4650000000000         2.264894736167418E-014
   23.6550000000000         2.816131213996104E-014
   23.8450000000000         3.425350843989777E-014
   24.0350000000000         4.020321948541780E-014
   24.2250000000000         4.610478536758573E-014
   24.4150000000000         5.159186531623813E-014
   24.6050000000000         5.724401695408380E-014
   24.7950000000000         6.037448824377359E-014
   24.9850000000000         6.303699197097018E-014
   25.1750000000000         6.399661914617574E-014
   25.3650000000000         6.430825444340615E-014
   25.5550000000000         6.384686760836813E-014
   25.7450000000000         6.250949854526588E-014
   25.9350000000000         6.071985349272671E-014
   26.1250000000000         5.895838648388830E-014
   26.3150000000000         5.760206213946286E-014
   26.5050000000000         5.609204430049590E-014
   26.6950000000000         5.480966810790205E-014
   26.8850000000000         5.348774206630634E-014
   27.0750000000000         5.190067722547923E-014
   27.2650000000000         5.026255933183160E-014
   27.4550000000000         4.924351583433737E-014
   27.6450000000000         4.882986251630662E-014
   27.8350000000000         4.885807419537669E-014
   28.0250000000000         4.908493761930695E-014
   28.2150000000000         4.961807362773353E-014
   28.4050000000000         5.061730579196182E-014
   28.5950000000000         5.195750109510933E-014
   28.7850000000000         5.262776517385537E-014
   28.9750000000000         5.166299085795199E-014
   29.1650000000000         4.892289752680289E-014
   29.3550000000000         4.470550863474487E-014
   29.5450000000000         3.816447040812441E-014
   29.7350000000000         3.134710056080653E-014
   29.9250000000000         2.477646157894507E-014
   30.1150000000000         1.886676910727543E-014
   30.3050000000000         1.323315729160561E-014
   30.4950000000000         8.413731472056841E-015
   30.6850000000000         7.356420392058189E-015
   30.8750000000000         4.197365032096346E-015
   31.0650000000000        -4.823660022988852E-016
   31.2550000000000        -3.518683896283929E-015
   31.4450000000000        -3.677685689837024E-015
   31.6350000000000        -1.699856081559966E-015
   31.8250000000000         7.853537224162191E-016
   32.0150000000000         3.556182749766443E-015
   32.2050000000000         6.970433187072618E-015
   32.3950000000000         1.092327267119217E-014
   32.5850000000000         1.347701270821701E-014
   32.7750000000000         1.506426219353491E-014
   32.9650000000000         1.709785320522194E-014
   33.1550000000000         1.762155874460856E-014
   33.3450000000000         1.865402277223459E-014
   33.5350000000000         2.026713725445031E-014
   33.7250000000000         2.273120135901929E-014
   33.9150000000000         2.655187500086901E-014
   34.1050000000000         3.133953949505935E-014
   34.2950000000000         3.604766545394942E-014
   34.4850000000000         3.928188430246645E-014
   34.6750000000000         4.268451991505706E-014
   34.8650000000000         4.591383431673424E-014
   35.0550000000000         4.892406260379259E-014
   35.2450000000000         5.214380892251664E-014
   35.4350000000000         5.485462430350956E-014
   35.6250000000000         5.665107109039397E-014
   35.8150000000000         5.763294120043691E-014
   36.0050000000000         5.777680316451361E-014
   36.1950000000000         5.743751493972338E-014
   36.3850000000000         5.726470958917656E-014
   36.5750000000000         5.681605142681094E-014
   36.7650000000000         5.674466994423737E-014
   36.9550000000000         5.631082053020332E-014
   37.1450000000000         5.567561987976864E-014
   37.3350000000000         5.490999577338885E-014
   37.5250000000000         5.409366766012168E-014
   37.7150000000000         5.316880076025764E-014
   37.9050000000000         5.218063267296174E-014
   38.0950000000000         5.139837200632553E-014
   38.2850000000000         5.018330670846267E-014
   38.4750000000000         4.833993081460089E-014
   38.6650000000000         4.683344582593653E-014
   38.8550000000000         4.618301596177530E-014
   39.0450000000000         4.580292267594354E-014
   39.2350000000000         4.517848484564562E-014
   39.4250000000000         4.426284563175662E-014
   39.6150000000000         4.305119696343997E-014
   39.8050000000000         4.099415975561803E-014
   39.9950000000000         4.035906559146954E-014
   40.1850000000000         3.884523024800585E-014
   40.3750000000000         3.856749612674885E-014
   40.5650000000000         3.781328527448905E-014
   40.7550000000000         3.645206465221258E-014
   40.9450000000000         3.386158314438202E-014
   41.1350000000000         2.902811443682008E-014
   41.3250000000000         2.195594147987081E-014
   41.5150000000000         1.541430975815708E-014
   41.7050000000000         1.104803012237446E-014
   41.8950000000000         8.647543143313754E-015
   42.0850000000000         7.927587911094153E-015
   42.2750000000000         8.900258661483591E-015
   42.4650000000000         1.064961457755508E-014
   42.6550000000000         1.305248809854884E-014
   42.8450000000000         1.596438818152290E-014
   43.0350000000000         1.912863292816037E-014
   43.2250000000000         2.179775338996035E-014
   43.4150000000000         2.530179600634734E-014
   43.6050000000000         2.597215423608177E-014
   43.7950000000000         2.730247381284114E-014
   43.9850000000000         2.845751816044603E-014
   44.1750000000000         3.027509456460322E-014
   44.3650000000000         3.324858931694140E-014
   44.5550000000000         3.801732561029852E-014
   44.7450000000000         4.409103118219792E-014
   44.9350000000000         4.901280068215723E-014
   45.1250000000000         5.105882480242040E-014
   45.3150000000000         5.033611950124080E-014
   45.5050000000000         4.878329552115814E-014
   45.6950000000000         4.697812758302176E-014
   45.8850000000000         4.562832504378475E-014
   46.0750000000000         4.525621360495051E-014
   46.2650000000000         4.479280714494825E-014
   46.4550000000000         4.460373027380366E-014
   46.6450000000000         4.441161514074316E-014
   46.8350000000000         4.447268475187779E-014
   47.0250000000000         4.568220152928955E-014
   47.2150000000000         4.746383064996628E-014
   47.4050000000000         4.908726456254491E-014
   47.5950000000000         5.041639830208055E-014
   47.7850000000000         5.063369451400579E-014
   47.9750000000000         5.001962617039077E-014
   48.1650000000000         4.868268673005865E-014
   48.3550000000000         4.730308309661777E-014
   48.5450000000000         4.603196895220568E-014
   48.7350000000000         4.426178346997307E-014
   48.9250000000000         4.330022445462044E-014
   49.1150000000000         4.226039789439918E-014
   49.3050000000000         4.030449167801964E-014
   49.4950000000000         3.709371734861064E-014
   49.6850000000000         3.425195926341494E-014
   49.8750000000000         3.312462446142648E-014
   50.0650000000000         3.401099446047730E-014
   50.2550000000000         3.603395437082408E-014
   50.4450000000000         3.853700695941930E-014
   50.6350000000000         3.925151896645916E-014
   50.8250000000000         4.186654050168017E-014
   51.0150000000000         4.234213420299647E-014
   51.2050000000000         4.333445391801228E-014
   51.3950000000000         4.492612096613721E-014
   51.5850000000000         4.711227143228591E-014
   51.7750000000000         4.819671543327693E-014
   51.9650000000000         4.594742904049159E-014
   52.1550000000000         4.094204798949514E-014
   52.3450000000000         3.457745526744047E-014
   52.5350000000000         2.741466953659686E-014
   52.7250000000000         2.110231222721511E-014
   52.9150000000000         1.807410693348058E-014
   53.1050000000000         1.315368251474254E-014
   53.2950000000000         8.706632451673831E-015
   53.4850000000000         4.575079173023490E-015
   53.6750000000000         6.791613617558027E-018
   53.8650000000000        -1.230157367169178E-015
   54.0550000000000         3.288391576906990E-016
   54.2450000000000         4.461162503788336E-015
   54.4350000000000         1.070631682125670E-014
   54.6250000000000         1.786798805648047E-014
   54.8150000000000         2.499319022543570E-014
   55.0050000000000         3.178726372347133E-014
   55.1950000000000         3.742615881648659E-014
   55.3850000000000         4.404262053868829E-014
   55.5750000000000         4.745329574842924E-014
   55.7650000000000         5.121005977792178E-014
   55.9550000000000         5.550392644016222E-014
   56.1450000000000         6.124077367369219E-014
   56.3350000000000         6.637299712124566E-014
   56.5250000000000         6.835189439038855E-014
   56.7150000000000         6.780976309555927E-014
   56.9050000000000         6.544601447019734E-014
   57.0950000000000         6.255574944037517E-014
   57.2850000000000         6.024862020319303E-014
   57.4750000000000         5.713047312914311E-014
   57.6650000000000         5.393781762343681E-014
   57.8550000000000         5.152392073538072E-014
   58.0450000000000         5.032876198890037E-014
   58.2350000000000         4.912663412946315E-014
   58.4250000000000         4.786025961728326E-014
   58.6150000000000         4.695566439737072E-014
   58.8050000000000         4.631795121727362E-014
   58.9950000000000         4.579304731661628E-014
   59.1850000000000         4.561077612228844E-014
   59.3750000000000         4.561312396066827E-014
   59.5650000000000         4.569216129531926E-014
   59.7550000000000         4.569902013439627E-014
   59.9450000000000         4.559341020578028E-014
   60.1350000000000         4.534876198536749E-014
   60.3250000000000         4.496063610292320E-014
   60.5150000000000         4.427274575005541E-014
   60.7050000000000         4.300081952348814E-014
   60.8950000000000         4.087852986893293E-014
   61.0850000000000         3.837083646301149E-014
   61.2750000000000         3.546176150441293E-014
   61.4650000000000         3.257371660157950E-014
   61.6550000000000         3.023107042764336E-014
   61.8450000000000         2.786317049098411E-014
   62.0350000000000         2.598744874331913E-014
   62.2250000000000         2.452107210639658E-014
   62.4150000000000         2.255136962223724E-014
   62.6050000000000         2.083471137804810E-014
   62.7950000000000         2.033744551866528E-014
   62.9850000000000         1.953874258946437E-014
   63.1750000000000         1.852388027378197E-014
   63.3650000000000         1.725522835195544E-014
   63.5550000000000         1.549058062260988E-014
   63.7450000000000         1.322961380878422E-014
   63.9350000000000         1.112111292073261E-014
   64.1250000000000         9.299114303812766E-015
   64.3150000000000         8.067314850385674E-015
   64.5050000000000         7.575302542221086E-015
   64.6950000000000         7.963431413040670E-015
   64.8850000000000         8.968580544897498E-015
   65.0750000000000         1.068330012939883E-014
   65.2650000000000         1.341659259415540E-014
   65.4550000000000         1.666238777569365E-014
   65.6450000000000         2.054116968268060E-014
   65.8350000000000         2.500098298100523E-014
   66.0250000000000         2.924457638662130E-014
   66.2150000000000         3.325277745193544E-014
   66.4050000000000         3.732848383691056E-014
   66.5950000000000         3.884290012389872E-014
   66.7850000000000         4.189345328970557E-014
   66.9750000000000         4.335667106611285E-014
   67.1650000000000         4.493391059392056E-014
   67.3550000000000         4.665422352070997E-014
   67.5450000000000         4.882173146077440E-014
   67.7350000000000         5.153184201491615E-014
   67.9250000000000         5.447725814116079E-014
   68.1150000000000         5.687193669938774E-014
   68.3050000000000         5.852124470453560E-014
   68.4950000000000         5.899049764542452E-014
   68.6850000000000         5.838073934975860E-014
   68.8750000000000         5.710689100285388E-014
   69.0650000000000         5.547865238073798E-014
   69.2550000000000         5.365951923269716E-014
   69.4450000000000         5.189038090880266E-014
   69.6350000000000         5.045016881890743E-014
   69.8250000000000         4.950800029012431E-014
   70.0150000000000         4.854911224833962E-014
   70.2050000000000         4.791396671218082E-014
   70.3950000000000         4.765457382930752E-014
   70.5850000000000         4.784986529102835E-014
   70.7750000000000         4.843992461209717E-014
   70.9650000000000         4.915601432424863E-014
   71.1550000000000         4.972616398355657E-014
   71.3450000000000         4.993315582121568E-014
   71.5350000000000         4.942309657853529E-014
   71.7250000000000         4.916414464005982E-014
   71.9150000000000         4.779080036727135E-014
   72.1050000000000         4.710339837298932E-014
   72.2950000000000         4.618467115890847E-014
   72.4850000000000         4.521849064083640E-014
   72.6750000000000         4.442061171287898E-014
   72.8650000000000         4.316856913217933E-014
   73.0550000000000         4.187569987929197E-014
   73.2450000000000         4.022169005513453E-014
   73.4350000000000         3.716953525028994E-014
   73.6250000000000         3.234327008021011E-014
   73.8150000000000         2.689342870176728E-014
   74.0050000000000         2.116249458915786E-014
   74.1950000000000         1.759390780928616E-014
   74.3850000000000         1.562570962126139E-014
   74.5750000000000         1.533189028943949E-014
   74.7650000000000         1.598775006381521E-014
   74.9550000000000         1.706182772549678E-014
   75.1450000000000         1.815995670472636E-014
   75.3350000000000         1.865990203049780E-014
   75.5250000000000         2.073190390057216E-014
   75.7150000000000         2.125669600593584E-014
   75.9050000000000         2.234876654663315E-014
   76.0950000000000         2.461207768419296E-014
   76.2850000000000         2.818937223240696E-014
   76.4750000000000         3.321896731542555E-014
   76.6650000000000         3.835696375453543E-014
   76.8550000000000         4.140028091671367E-014
   77.0450000000000         4.425295375316588E-014
   77.2350000000000         4.840857974089252E-014
   77.4250000000000         5.408713935133590E-014
   77.6150000000000         6.026941311507904E-014
   77.8050000000000         6.430012723499974E-014
   77.9950000000000         6.578446021679361E-014
   78.1850000000000         6.556625333610558E-014
   78.3750000000000         6.458284719865755E-014
   78.5650000000000         6.362530793573852E-014
   78.7550000000000         6.235972913424796E-014
   78.9450000000000         6.241488839332221E-014
   79.1350000000000         6.173825964968148E-014
   79.3250000000000         6.137194717006512E-014
   79.5150000000000         6.012807801526617E-014
   79.7050000000000         5.768392750561349E-014
   79.8950000000000         5.346925655896227E-014
   80.0850000000000         4.758568857966576E-014
   80.2750000000000         4.148634104875567E-014
   80.4650000000000         3.676408178495704E-014
   80.6550000000000         3.398648696756581E-014
   80.8450000000000         3.261945485427004E-014
   81.0350000000000         3.186973088196846E-014
   81.2250000000000         3.152581425039244E-014
   81.4150000000000         3.121018662132635E-014
   81.6050000000000         3.105014200758079E-014
   81.7950000000000         3.085749266035971E-014
   81.9850000000000         3.008713371109728E-014
   82.1750000000000         2.937945370328052E-014
   82.3650000000000         2.822847347897133E-014
   82.5550000000000         2.652753685195595E-014
   82.7450000000000         2.413001300225868E-014
   82.9350000000000         2.187993817718644E-014
   83.1250000000000         2.006645927501867E-014
   83.3150000000000         1.903546667263911E-014
   83.5050000000000         1.867901902911384E-014
   83.6950000000000         1.890060970544545E-014
   83.8850000000000         1.907162452155858E-014
   84.0750000000000         1.959958793800541E-014
   84.2650000000000         1.993159130895561E-014
   84.4550000000000         2.001201209319486E-014
   84.6450000000000         1.984952563383774E-014
   84.8350000000000         1.951910128808119E-014
   85.0250000000000         1.929678665493395E-014
   85.2150000000000         1.954636558287049E-014
   85.4050000000000         2.076533652736506E-014
   85.5950000000000         2.348677325819636E-014
   85.7850000000000         2.711694734154035E-014
   85.9750000000000         3.072893349760424E-014
   86.1650000000000         3.385622222319413E-014
   86.3550000000000         3.643570553276521E-014
   86.5450000000000         3.881372497250373E-014
   86.7350000000000         4.120357794879012E-014
   86.9250000000000         4.358178092857709E-014
   87.1150000000000         4.588975798405679E-014
   87.3050000000000         4.822306950275039E-014
   87.4950000000000         5.056995021914022E-014
   87.6850000000000         5.273188236504782E-014
   87.8750000000000         5.398761143867888E-014
   88.0650000000000         5.530408185080412E-014
   88.2550000000000         5.616795087248785E-014
   88.4450000000000         5.733676691219904E-014
   88.6350000000000         5.865151860844637E-014
   88.8250000000000         6.054093813904618E-014
   89.0150000000000         6.270696894318947E-014
   89.2050000000000         6.493245467003405E-014
   89.3950000000000         6.583518243576199E-014
   89.5850000000000         6.417414522497800E-014
   89.7750000000000         6.106797175112344E-014
   89.9650000000000         5.730656675059120E-014
   90.1550000000000         5.280698045486676E-014
   90.3450000000000         4.862181636909026E-014
   90.5350000000000         4.465996382989406E-014
   90.7250000000000         4.125526659277473E-014
   90.9150000000000         3.856420393444320E-014
   91.1050000000000         3.664262966895994E-014
   91.2950000000000         3.540783730604712E-014
   91.4850000000000         3.465572175061521E-014
   91.6750000000000         3.443021925006124E-014
   91.8650000000000         3.480395715636251E-014
   92.0550000000000         3.555852632125798E-014
   92.2450000000000         3.620168430708686E-014
   92.4350000000000         3.672521942926365E-014
   92.6250000000000         3.739645790799358E-014
   92.8150000000000         3.790828350764570E-014
   93.0050000000000         3.854884063589054E-014
   93.1950000000000         3.935880658735558E-014
   93.3850000000000         3.991801537094885E-014
   93.5750000000000         3.909798437499789E-014
   93.7650000000000         3.648099546389084E-014
   93.9550000000000         3.232034850829425E-014
   94.1450000000000         2.814080637010801E-014
   94.3350000000000         2.433088681364913E-014
   94.5250000000000         2.075891748835315E-014
   94.7150000000000         1.816875941635682E-014
   94.9050000000000         1.565188562094476E-014
   95.0950000000000         1.407075246313349E-014
   95.2850000000000         1.275311437761142E-014
   95.4750000000000         1.241026579126440E-014
   95.6650000000000         1.183132403052645E-014
   95.8550000000000         1.178847462788558E-014
   96.0450000000000         1.196280812604132E-014
   96.2350000000000         1.264369652231229E-014
   96.4250000000000         1.421281897148397E-014
   96.6150000000000         1.681392376294291E-014
   96.8050000000000         2.117139041362152E-014
   96.9950000000000         2.635601967044460E-014
   97.1850000000000         3.163132612845493E-014
   97.3750000000000         3.503520801583991E-014
   97.5650000000000         3.906760640956865E-014
   97.7550000000000         4.283823936700460E-014
   97.9450000000000         4.686025228284577E-014
   98.1350000000000         5.124646174823012E-014
   98.3250000000000         5.532337695110342E-014
   98.5150000000000         5.859205728659292E-014
   98.7050000000000         6.079867398518112E-014
   98.8950000000000         6.191784560225468E-014
   99.0850000000000         6.210227845516744E-014
   99.2750000000000         6.133488093334173E-014
   99.4650000000000         5.883251888913173E-014
   99.6550000000000         5.529930405942957E-014
   99.8450000000000         5.112110609133005E-014
   100.035000000000         4.673942011086713E-014
   100.225000000000         4.276576271186310E-014
   100.415000000000         3.945763160451790E-014
   100.605000000000         3.674860933191480E-014
   100.795000000000         3.484924488150497E-014
   100.985000000000         3.355184425195485E-014
   101.175000000000         3.333665063535705E-014
   101.365000000000         3.255426029899005E-014
   101.555000000000         3.229028998848612E-014
   101.745000000000         3.185447884151141E-014
   101.935000000000         3.115744601404077E-014
   102.125000000000         3.028055956270336E-014
   102.315000000000         3.057656000248809E-014
   102.505000000000         3.142197985883234E-014
   102.695000000000         3.252499902956146E-014
   102.885000000000         3.370275009409532E-014
   103.075000000000         3.459435067866108E-014
   103.265000000000         3.520584456095097E-014
   103.455000000000         3.561943089032751E-014
   103.645000000000         3.541576396164016E-014
   103.835000000000         3.528334744586545E-014
   104.025000000000         3.492483208631075E-014
   104.215000000000         3.478178559521975E-014
   104.405000000000         3.470684502326953E-014
   104.595000000000         3.463954180219191E-014
   104.785000000000         3.433112463219718E-014
   104.975000000000         3.339419215046294E-014
   105.165000000000         3.159310977280750E-014
   105.355000000000         2.931860369347383E-014
   105.545000000000         2.681045668616596E-014
   105.735000000000         2.432408774899442E-014
   105.925000000000         2.235513316768364E-014
   106.115000000000         2.117270568410907E-014
   106.305000000000         2.038414320312018E-014
   106.495000000000         2.046458343036681E-014
   106.685000000000         2.073848882867631E-014
   106.875000000000         2.130052542870763E-014
   107.065000000000         2.205577687104343E-014
   107.255000000000         2.292314177150734E-014
   107.445000000000         2.389805985876832E-014
   107.635000000000         2.491383101295416E-014
   107.825000000000         2.593266082355500E-014
   108.015000000000         2.690792708966713E-014
   108.205000000000         2.820587940897990E-014
   108.395000000000         3.075382014450011E-014
   108.585000000000         3.490798686123180E-014
   108.775000000000         3.951535817892536E-014
   108.965000000000         4.496208016939473E-014
   109.155000000000         4.677936286235631E-014
   109.345000000000         5.099508790277257E-014
   109.535000000000         5.195550436579422E-014
   109.725000000000         5.285070631304983E-014
   109.915000000000         5.362824188345820E-014
   110.105000000000         5.488831085579696E-014