  -1.42500000000000         5.145211686522468E-019
  -1.23500000000000         5.791422648517349E-018
  -1.04500000000000         7.615682356267290E-017
 -0.855000000000000         2.622880247148517E-016
 -0.665000000000000         7.142212383848225E-016
 -0.475000000000000         2.963581227079588E-015
 -0.285000000000000         8.219439488452367E-015
 -9.499999999999975E-002    2.908350606493592E-014
  9.500000000000020E-002    6.313698738550628E-014
  0.285000000000000         1.072826114026464E-013
  0.475000000000000         1.176525812764015E-013
  0.665000000000000         2.368168450444819E-013
  0.855000000000000         3.498570057006889E-013
   1.04500000000000         6.012097217360600E-013
   1.23500000000000         7.638688949213858E-013
   1.42500000000000         8.244127824769672E-013
   1.61500000000000         9.208344308818182E-013
   1.80500000000000         1.537297965899887E-012
   1.99500000000000         1.742463875507797E-012
   2.18500000000000         1.814930105518571E-012
   2.37500000000000         1.913055795382958E-012
   2.56500000000000         1.892982774462761E-012
   2.75500000000000         1.863154716580852E-012
   2.94500000000000         1.913026919460330E-012
   3.13500000000000         1.958826342447125E-012
   3.32500000000000         1.966051435571758E-012
   3.51500000000000         1.972158316496020E-012
   3.70500000000000         1.968843967709153E-012
   3.89500000000000         1.951603684290275E-012
   4.08500000000000         1.936615592541399E-012
   4.27500000000000         1.911088269094614E-012
   4.46500000000000         1.854103640411400E-012
   4.65500000000000         1.794373391208372E-012
   4.84500000000000         1.743205015218741E-012
   5.03500000000000         1.663620052120889E-012
   5.22500000000000         1.689662267955873E-012
   5.41500000000000         1.529260767023135E-012
   5.60500000000000         1.454346076672332E-012
   5.79500000000000         1.189916344715434E-012
   5.98500000000000         1.025274179518337E-012
   6.17500000000000         1.086557869936184E-012
   6.36500000000000         9.369684468047700E-013
   6.55500000000000         9.044162063763887E-013
   6.74500000000000         7.741828050405515E-013
   6.93500000000000         6.256791622345184E-013
   7.12500000000000         8.624517951365593E-013
   7.31500000000000         5.977361363916711E-013
   7.50500000000000         6.067288418093911E-013
   7.69500000000000         6.159522997199596E-013
   7.88500000000000         6.283333267213218E-013
   8.07500000000000         6.904427958873675E-013
   8.26500000000000         6.921114720289875E-013
   8.45500000000000         1.064337642595028E-012
   8.64500000000000         1.127724524248781E-012
   8.83500000000000         1.119877873592043E-012
   9.02500000000000         1.092445159811796E-012
   9.21500000000000         8.829089852610336E-013
   9.40500000000000         1.206108251299739E-012
   9.59500000000000         1.296503596472888E-012
   9.78500000000000         1.242059597452999E-012
   9.97500000000000         1.193796919279581E-012
   10.1650000000000         1.223694870487821E-012
   10.3550000000000         1.365949361666970E-012
   10.5450000000000         1.292809231363152E-012
   10.7350000000000         1.297582165230269E-012
   10.9250000000000         1.289077440861623E-012
   11.1150000000000         1.304782752273937E-012
   11.3050000000000         1.355692479985766E-012
   11.4950000000000         1.460090274655102E-012
   11.6850000000000         1.565814266044193E-012
   11.8750000000000         1.603650967019431E-012
   12.0650000000000         1.620832567743111E-012
   12.2550000000000         1.617621504390704E-012
   12.4450000000000         1.613749962008278E-012
   12.6350000000000         1.578485594546459E-012
   12.8250000000000         1.382692972620505E-012
   13.0150000000000         1.256524782809092E-012
   13.2050000000000         1.110882159137498E-012
   13.3950000000000         9.693971561762792E-013
   13.5850000000000         6.985615374621448E-013
   13.7750000000000         6.235856944849112E-013
   13.9650000000000         6.375877811056242E-013
   14.1550000000000         6.655322346846252E-013
   14.3450000000000         5.781794992302835E-013
   14.5350000000000         6.094313014355480E-013
   14.7250000000000         6.869527162305715E-013
   14.9150000000000         8.300280865102797E-013
   15.1050000000000         9.830084439300759E-013
   15.2950000000000         9.812185427052225E-013
   15.4850000000000         1.051821043601439E-012
   15.6750000000000         1.067017116457054E-012
   15.8650000000000         1.136382312553832E-012
   16.0550000000000         1.287614234066237E-012
   16.2450000000000         1.358339905892348E-012
   16.4350000000000         1.635422620060192E-012
   16.6250000000000         1.521255318214421E-012
   16.8150000000000         1.583977638831388E-012
   17.0050000000000         1.591012236166489E-012
   17.1950000000000         1.767572125193271E-012
   17.3850000000000         1.773295838700878E-012
   17.5750000000000         1.822349169570531E-012
   17.7650000000000         1.852761597871446E-012
   17.9550000000000         1.852741514633755E-012
   18.1450000000000         1.864941189457824E-012
   18.3350000000000         1.879570512524549E-012
   18.5250000000000         1.874056766532860E-012
   18.7150000000000         1.809353258908415E-012
   18.9050000000000         1.669796892191897E-012
   19.0950000000000         1.517156437885107E-012
   19.2850000000000         1.426234507600079E-012
   19.4750000000000         1.323298675838240E-012
   19.6650000000000         1.228567345606540E-012
   19.8550000000000         8.858561442518239E-013
   20.0450000000000         5.634170074935752E-013
   20.2350000000000         4.727835535455477E-013
   20.4250000000000         3.902293524155400E-013
   20.6150000000000         3.135249616945302E-013
   20.8050000000000         2.854266874834276E-013
   20.9950000000000         2.514346648266307E-013
   21.1850000000000         3.453095120023668E-013
   21.3750000000000         2.031005290884081E-013
   21.5650000000000         2.063403037574605E-013
   21.7550000000000         2.166277607687657E-013
   21.9450000000000         2.860591933248942E-013
   22.1350000000000         4.372779793851767E-013
   22.3250000000000         3.321382143214779E-013
   22.5150000000000         6.203254795120219E-013
   22.7050000000000         5.275347516717432E-013
   22.8950000000000         7.814981868776845E-013
   23.0850000000000         7.263675687960180E-013
   23.2750000000000         1.035774545304577E-012
   23.4650000000000         1.156611430999996E-012
   23.6550000000000         1.147960703483005E-012
   23.8450000000000         1.321822534906942E-012
   24.0350000000000         1.484283783467506E-012
   24.2250000000000         1.656181366482578E-012
   24.4150000000000         1.851297260591585E-012
   24.6050000000000         2.008964622132239E-012
   24.7950000000000         2.031334747602083E-012
   24.9850000000000         2.181164638594107E-012
   25.1750000000000         2.214826584665879E-012
   25.3650000000000         2.211732391864242E-012
   25.5550000000000         2.179761757537139E-012
   25.7450000000000         2.196580073765592E-012
   25.9350000000000         1.954064059509756E-012
   26.1250000000000         1.953934428185057E-012
   26.3150000000000         1.879047907577757E-012
   26.5050000000000         1.780700015008600E-012
   26.6950000000000         1.752394472604893E-012
   26.8850000000000         1.614551177851391E-012
   27.0750000000000         1.608123561383562E-012
   27.2650000000000         1.505830822803193E-012
   27.4550000000000         1.401339196975109E-012
   27.6450000000000         1.304773109431692E-012
   27.8350000000000         1.298416800177523E-012
   28.0250000000000         1.041613069749929E-012
   28.2150000000000         1.029931652052570E-012
   28.4050000000000         7.636828507694377E-013
   28.5950000000000         7.769041734275624E-013
   28.7850000000000         6.150257661514606E-013
   28.9750000000000         3.619402452778500E-013
   29.1650000000000         3.823967165921156E-013
   29.3550000000000         2.786188883637400E-013
   29.5450000000000         1.465377995850470E-013
   29.7350000000000         2.021201448614567E-014
   29.9250000000000        -4.182014589661285E-014
   30.1150000000000        -1.304947331993670E-013
   30.3050000000000        -1.076975879788714E-013
   30.4950000000000        -1.887478814735268E-013
   30.6850000000000         1.300451240887373E-013
   30.8750000000000         1.609474808750981E-013
   31.0650000000000         3.512938485815462E-013
   31.2550000000000         5.873873577711748E-013
   31.4450000000000         7.653007378311358E-013
   31.6350000000000         1.018745088834400E-012
   31.8250000000000         1.249889853744346E-012
   32.0150000000000         1.446547112635189E-012
   32.2050000000000         1.604087083423445E-012
   32.3950000000000         1.980688994128693E-012
   32.5850000000000         2.059156704036840E-012
   32.7750000000000         2.400968527508429E-012
   32.9650000000000         2.424098168113196E-012
   33.1550000000000         2.338921947350123E-012
   33.3450000000000         2.393891093968682E-012
   33.5350000000000         2.351540406073125E-012
   33.7250000000000         2.229293155941220E-012
   33.9150000000000         2.090081318817950E-012
   34.1050000000000         1.843585668581950E-012
   34.2950000000000         1.736643661179697E-012
   34.4850000000000         1.747941021917187E-012
   34.6750000000000         1.538343705308082E-012
   34.8650000000000         1.511183953731007E-012
   35.0550000000000         1.421293446237233E-012
   35.2450000000000         1.322641061104757E-012
   35.4350000000000         1.261238458835411E-012
   35.6250000000000         1.174238278594237E-012
   35.8150000000000         1.101200681595161E-012
   36.0050000000000         8.950887910785219E-013
   36.1950000000000         9.414476503878575E-013
   36.3850000000000         1.043202004870909E-012
   36.5750000000000         8.505173141230333E-013
   36.7650000000000         8.529201395263338E-013
   36.9550000000000         7.390551903315273E-013
   37.1450000000000         6.662103086813400E-013
   37.3350000000000         6.196024876594004E-013
   37.5250000000000         5.708376968330070E-013
   37.7150000000000         5.312713417232945E-013
   37.9050000000000         5.348091107171712E-013
   38.0950000000000         5.842372266499680E-013
   38.2850000000000         8.196538698207344E-013
   38.4750000000000         9.222585426238937E-013
   38.6650000000000         9.228086186893278E-013
   38.8550000000000         1.205020649827475E-012
   39.0450000000000         1.373219567531281E-012
   39.2350000000000         1.596589241804915E-012
   39.4250000000000         1.662314998089289E-012
   39.6150000000000         1.945106063990258E-012
   39.8050000000000         2.078280527075001E-012
   39.9950000000000         1.997648123778859E-012
   40.1850000000000         2.088088634686772E-012
   40.3750000000000         1.981571201691873E-012
   40.5650000000000         1.947200590316828E-012
   40.7550000000000         1.799283557068173E-012
   40.9450000000000         1.708248454847105E-012
   41.1350000000000         1.758131124850559E-012
   41.3250000000000         1.571797822373525E-012
   41.5150000000000         1.540884115961660E-012
   41.7050000000000         1.410041303381045E-012
   41.8950000000000         1.200446027526560E-012
   42.0850000000000         1.412108554459742E-012
   42.2750000000000         1.248790477890132E-012
   42.4650000000000         1.163553435417193E-012
   42.6550000000000         1.152551978842648E-012
   42.8450000000000         1.134341163964236E-012
   43.0350000000000         1.108899604483141E-012
   43.2250000000000         1.021787081266299E-012
   43.4150000000000         1.017322365046179E-012
   43.6050000000000         9.629055421116975E-013
   43.7950000000000         8.569715802779859E-013
   43.9850000000000         8.005335165871167E-013
   44.1750000000000         7.384762116551448E-013
   44.3650000000000         8.597348460745995E-013
   44.5550000000000         9.874421521982962E-013
   44.7450000000000         1.156839935011611E-012
   44.9350000000000         1.232280188967373E-012
   45.1250000000000         1.190757869692391E-012
   45.3150000000000         1.239662678324337E-012
   45.5050000000000         1.403367270816375E-012
   45.6950000000000         1.590218340466007E-012
   45.8850000000000         1.781915596316417E-012
   46.0750000000000         1.915063343154237E-012
   46.2650000000000         1.840414188500056E-012
   46.4550000000000         1.838327556296838E-012
   46.6450000000000         1.801362502433660E-012
   46.8350000000000         1.775939173126533E-012
   47.0250000000000         1.576063085572510E-012
   47.2150000000000         1.619080603309457E-012
   47.4050000000000         1.471473222365591E-012
   47.5950000000000         1.317242769092505E-012
   47.7850000000000         1.156763267088378E-012
   47.9750000000000         9.509990360336280E-013
   48.1650000000000         9.205535641597902E-013
   48.3550000000000         8.100351364995988E-013
   48.5450000000000         5.497905947021839E-013
   48.7350000000000         4.714126370518765E-013
   48.9250000000000         5.121783481609793E-013
   49.1150000000000         6.133735975273980E-013
   49.3050000000000         5.410863972705250E-013
   49.4950000000000         8.224521721285638E-013
   49.6850000000000         1.102760621195203E-012
   49.8750000000000         8.224402186102654E-013
   50.0650000000000         9.311416449049335E-013
   50.2550000000000         9.763663846126822E-013
   50.4450000000000         7.691967425511067E-013
   50.6350000000000         6.875325885564849E-013
   50.8250000000000         6.393620063773552E-013
   51.0150000000000         6.056383235060986E-013
   51.2050000000000         6.231602606348332E-013
   51.3950000000000         7.525412156989957E-013
   51.5850000000000         8.513099855168899E-013
   51.7750000000000         7.430570922651608E-013
   51.9650000000000         8.608850025008668E-013
   52.1550000000000         9.872218660470952E-013
   52.3450000000000         1.172144502803882E-012
   52.5350000000000         1.288086596544419E-012
   52.7250000000000         1.357128863504342E-012
   52.9150000000000         1.905515558744169E-012
   53.1050000000000         1.974925742026787E-012
   53.2950000000000         2.205153636317486E-012
   53.4850000000000         2.175440366851386E-012
   53.6750000000000         2.395356451385375E-012
   53.8650000000000         2.542335020074426E-012
   54.0550000000000         2.515612893290428E-012
   54.2450000000000         2.532532733902009E-012
   54.4350000000000         2.508524312881524E-012
   54.6250000000000         2.512465968714440E-012
   54.8150000000000         2.448231429450885E-012
   55.0050000000000         2.477943420792585E-012
   55.1950000000000         2.351157024994735E-012
   55.3850000000000         2.256568617038383E-012
   55.5750000000000         2.188879665353097E-012
   55.7650000000000         2.071148941416316E-012
   55.9550000000000         1.951860497760212E-012
   56.1450000000000         1.921318563085657E-012
   56.3350000000000         1.763469526043704E-012
   56.5250000000000         1.619513664516900E-012
   56.7150000000000         1.490502282253242E-012
   56.9050000000000         1.394643622043328E-012
   57.0950000000000         1.217792121395964E-012
   57.2850000000000         8.554631225526562E-013
   57.4750000000000         5.716207133541854E-013
   57.6650000000000         1.480999144274822E-013
   57.8550000000000         2.693959851840697E-013
   58.0450000000000         2.016440775433213E-013
   58.2350000000000         1.720318861502058E-013
   58.4250000000000         2.130263769730070E-013
   58.6150000000000         1.829122063819450E-013
   58.8050000000000         1.640180923527924E-013
   58.9950000000000         1.290320897512579E-013
   59.1850000000000         1.003562657063204E-013
   59.3750000000000         1.300232751396020E-013
   59.5650000000000         1.787856573863874E-013
   59.7550000000000         2.223235697462541E-013
   59.9450000000000         2.418609199986834E-013
   60.1350000000000         2.484693734684810E-013
   60.3250000000000         2.740985512374410E-013
   60.5150000000000         5.078068058378168E-013
   60.7050000000000         3.834167562209403E-013
   60.8950000000000         3.106612003767806E-013
   61.0850000000000         5.089961152204341E-013
   61.2750000000000         4.986895551469310E-013
   61.4650000000000         6.199564434897371E-013
   61.6550000000000         7.877686124226388E-013
   61.8450000000000         1.259878922670815E-012
   62.0350000000000         1.299350207131064E-012
   62.2250000000000         1.742641169677719E-012
   62.4150000000000         1.867770834295821E-012
   62.6050000000000         1.959599808201328E-012
   62.7950000000000         1.989994753142569E-012
   62.9850000000000         2.074147069214729E-012
   63.1750000000000         2.171666122203699E-012
   63.3650000000000         2.161330699362233E-012
   63.5550000000000         2.206410127695665E-012
   63.7450000000000         2.052129314712777E-012
   63.9350000000000         1.899371811504527E-012
   64.1250000000000         2.132169408239476E-012
   64.3150000000000         2.181976793932607E-012
   64.5050000000000         2.098990115222868E-012
   64.6950000000000         1.827866053135080E-012
   64.8850000000000         1.348748519710631E-012
   65.0750000000000         1.467000606404399E-012
   65.2650000000000         1.257590865934585E-012
   65.4550000000000         9.844121405843134E-013
   65.6450000000000         6.453837744576882E-013
   65.8350000000000         5.174130132966681E-013
   66.0250000000000         5.552606026344936E-013
   66.2150000000000         4.243094979373666E-013
   66.4050000000000         4.015237614369100E-013
   66.5950000000000         4.608110000553338E-013
   66.7850000000000         5.065526166413381E-013
   66.9750000000000         5.315515492989067E-013
   67.1650000000000         5.515755052669233E-013
   67.3550000000000         5.714799761459306E-013
   67.5450000000000         6.948668449917756E-013
   67.7350000000000         7.521392994222325E-013
   67.9250000000000         8.847858189935657E-013
   68.1150000000000         1.014184555335267E-012
   68.3050000000000         1.204452338934432E-012
   68.4950000000000         1.053661753521174E-012
   68.6850000000000         1.132486554778293E-012
   68.8750000000000         1.249278716691434E-012
   69.0650000000000         1.398309554143463E-012
   69.2550000000000         1.518683234904126E-012
   69.4450000000000         1.682230950180551E-012
   69.6350000000000         1.822582526774237E-012
   69.8250000000000         1.747710336367307E-012
   70.0150000000000         1.866175684862396E-012
   70.2050000000000         1.983944460624611E-012
   70.3950000000000         2.060779953274480E-012
   70.5850000000000         2.053033475827834E-012
   70.7750000000000         1.992457797538348E-012
   70.9650000000000         1.950130408224659E-012
   71.1550000000000         1.963315282075427E-012
   71.3450000000000         1.966723855959915E-012
   71.5350000000000         1.962016102067605E-012
   71.7250000000000         1.929083248298080E-012
   71.9150000000000         1.948062798378605E-012
   72.1050000000000         1.941457765277568E-012
   72.2950000000000         1.961134476246473E-012
   72.4850000000000         1.997140187501129E-012
   72.6750000000000         2.025671498234097E-012
   72.8650000000000         1.993894578706246E-012
   73.0550000000000         1.930726339368589E-012
   73.2450000000000         1.820028288400183E-012
   73.4350000000000         1.792407768443355E-012
   73.6250000000000         1.741345089373911E-012
   73.8150000000000         1.759740490394923E-012
   74.0050000000000         1.582283027120432E-012
   74.1950000000000         1.542671730325785E-012
   74.3850000000000         1.493467335128326E-012
   74.5750000000000         1.466208283053109E-012
   74.7650000000000         1.466959452553825E-012
   74.9550000000000         1.577564447823511E-012
   75.1450000000000         1.619769493244548E-012
   75.3350000000000         1.462160655416963E-012
   75.5250000000000         1.335530851275564E-012
   75.7150000000000         1.255348213798371E-012
   75.9050000000000         1.258110061614520E-012
   76.0950000000000         1.272774530791245E-012
   76.2850000000000         1.297455923114388E-012
   76.4750000000000         1.227137811773077E-012
   76.6650000000000         1.161765081692764E-012
   76.8550000000000         1.164021737916962E-012
   77.0450000000000         1.170147412716541E-012
   77.2350000000000         1.124241748398781E-012
   77.4250000000000         1.102052746411310E-012
   77.6150000000000         9.985482838931085E-013
   77.8050000000000         9.085952115550345E-013
   77.9950000000000         8.113890746383079E-013
   78.1850000000000         7.843734046287701E-013
   78.3750000000000         6.285359985772922E-013
   78.5650000000000         7.417758598856733E-013
   78.7550000000000         6.149116486987378E-013
   78.9450000000000         4.640100990629788E-013
   79.1350000000000         3.290194528343829E-013
   79.3250000000000         3.001338727614306E-013
   79.5150000000000         3.051908635260618E-013
   79.7050000000000         4.179745223370870E-013
   79.8950000000000         4.262908737040791E-013
   80.0850000000000         5.622178087076834E-013
   80.2750000000000         6.601122697855894E-013
   80.4650000000000         8.076140907776767E-013
   80.6550000000000         1.206928239910131E-012
   80.8450000000000         1.396920305198963E-012
   81.0350000000000         1.508446397424472E-012
   81.2250000000000         1.687283748244246E-012
   81.4150000000000         1.871180544392657E-012
   81.6050000000000         1.936477224460391E-012
   81.7950000000000         2.162466547971582E-012
   81.9850000000000         2.065779945063678E-012
   82.1750000000000         2.027576358321383E-012
   82.3650000000000         2.027102865107168E-012
   82.5550000000000         2.035533741314907E-012
   82.7450000000000         1.994277446808496E-012
   82.9350000000000         1.972351205868045E-012
   83.1250000000000         1.968441163807316E-012
   83.3150000000000         2.165466446039515E-012
   83.5050000000000         2.100112418131381E-012
   83.6950000000000         2.101056444451178E-012
   83.8850000000000         2.134833026213880E-012
   84.0750000000000         2.202184227710382E-012
   84.2650000000000         2.276464980055923E-012
   84.4550000000000         2.252863343152724E-012
   84.6450000000000         2.226650744042319E-012
   84.8350000000000         2.207158564144826E-012
   85.0250000000000         2.237665531260066E-012
   85.2150000000000         2.247955529534854E-012
   85.4050000000000         2.271096401022431E-012
   85.5950000000000         2.190246526996579E-012
   85.7850000000000         1.984248310491132E-012
   85.9750000000000         1.992047871850701E-012
   86.1650000000000         1.794411954767630E-012
   86.3550000000000         1.475422685313200E-012
   86.5450000000000         1.315606188179638E-012
   86.7350000000000         1.097057192984488E-012
   86.9250000000000         7.728473101469691E-013
   87.1150000000000         5.343702660681902E-013
   87.3050000000000         3.124625205989280E-013
   87.4950000000000         2.239176439358694E-013
   87.6850000000000         1.203527479716164E-013
   87.8750000000000         1.468190050758063E-013
   88.0650000000000         1.422951240465762E-013
   88.2550000000000         1.841788311792181E-013
   88.4450000000000         2.171579245532525E-013
   88.6350000000000         3.282552546787618E-013
   88.8250000000000         5.544609956138975E-013
   89.0150000000000         7.171700574163429E-013
   89.2050000000000         9.735472816326862E-013
   89.3950000000000         9.503154059957418E-013
   89.5850000000000         6.404039958829484E-013
   89.7750000000000         8.353688714109008E-013
   89.9650000000000         1.188159957782921E-012
   90.1550000000000         1.327415878831325E-012
   90.3450000000000         1.503190290622841E-012
   90.5350000000000         1.576200152933013E-012
   90.7250000000000         1.693542902584951E-012
   90.9150000000000         1.824583704857044E-012
   91.1050000000000         1.987761324368521E-012
   91.2950000000000         2.156512271933894E-012
   91.4850000000000         2.382197136864533E-012
   91.6750000000000         2.458300998932730E-012
   91.8650000000000         2.502976947778916E-012
   92.0550000000000         2.504683926587721E-012
   92.2450000000000         2.572418543564280E-012
   92.4350000000000         2.560071544695731E-012
   92.6250000000000         2.495263913709459E-012
   92.8150000000000         2.363877391661578E-012
   93.0050000000000         2.188467566986477E-012
   93.1950000000000         2.040988704787869E-012
   93.3850000000000         2.084546317183229E-012
   93.5750000000000         2.192972164944339E-012
   93.7650000000000         2.022516502879842E-012
   93.9550000000000         1.719808790275066E-012
   94.1450000000000         1.522777961366874E-012
   94.3350000000000         1.578864054591036E-012
   94.5250000000000         1.494245345143385E-012
   94.7150000000000         1.327199641185328E-012
   94.9050000000000         1.053279136511271E-012
   95.0950000000000         7.436032323048609E-013
   95.2850000000000         6.221707167531576E-013
   95.4750000000000         7.089922864296223E-013
   95.6650000000000         4.838548522901147E-013
   95.8550000000000         6.035453083264863E-013
   96.0450000000000         5.510791199882976E-013
   96.2350000000000         3.825899472313816E-013
   96.4250000000000         2.576605266141978E-013
   96.6150000000000         1.622759147931471E-013
   96.8050000000000         1.682573320674678E-013
   96.9950000000000         3.140471149453998E-013
   97.1850000000000         3.466197219442104E-013
   97.3750000000000         2.991080582225744E-013
   97.5650000000000         2.990633609601810E-013
   97.7550000000000         3.513562243593037E-013
   97.9450000000000         5.154868094521075E-013
   98.1350000000000         9.200100060831418E-013
   98.3250000000000         1.028853536445469E-012
   98.5150000000000         1.117225879740529E-012
   98.7050000000000         1.258094191704968E-012
   98.8950000000000         1.574113017937797E-012
   99.0850000000000         1.814196466028680E-012
   99.2750000000000         1.789370289388015E-012
   99.4650000000000         1.735029597555772E-012
   99.6550000000000         2.023120521333959E-012
   99.8450000000000         1.989354680170543E-012
   100.035000000000         1.883948791819748E-012
   100.225000000000         1.837215427287742E-012
   100.415000000000         1.739880326404387E-012
   100.605000000000         1.657446022739108E-012
   100.795000000000         1.680445738593932E-012
   100.985000000000         1.465753243435033E-012
   101.175000000000         1.460486097053744E-012
   101.365000000000         1.374246776784690E-012
   101.555000000000         1.494568512196436E-012
   101.745000000000         1.585395357324620E-012
   101.935000000000         1.705872881033685E-012
   102.125000000000         1.985181332632476E-012
   102.315000000000         1.801310668075872E-012
   102.505000000000         1.721987093437234E-012
   102.695000000000         1.685236950525053E-012
   102.885000000000         1.625496817521508E-012
   103.075000000000         1.449912384941752E-012
   103.265000000000         1.534639717048006E-012
   103.455000000000         1.457780507885670E-012
   103.645000000000         1.438316978721914E-012
   103.835000000000         1.201454184031885E-012
   104.025000000000         1.124393711100328E-012
   104.215000000000         1.305272972024069E-012
   104.405000000000         1.285992514758391E-012
   104.595000000000         1.250664752546877E-012
   104.785000000000         1.206786348184993E-012
   104.975000000000         1.214323535115608E-012
   105.165000000000         1.312065395007927E-012
   105.355000000000         1.374619597486284E-012
   105.545000000000         1.385075196634023E-012
   105.735000000000         1.341338819142014E-012
   105.925000000000         1.289209593994508E-012
   106.115000000000         1.272597505038486E-012
   106.305000000000         1.258762106745222E-012
   106.495000000000         1.295308676851304E-012
   106.685000000000         1.211039994627332E-012
   106.875000000000         1.158716769844497E-012
   107.065000000000         1.063533439653769E-012
   107.255000000000         1.033995819443605E-012
   107.445000000000         1.057110448383599E-012
   107.635000000000         1.090022915701040E-012
   107.825000000000         1.080452016063053E-012
   108.015000000000         1.021570361563518E-012
   108.205000000000         9.601630889675692E-013
   108.395000000000         9.766380566988613E-013
   108.585000000000         1.019803026570065E-012
   108.775000000000         1.071335247830640E-012
   108.965000000000         1.099204524816300E-012
   109.155000000000         1.111074404230792E-012
   109.345000000000         1.172539451389456E-012
   109.535000000000         1.193710312893102E-012
   109.725000000000         1.271786395499267E-012
   109.915000000000         1.390114048875277E-012
   110.105000000000         1.476260897724417E-012