  -1.42500000000000         0.000000000000000E+000
  -1.23500000000000         2.152261984544397E-010
  -1.04500000000000         1.503725853987351E-009
 -0.855000000000000         6.962590047506692E-009
 -0.665000000000000         2.615554378385107E-008
 -0.475000000000000         8.303861965193977E-008
 -0.285000000000000         2.260569598013730E-007
 -9.499999999999975E-002    5.306207021321798E-007
  9.500000000000020E-002    1.077848178809640E-006
  0.285000000000000         1.914800125669199E-006
  0.475000000000000         3.042301777749681E-006
  0.665000000000000         4.451001500063157E-006
  0.855000000000000         5.941738517243846E-006
   1.04500000000000         7.396572449655483E-006
   1.23500000000000         8.655826092626084E-006
   1.42500000000000         9.388909838084392E-006
   1.61500000000000         1.066742312076122E-005
   1.80500000000000         1.187019339122550E-005
   1.99500000000000         1.280957505341863E-005
   2.18500000000000         1.360659195492223E-005
   2.37500000000000         1.420976693462086E-005
   2.56500000000000         1.461281750360551E-005
   2.75500000000000         1.487418296582236E-005
   2.94500000000000         1.501395743034060E-005
   3.13500000000000         1.501520676358757E-005
   3.32500000000000         1.502048135058800E-005
   3.51500000000000         1.497943801780030E-005
   3.70500000000000         1.491782363497605E-005
   3.89500000000000         1.481615536914805E-005
   4.08500000000000         1.471026114928044E-005
   4.27500000000000         1.457025032119683E-005
   4.46500000000000         1.432739550083313E-005
   4.65500000000000         1.401045811509926E-005
   4.84500000000000         1.371041723481355E-005
   5.03500000000000         1.348926222399462E-005
   5.22500000000000         1.341188528079901E-005
   5.41500000000000         1.312867875277005E-005
   5.60500000000000         1.259388865870666E-005
   5.79500000000000         1.178619092563495E-005
   5.98500000000000         1.077991836620144E-005
   6.17500000000000         9.691875538697167E-006
   6.36500000000000         8.579995737884270E-006
   6.55500000000000         7.788982263229024E-006
   6.74500000000000         7.216584644035078E-006
   6.93500000000000         6.897090248683409E-006
   7.12500000000000         7.018746833863942E-006
   7.31500000000000         7.467907624948190E-006
   7.50500000000000         8.229415112192301E-006
   7.69500000000000         9.198652278870149E-006
   7.88500000000000         1.023501354026717E-005
   8.07500000000000         1.141762567794326E-005
   8.26500000000000         1.218650532814698E-005
   8.45500000000000         1.312844734117856E-005
   8.64500000000000         1.401619758281573E-005
   8.83500000000000         1.459348895558057E-005
   9.02500000000000         1.490998165961688E-005
   9.21500000000000         1.439297606737137E-005
   9.40500000000000         1.331983435313937E-005
   9.59500000000000         1.202419286516598E-005
   9.78500000000000         1.103450704684611E-005
   9.97500000000000         9.885066166661107E-006
   10.1650000000000         9.045255429861328E-006
   10.3550000000000         8.466312382025696E-006
   10.5450000000000         7.841276053577082E-006
   10.7350000000000         7.700050739016996E-006
   10.9250000000000         7.608763577427961E-006
   11.1150000000000         7.470391193209297E-006
   11.3050000000000         7.292760647157208E-006
   11.4950000000000         7.209025285352139E-006
   11.6850000000000         7.365846988394495E-006
   11.8750000000000         7.732999051597962E-006
   12.0650000000000         8.206094564328477E-006
   12.2550000000000         8.695822849457124E-006
   12.4450000000000         9.239016889673522E-006
   12.6350000000000         9.343902841790206E-006
   12.8250000000000         9.618276677129449E-006
   13.0150000000000         9.650418726455714E-006
   13.2050000000000         9.465666366106576E-006
   13.3950000000000         8.856890826322110E-006
   13.5850000000000         7.966846726310216E-006
   13.7750000000000         7.113679964088393E-006
   13.9650000000000         6.376836106503859E-006
   14.1550000000000         6.252076054846961E-006
   14.3450000000000         5.717018525455119E-006
   14.5350000000000         5.586202911756454E-006
   14.7250000000000         5.431531153084485E-006
   14.9150000000000         5.607435588786832E-006
   15.1050000000000         6.319955394209746E-006
   15.2950000000000         7.279636380673006E-006
   15.4850000000000         8.359031362307022E-006
   15.6750000000000         9.248374525598252E-006
   15.8650000000000         1.017307543644133E-005
   16.0550000000000         1.112668134454836E-005
   16.2450000000000         1.191790554611644E-005
   16.4350000000000         1.255494700085612E-005
   16.6250000000000         1.306139660995127E-005
   16.8150000000000         1.352395594503536E-005
   17.0050000000000         1.360836069050951E-005
   17.1950000000000         1.394441964165850E-005
   17.3850000000000         1.404880524969994E-005
   17.5750000000000         1.431391275779727E-005
   17.7650000000000         1.439042638682670E-005
   17.9550000000000         1.446854798800097E-005
   18.1450000000000         1.452295396646260E-005
   18.3350000000000         1.456585213399855E-005
   18.5250000000000         1.460033005444957E-005
   18.7150000000000         1.460792772364873E-005
   18.9050000000000         1.454720383587867E-005
   19.0950000000000         1.440260522221268E-005
   19.2850000000000         1.413711913226452E-005
   19.4750000000000         1.372897397767876E-005
   19.6650000000000         1.317296256084349E-005
   19.8550000000000         1.240211469631154E-005
   20.0450000000000         1.154500191625134E-005
   20.2350000000000         1.067148356729452E-005
   20.4250000000000         9.756919222949587E-006
   20.6150000000000         8.734893885004166E-006
   20.8050000000000         7.776222239175940E-006
   20.9950000000000         6.957337539639808E-006
   21.1850000000000         6.815729502625684E-006
   21.3750000000000         6.035284360634683E-006
   21.5650000000000         5.937078626057247E-006
   21.7550000000000         5.757920266996184E-006
   21.9450000000000         5.684887779934042E-006
   22.1350000000000         5.980962325419145E-006
   22.3250000000000         6.901127388602087E-006
   22.5150000000000         8.130192884934838E-006
   22.7050000000000         9.512521656340200E-006
   22.8950000000000         1.096291121870519E-005
   23.0850000000000         1.237700089442794E-005
   23.2750000000000         1.369331823528869E-005
   23.4650000000000         1.485263274503136E-005
   23.6550000000000         1.621253272203133E-005
   23.8450000000000         1.746969598487082E-005
   24.0350000000000         1.848360307913977E-005
   24.2250000000000         1.931839051813444E-005
   24.4150000000000         1.990888429226439E-005
   24.6050000000000         2.021059525733073E-005
   24.7950000000000         2.026683095437234E-005
   24.9850000000000         1.996926732610148E-005
   25.1750000000000         1.957383600403582E-005
   25.3650000000000         1.881578149075144E-005
   25.5550000000000         1.810445582464821E-005
   25.7450000000000         1.685785524210438E-005
   25.9350000000000         1.570247414882379E-005
   26.1250000000000         1.489472610486824E-005
   26.3150000000000         1.426398513861246E-005
   26.5050000000000         1.357753988720253E-005
   26.6950000000000         1.303680548391914E-005
   26.8850000000000         1.258606095362496E-005
   27.0750000000000         1.218472377104804E-005
   27.2650000000000         1.196957947646443E-005
   27.4550000000000         1.195319891687979E-005
   27.6450000000000         1.194631726260548E-005
   27.8350000000000         1.196696504299880E-005
   28.0250000000000         1.169295033491291E-005
   28.2150000000000         1.144478267591682E-005
   28.4050000000000         1.078960422122767E-005
   28.5950000000000         9.339899608733427E-006
   28.7850000000000         7.540264537282254E-006
   28.9750000000000         5.206959425628279E-006
   29.1650000000000         2.819513575001192E-006
   29.3550000000000         3.253222065090501E-007
   29.5450000000000        -1.987051042506783E-006
   29.7350000000000        -4.161224575276951E-006
   29.9250000000000        -6.114426908267117E-006
   30.1150000000000        -7.616623293403503E-006
   30.3050000000000        -8.436458507023270E-006
   30.4950000000000        -8.640109763071455E-006
   30.6850000000000        -8.685222074350432E-006
   30.8750000000000        -8.296423653266216E-006
   31.0650000000000        -6.155475819522618E-006
   31.2550000000000        -3.743652204616109E-006
   31.4450000000000        -1.060373695689526E-006
   31.6350000000000         1.950400898798784E-006
   31.8250000000000         5.029733465877671E-006
   32.0150000000000         7.965113687543713E-006
   32.2050000000000         1.039221563968321E-005
   32.3950000000000         1.232327816430056E-005
   32.5850000000000         1.371735871937217E-005
   32.7750000000000         1.478217099585994E-005
   32.9650000000000         1.560799551442596E-005
   33.1550000000000         1.591702574150969E-005
   33.3450000000000         1.633347151296920E-005
   33.5350000000000         1.668660857611829E-005
   33.7250000000000         1.663718627396640E-005
   33.9150000000000         1.592980546646067E-005
   34.1050000000000         1.469510232194943E-005
   34.2950000000000         1.339296203671918E-005
   34.4850000000000         1.254863425548226E-005
   34.6750000000000         1.154029004484486E-005
   34.8650000000000         1.056469991133923E-005
   35.0550000000000         9.799276244212533E-006
   35.2450000000000         9.232554601860348E-006
   35.4350000000000         9.147794570844730E-006
   35.6250000000000         9.302987084083627E-006
   35.8150000000000         9.592962751585792E-006
   36.0050000000000         9.878792074099443E-006
   36.1950000000000         1.014629419278672E-005
   36.3850000000000         1.025653596112280E-005
   36.5750000000000         1.031781083054398E-005
   36.7650000000000         1.029791516327764E-005
   36.9550000000000         1.022249118134564E-005
   37.1450000000000         9.984460059561291E-006
   37.3350000000000         9.694100253700365E-006
   37.5250000000000         9.392212680991878E-006
   37.7150000000000         9.078519159360443E-006
   37.9050000000000         8.806673724546445E-006
   38.0950000000000         8.688484504639168E-006
   38.2850000000000         8.878203310976045E-006
   38.4750000000000         1.021164370902973E-005
   38.6650000000000         1.250091415935953E-005
   38.8550000000000         1.467305303438477E-005
   39.0450000000000         1.698120675776388E-005
   39.2350000000000         1.935715125088806E-005
   39.4250000000000         2.154116714005450E-005
   39.6150000000000         2.328659021718981E-005
   39.8050000000000         2.468736742966321E-005
   39.9950000000000         2.523008498802585E-005
   40.1850000000000         2.604099766868364E-005
   40.3750000000000         2.615200451591618E-005
   40.5650000000000         2.634019846443876E-005
   40.7550000000000         2.646503104690504E-005
   40.9450000000000         2.605608870424871E-005
   41.1350000000000         2.484954606753648E-005
   41.3250000000000         2.282220122618653E-005
   41.5150000000000         2.076599668428087E-005
   41.7050000000000         1.885669920985864E-005
   41.8950000000000         1.662445762116061E-005
   42.0850000000000         1.460250508177562E-005
   42.2750000000000         1.265663800395954E-005
   42.4650000000000         1.073970458810823E-005
   42.6550000000000         9.118274383711703E-006
   42.8450000000000         7.474154846596287E-006
   43.0350000000000         6.182008012470202E-006
   43.2250000000000         5.207587939358992E-006
   43.4150000000000         3.970172540735692E-006
   43.6050000000000         3.629965579264204E-006
   43.7950000000000         3.228874185014375E-006
   43.9850000000000         2.865842047582436E-006
   44.1750000000000         2.442587718556940E-006
   44.3650000000000         2.118008630042880E-006
   44.5550000000000         2.479228341696008E-006
   44.7450000000000         4.168311598845180E-006
   44.9350000000000         6.803409713785804E-006
   45.1250000000000         9.558200989798663E-006
   45.3150000000000         1.206891017711408E-005
   45.5050000000000         1.441670850457326E-005
   45.6950000000000         1.621366075193374E-005
   45.8850000000000         1.748505665247859E-005
   46.0750000000000         1.792992339737986E-005
   46.2650000000000         1.846887931061921E-005
   46.4550000000000         1.875302308968495E-005
   46.6450000000000         1.898826964654480E-005
   46.8350000000000         1.831526772510487E-005
   47.0250000000000         1.655248954390497E-005
   47.2150000000000         1.419962779362856E-005
   47.4050000000000         1.212299028098950E-005
   47.5950000000000         1.002570143654571E-005
   47.7850000000000         8.024713729597781E-006
   47.9750000000000         6.166843897381012E-006
   48.1650000000000         4.763920425100792E-006
   48.3550000000000         3.357724279844910E-006
   48.5450000000000         2.386777273280292E-006
   48.7350000000000         1.457533632530612E-006
   48.9250000000000         1.009667306216461E-006
   49.1150000000000         6.662919193829886E-007
   49.3050000000000         2.950452771054652E-007
   49.4950000000000         1.019347692392218E-006
   49.6850000000000         2.443962078409575E-006
   49.8750000000000         4.319225350259717E-006
   50.0650000000000         6.037620345312448E-006
   50.2550000000000         7.903964432128899E-006
   50.4450000000000         9.480836923956965E-006
   50.6350000000000         1.010103045970051E-005
   50.8250000000000         1.162206602343201E-005
   51.0150000000000         1.187902526984803E-005
   51.2050000000000         1.221910248707408E-005
   51.3950000000000         1.285615070610837E-005
   51.5850000000000         1.310052264074479E-005
   51.7750000000000         1.223130218791478E-005
   51.9650000000000         1.114512787336821E-005
   52.1550000000000         1.008015584525319E-005
   52.3450000000000         9.275581134815886E-006
   52.5350000000000         8.644202836590859E-006
   52.7250000000000         8.310754811666117E-006
   52.9150000000000         8.300471471824564E-006
   53.1050000000000         8.496854142334916E-006
   53.2950000000000         8.860356164446543E-006
   53.4850000000000         9.584753764586307E-006
   53.6750000000000         1.119143656070578E-005
   53.8650000000000         1.256310255027398E-005
   54.0550000000000         1.401379567814145E-005
   54.2450000000000         1.550224885971451E-005
   54.4350000000000         1.700231169835554E-005
   54.6250000000000         1.830277377657225E-005
   54.8150000000000         1.947965585399109E-005
   55.0050000000000         2.042448184839050E-005
   55.1950000000000         2.102050764760671E-005
   55.3850000000000         2.158209177127295E-005
   55.5750000000000         2.182979874160360E-005
   55.7650000000000         2.182392738778620E-005
   55.9550000000000         2.143747044318124E-005
   56.1450000000000         2.029950161395708E-005
   56.3350000000000         1.820080408405101E-005
   56.5250000000000         1.612602618384584E-005
   56.7150000000000         1.406026253066882E-005
   56.9050000000000         1.196554070649994E-005
   57.0950000000000         1.021534343718026E-005
   57.2850000000000         8.921343756706146E-006
   57.4750000000000         7.399857920152531E-006
   57.6650000000000         6.023203788117300E-006
   57.8550000000000         5.150948807112061E-006
   58.0450000000000         4.804299033008342E-006
   58.2350000000000         4.443339758489915E-006
   58.4250000000000         4.115838160054397E-006
   58.6150000000000         4.018512965503856E-006
   58.8050000000000         4.018029580814608E-006
   58.9950000000000         4.106692296002340E-006
   59.1850000000000         4.233305327352551E-006
   59.3750000000000         4.358182809809286E-006
   59.5650000000000         4.460908553212475E-006
   59.7550000000000         4.590054028300474E-006
   59.9450000000000         4.748862052980510E-006
   60.1350000000000         4.957533217400677E-006
   60.3250000000000         5.187678703616329E-006
   60.5150000000000         5.328610435570789E-006
   60.7050000000000         5.330333138869851E-006
   60.8950000000000         5.168851806957405E-006
   61.0850000000000         5.131458426028418E-006
   61.2750000000000         5.141987816592090E-006
   61.4650000000000         5.197643180279235E-006
   61.6550000000000         5.245865416131371E-006
   61.8450000000000         5.315749717065761E-006
   62.0350000000000         5.396791215412335E-006
   62.2250000000000         5.523461247822886E-006
   62.4150000000000         5.638228674362698E-006
   62.6050000000000         5.688725706993018E-006
   62.7950000000000         5.691891711629123E-006
   62.9850000000000         5.739866441306480E-006
   63.1750000000000         5.837584279017385E-006
   63.3650000000000         6.003285731426118E-006
   63.5550000000000         6.249300032892043E-006
   63.7450000000000         6.592594882488215E-006
   63.9350000000000         6.935412481275367E-006
   64.1250000000000         7.242992584132031E-006
   64.3150000000000         7.489654961742616E-006
   64.5050000000000         7.672907838056468E-006
   64.6950000000000         7.956356870379293E-006
   64.8850000000000         7.980138930555099E-006
   65.0750000000000         8.028400843460063E-006
   65.2650000000000         8.088556009020230E-006
   65.4550000000000         8.080997744069019E-006
   65.6450000000000         8.042522609127022E-006
   65.8350000000000         7.985070085051648E-006
   66.0250000000000         7.937949149995989E-006
   66.2150000000000         7.857833150238788E-006
   66.4050000000000         7.749635460686990E-006
   66.5950000000000         7.696894066584421E-006
   66.7850000000000         7.580863452881315E-006
   66.9750000000000         7.492492031879680E-006
   67.1650000000000         7.387350503624828E-006
   67.3550000000000         7.275852848019178E-006
   67.5450000000000         7.166791807685806E-006
   67.7350000000000         7.116149997637052E-006
   67.9250000000000         7.144670108236320E-006
   68.1150000000000         7.277288185778439E-006
   68.3050000000000         7.592883033847190E-006
   68.4950000000000         8.064869844775841E-006
   68.6850000000000         8.689189874230699E-006
   68.8750000000000         9.435571423088160E-006
   69.0650000000000         1.025296849431220E-005
   69.2550000000000         1.111896697447557E-005
   69.4450000000000         1.195407124709816E-005
   69.6350000000000         1.267242894549012E-005
   69.8250000000000         1.309196261612536E-005
   70.0150000000000         1.357949075323476E-005
   70.2050000000000         1.405943464210558E-005
   70.3950000000000         1.458588421181834E-005
   70.5850000000000         1.510807367114742E-005
   70.7750000000000         1.574574673484205E-005
   70.9650000000000         1.642265024392852E-005
   71.1550000000000         1.743780099378902E-005
   71.3450000000000         1.808203452671536E-005
   71.5350000000000         1.905768091966554E-005
   71.7250000000000         1.941997066648365E-005
   71.9150000000000         1.995493837401775E-005
   72.1050000000000         2.015091923555298E-005
   72.2950000000000         2.031870507223332E-005
   72.4850000000000         2.041648508704073E-005
   72.6750000000000         2.046937718636251E-005
   72.8650000000000         2.056617025048228E-005
   73.0550000000000         2.057125503653846E-005
   73.2450000000000         2.045122836634534E-005
   73.4350000000000         2.007117344266324E-005
   73.6250000000000         1.932665702288509E-005
   73.8150000000000         1.828690511682521E-005
   74.0050000000000         1.680520961169719E-005
   74.1950000000000         1.536995817733445E-005
   74.3850000000000         1.366632627588477E-005
   74.5750000000000         1.210120011398802E-005
   74.7650000000000         1.056524151137995E-005
   74.9550000000000         9.423251094637734E-006
   75.1450000000000         8.505536929604692E-006
   75.3350000000000         8.194740135754005E-006
   75.5250000000000         7.449675922387598E-006
   75.7150000000000         7.341900381441570E-006
   75.9050000000000         7.181226663758427E-006
   76.0950000000000         7.081826162735167E-006
   76.2850000000000         7.217667345278260E-006
   76.4750000000000         7.543037651019031E-006
   76.6650000000000         7.845445798667557E-006
   76.8550000000000         7.987146963913424E-006
   77.0450000000000         8.017394304061073E-006
   77.2350000000000         7.727607116667982E-006
   77.4250000000000         6.800283016866148E-006
   77.6150000000000         5.126664387200673E-006
   77.8050000000000         3.466682309445423E-006
   77.9950000000000         1.919550821519895E-006
   78.1850000000000         3.947270179673313E-007
   78.3750000000000        -9.210315892285788E-007
   78.5650000000000        -1.867411354842428E-006
   78.7550000000000        -2.855181876707155E-006
   78.9450000000000        -3.153202065400303E-006
   79.1350000000000        -3.606045671155688E-006
   79.3250000000000        -3.827985839091326E-006
   79.5150000000000        -4.104634826077000E-006
   79.7050000000000        -4.204280196632522E-006
   79.8950000000000        -3.576943900888699E-006
   80.0850000000000        -1.929179944231298E-006
   80.2750000000000         4.335926313944645E-007
   80.4650000000000         3.011639280646374E-006
   80.6550000000000         5.662339231295474E-006
   80.8450000000000         8.326522452750468E-006
   81.0350000000000         1.104402411081191E-005
   81.2250000000000         1.347406558702336E-005
   81.4150000000000         1.561702219804938E-005
   81.6050000000000         1.751042996649560E-005
   81.7950000000000         1.838513625020626E-005
   81.9850000000000         1.958867327902135E-005
   82.1750000000000         2.007986199226419E-005
   82.3650000000000         2.067752375994372E-005
   82.5550000000000         2.086912302355989E-005
   82.7450000000000         2.001780541445081E-005
   82.9350000000000         1.878028854987084E-005
   83.1250000000000         1.754660693530383E-005
   83.3150000000000         1.647246290784575E-005
   83.5050000000000         1.556403164727500E-005
   83.6950000000000         1.505307421864172E-005
   83.8850000000000         1.397720411689198E-005
   84.0750000000000         1.374135924786677E-005
   84.2650000000000         1.355160469050522E-005
   84.4550000000000         1.343727249370724E-005
   84.6450000000000         1.331952261347041E-005
   84.8350000000000         1.320290953539311E-005
   85.0250000000000         1.300453934027294E-005
   85.2150000000000         1.279776872821085E-005
   85.4050000000000         1.262176519155124E-005
   85.5950000000000         1.259418306468654E-005
   85.7850000000000         1.279833318692861E-005
   85.9750000000000         1.297741999253574E-005
   86.1650000000000         1.305641237299632E-005
   86.3550000000000         1.299335750929851E-005
   86.5450000000000         1.281553807946607E-005
   86.7350000000000         1.250676229320515E-005
   86.9250000000000         1.209897690895665E-005
   87.1150000000000         1.164780983787307E-005
   87.3050000000000         1.116903570325979E-005
   87.4950000000000         1.071810693327942E-005
   87.6850000000000         1.035747019718492E-005
   87.8750000000000         1.018659846867112E-005
   88.0650000000000         1.001851264578499E-005
   88.2550000000000         9.957745216799156E-006
   88.4450000000000         9.906673414229254E-006
   88.6350000000000         9.885225702213734E-006
   88.8250000000000         9.923816146625054E-006
   89.0150000000000         1.013084421644279E-005
   89.2050000000000         1.041739473226518E-005
   89.3950000000000         1.032874043918368E-005
   89.5850000000000         1.000972427013500E-005
   89.7750000000000         9.880828428745752E-006
   89.9650000000000         9.844273748407878E-006
   90.1550000000000         9.856341073502968E-006
   90.3450000000000         9.988398165821059E-006
   90.5350000000000         1.019218885217871E-005
   90.7250000000000         1.046221605483967E-005
   90.9150000000000         1.078479472517447E-005
   91.1050000000000         1.110466885833748E-005
   91.2950000000000         1.137118485062726E-005
   91.4850000000000         1.153089865273596E-005
   91.6750000000000         1.149980615751846E-005
   91.8650000000000         1.130004524808125E-005
   92.0550000000000         1.098005293319212E-005
   92.2450000000000         1.065148128168198E-005
   92.4350000000000         1.037019977918293E-005
   92.6250000000000         9.982684256757844E-006
   92.8150000000000         9.601745064503361E-006
   93.0050000000000         9.081452754612281E-006
   93.1950000000000         8.312524614472719E-006
   93.3850000000000         7.591560131019120E-006
   93.5750000000000         7.241571978810967E-006
   93.7650000000000         7.138049412675747E-006
   93.9550000000000         7.186932855701839E-006
   94.1450000000000         7.313493252349408E-006
   94.3350000000000         7.475275452182345E-006
   94.5250000000000         7.660065637506567E-006
   94.7150000000000         7.806713254996822E-006
   94.9050000000000         8.000735843941484E-006
   95.0950000000000         8.089246265838458E-006
   95.2850000000000         8.214031098923129E-006
   95.4750000000000         8.312653884381268E-006
   95.6650000000000         8.311906494695094E-006
   95.8550000000000         8.351207400651996E-006
   96.0450000000000         8.348789712298720E-006
   96.2350000000000         8.217478980708902E-006
   96.4250000000000         7.884946559288607E-006
   96.6150000000000         7.398027488856066E-006
   96.8050000000000         6.785754258755786E-006
   96.9950000000000         6.184197098395359E-006
   97.1850000000000         5.711739159424794E-006
   97.3750000000000         5.449102409398914E-006
   97.5650000000000         5.358722351043362E-006
   97.7550000000000         5.440478486579619E-006
   97.9450000000000         5.778373773758866E-006
   98.1350000000000         6.440350903863462E-006
   98.3250000000000         7.283074949463789E-006
   98.5150000000000         8.199948232416151E-006
   98.7050000000000         9.071287767780938E-006
   98.8950000000000         9.787623725629011E-006
   99.0850000000000         1.028420574759105E-005
   99.2750000000000         1.053207320654966E-005
   99.4650000000000         1.019852013569159E-005
   99.6550000000000         9.484625048193846E-006
   99.8450000000000         8.264547521754586E-006
   100.035000000000         6.783085529597496E-006
   100.225000000000         5.023478575084439E-006
   100.415000000000         3.201877237736650E-006
   100.605000000000         1.319430412597710E-006
   100.795000000000        -1.243449042333296E-007
   100.985000000000        -1.444184564026068E-006
   101.175000000000        -1.862574590141953E-006
   101.365000000000        -2.605819617654589E-006
   101.555000000000        -2.830392643422025E-006
   101.745000000000        -3.208206742083378E-006
   101.935000000000        -3.199590406379171E-006
   102.125000000000        -1.472088141491186E-006
   102.315000000000         1.103821378587020E-006
   102.505000000000         3.773136802020681E-006
   102.695000000000         6.307712927095961E-006
   102.885000000000         8.740973619754428E-006
   103.075000000000         1.090989686775336E-005
   103.265000000000         1.251111366036551E-005
   103.455000000000         1.379236878840987E-005
   103.645000000000         1.457962519476328E-005
   103.835000000000         1.501719584811590E-005
   104.025000000000         1.539893690805759E-005
   104.215000000000         1.551603767276418E-005
   104.405000000000         1.558050059885788E-005
   104.595000000000         1.557895983780978E-005
   104.785000000000         1.542074562465536E-005
   104.975000000000         1.502614631117430E-005
   105.165000000000         1.447190000707737E-005
   105.355000000000         1.390785514647832E-005
   105.545000000000         1.335788214210012E-005
   105.735000000000         1.280603286756463E-005
   105.925000000000         1.230329651159696E-005
   106.115000000000         1.190542058845636E-005
   106.305000000000         1.138843558714022E-005
   106.495000000000         1.113946414630612E-005
   106.685000000000         1.063696219505507E-005
   106.875000000000         1.043489922025207E-005
   107.065000000000         1.006204403128674E-005
   107.255000000000         9.695369150708180E-006
   107.445000000000         9.358771726539752E-006
   107.635000000000         9.067520132236921E-006
   107.825000000000         8.835406835596010E-006
   108.015000000000         8.663717064422139E-006
   108.205000000000         8.516249425427125E-006
   108.395000000000         8.351123104780844E-006
   108.585000000000         8.200539217193492E-006
   108.775000000000         8.039579074595818E-006
   108.965000000000         7.860743277580195E-006
   109.155000000000         7.809266604005825E-006
   109.345000000000         7.652856332057650E-006
   109.535000000000         7.626311143956923E-006
   109.725000000000         7.579311511280141E-006
   109.915000000000         7.538716965139707E-006
   110.105000000000         7.495401651763086E-006