  -1.42500000000000         5.096369117778369E-019
  -1.23500000000000         2.182629117598200E-018
  -1.04500000000000         1.244929555401110E-017
 -0.855000000000000         5.875863558715298E-017
 -0.665000000000000         2.220743449493778E-016
 -0.475000000000000         7.127699362690830E-016
 -0.285000000000000         1.953997859396460E-015
 -9.499999999999975E-002    4.763576590278043E-015
  9.500000000000020E-002    1.004737462377876E-014
  0.285000000000000         1.860884162257101E-014
  0.475000000000000         3.074950886041019E-014
  0.665000000000000         4.639104700884475E-014
  0.855000000000000         6.369481328836283E-014
   1.04500000000000         8.107547961586403E-014
   1.23500000000000         9.761625915874627E-014
   1.42500000000000         1.065940963897084E-013
   1.61500000000000         1.243776177446863E-013
   1.80500000000000         1.435947002352132E-013
   1.99500000000000         1.608339143626541E-013
   2.18500000000000         1.780136680520765E-013
   2.37500000000000         1.939240717687402E-013
   2.56500000000000         2.069286701529656E-013
   2.75500000000000         2.170594266204152E-013
   2.94500000000000         2.240975399927666E-013
   3.13500000000000         2.274275109837300E-013
   3.32500000000000         2.282122373595856E-013
   3.51500000000000         2.290477005869104E-013
   3.70500000000000         2.286266192441085E-013
   3.89500000000000         2.277267357660403E-013
   4.08500000000000         2.267209945022622E-013
   4.27500000000000         2.252070789676260E-013
   4.46500000000000         2.220837401878338E-013
   4.65500000000000         2.167324637248779E-013
   4.84500000000000         2.091886014665177E-013
   5.03500000000000         2.015122233080867E-013
   5.22500000000000         2.000762332094097E-013
   5.41500000000000         1.943227875280120E-013
   5.60500000000000         1.917754223207239E-013
   5.79500000000000         1.922661638459914E-013
   5.98500000000000         1.966740568412779E-013
   6.17500000000000         2.050061145827036E-013
   6.36500000000000         2.179976233326225E-013
   6.55500000000000         2.301341548410406E-013
   6.74500000000000         2.427361002621106E-013
   6.93500000000000         2.572330476537771E-013
   7.12500000000000         2.747989753529671E-013
   7.31500000000000         2.850509443155202E-013
   7.50500000000000         2.907924415758438E-013
   7.69500000000000         2.914844139679721E-013
   7.88500000000000         2.877742331739409E-013
   8.07500000000000         2.794662471104740E-013
   8.26500000000000         2.728687987362694E-013
   8.45500000000000         2.613482843447917E-013
   8.64500000000000         2.456335217175181E-013
   8.83500000000000         2.285054033601002E-013
   9.02500000000000         1.955173811789528E-013
   9.21500000000000         1.533312073115961E-013
   9.40500000000000         1.156083411177506E-013
   9.59500000000000         8.605703639025290E-014
   9.78500000000000         6.811722210007943E-014
   9.97500000000000         5.178123475107386E-014
   10.1650000000000         4.167267790343960E-014
   10.3550000000000         3.598782763202965E-014
   10.5450000000000         3.256734663126521E-014
   10.7350000000000         3.233700890543139E-014
   10.9250000000000         3.227591086755085E-014
   11.1150000000000         3.239036626779994E-014
   11.3050000000000         3.408040120318166E-014
   11.4950000000000         4.107823848289830E-014
   11.6850000000000         5.463953614073856E-014
   11.8750000000000         7.149410215879495E-014
   12.0650000000000         8.860241816954132E-014
   12.2550000000000         1.043796770392844E-013
   12.4450000000000         1.217494070178288E-013
   12.6350000000000         1.254165327249826E-013
   12.8250000000000         1.371284641457988E-013
   13.0150000000000         1.450771114480297E-013
   13.2050000000000         1.502855303756559E-013
   13.3950000000000         1.537608655623494E-013
   13.5850000000000         1.542809559525554E-013
   13.7750000000000         1.535399499591862E-013
   13.9650000000000         1.531768464934818E-013
   14.1550000000000         1.533539569459938E-013
   14.3450000000000         1.544929665604599E-013
   14.5350000000000         1.563502032722954E-013
   14.7250000000000         1.606950265569838E-013
   14.9150000000000         1.731229776986733E-013
   15.1050000000000         1.967913422898209E-013
   15.2950000000000         2.233903154787201E-013
   15.4850000000000         2.499083946170993E-013
   15.6750000000000         2.688177761102375E-013
   15.8650000000000         2.860756270059683E-013
   16.0550000000000         3.009229745101170E-013
   16.2450000000000         3.093291763101826E-013
   16.4350000000000         3.125859758844135E-013
   16.6250000000000         3.119132821254990E-013
   16.8150000000000         3.078617764250886E-013
   17.0050000000000         3.064541232143234E-013
   17.1950000000000         2.997304793683997E-013
   17.3850000000000         2.965006239651745E-013
   17.5750000000000         2.841299786579608E-013
   17.7650000000000         2.795034203901197E-013
   17.9550000000000         2.726749185092829E-013
   18.1450000000000         2.673278981396099E-013
   18.3350000000000         2.618467466825664E-013
   18.5250000000000         2.545657902514134E-013
   18.7150000000000         2.387857283971185E-013
   18.9050000000000         2.174305824514669E-013
   19.0950000000000         1.966451596106309E-013
   19.2850000000000         1.800507848612685E-013
   19.4750000000000         1.679942745353274E-013
   19.6650000000000         1.586265823353422E-013
   19.8550000000000         1.492008397455811E-013
   20.0450000000000         1.391062405099232E-013
   20.2350000000000         1.282926221153347E-013
   20.4250000000000         1.162038943597385E-013
   20.6150000000000         1.012538303932299E-013
   20.8050000000000         8.503851423189316E-014
   20.9950000000000         6.864597685445362E-014
   21.1850000000000         6.418583738384212E-014
   21.3750000000000         4.414930122865020E-014
   21.5650000000000         3.862176364616176E-014
   21.7550000000000         2.937863922897464E-014
   21.9450000000000         1.732967593371331E-014
   22.1350000000000         7.395943001153662E-015
   22.3250000000000         8.491833539979049E-015
   22.5150000000000         2.250861528643087E-014
   22.7050000000000         4.493898328481514E-014
   22.8950000000000         7.248258388690224E-014
   23.0850000000000         1.018064900589070E-013
   23.2750000000000         1.305520683921522E-013
   23.4650000000000         1.559727153440917E-013
   23.6550000000000         1.889892984477074E-013
   23.8450000000000         2.218664508345545E-013
   24.0350000000000         2.491950008671420E-013
   24.2250000000000         2.729384439829174E-013
   24.4150000000000         2.919577102653546E-013
   24.6050000000000         3.074723050745445E-013
   24.7950000000000         3.126027641292086E-013
   24.9850000000000         3.127866518344370E-013
   25.1750000000000         3.092865508624523E-013
   25.3650000000000         2.998204305482822E-013
   25.5550000000000         2.902663841220109E-013
   25.7450000000000         2.733734094112458E-013
   25.9350000000000         2.574344699906101E-013
   26.1250000000000         2.462794781401492E-013
   26.3150000000000         2.378178453962883E-013
   26.5050000000000         2.290474990756002E-013
   26.6950000000000         2.223010885253645E-013
   26.8850000000000         2.171041016243642E-013
   27.0750000000000         2.136423364213740E-013
   27.2650000000000         2.146579821693954E-013
   27.4550000000000         2.197909494589380E-013
   27.6450000000000         2.266918475376435E-013
   27.8350000000000         2.281608376553722E-013
   28.0250000000000         2.369795486546471E-013
   28.2150000000000         2.432326075383433E-013
   28.4050000000000         2.473945649458550E-013
   28.5950000000000         2.466641494476229E-013
   28.7850000000000         2.379094714634530E-013
   28.9750000000000         2.188473334353343E-013
   29.1650000000000         1.927963425981811E-013
   29.3550000000000         1.592217337341046E-013
   29.5450000000000         1.256729277849212E-013
   29.7350000000000         9.129805569219929E-014
   29.9250000000000         5.780573120582436E-014
   30.1150000000000         2.630108859464060E-014
   30.3050000000000         3.403877429488429E-015
   30.4950000000000        -6.372071913127346E-015
   30.6850000000000        -1.679949485494791E-014
   30.8750000000000        -3.127541415569105E-014
   31.0650000000000        -4.510809821757257E-014
   31.2550000000000        -4.362640840325869E-014
   31.4450000000000        -3.468988763003381E-014
   31.6350000000000        -2.218274265427891E-014
   31.8250000000000        -4.995711879216766E-015
   32.0150000000000         1.337675720828467E-014
   32.2050000000000         3.177711293811355E-014
   32.3950000000000         4.986509175280927E-014
   32.5850000000000         6.527989342819307E-014
   32.7750000000000         7.835388644168917E-014
   32.9650000000000         9.162338611003803E-014
   33.1550000000000         9.760446923592412E-014
   33.3450000000000         1.067215374235848E-013
   33.5350000000000         1.216584295690498E-013
   33.7250000000000         1.427506868836247E-013
   33.9150000000000         1.677115098096184E-013
   34.1050000000000         1.908975022331993E-013
   34.2950000000000         2.086055568192491E-013
   34.4850000000000         2.187900963416541E-013
   34.6750000000000         2.285786986973858E-013
   34.8650000000000         2.379391018703564E-013
   35.0550000000000         2.461524760280928E-013
   35.2450000000000         2.541258476542204E-013
   35.4350000000000         2.591531613019784E-013
   35.6250000000000         2.602961771042365E-013
   35.8150000000000         2.579246196743270E-013
   36.0050000000000         2.532893101640712E-013
   36.1950000000000         2.462098400999682E-013
   36.3850000000000         2.439799909909566E-013
   36.5750000000000         2.380785533321325E-013
   36.7650000000000         2.349952752142556E-013
   36.9550000000000         2.276239678898727E-013
   37.1450000000000         2.195654264174442E-013
   37.3350000000000         2.131127817951062E-013
   37.5250000000000         2.085036666234396E-013
   37.7150000000000         2.049293361160781E-013
   37.9050000000000         2.024122849479434E-013
   38.0950000000000         2.012437523825089E-013
   38.2850000000000         1.995525589278030E-013
   38.4750000000000         1.971384034475515E-013
   38.6650000000000         1.938335388851318E-013
   38.8550000000000         1.907538376382336E-013
   39.0450000000000         1.864507682498151E-013
   39.2350000000000         1.806645978554827E-013
   39.4250000000000         1.711195733863885E-013
   39.6150000000000         1.611431067397278E-013
   39.8050000000000         1.483367441153243E-013
   39.9950000000000         1.424441042010597E-013
   40.1850000000000         1.291665681069392E-013
   40.3750000000000         1.264227498987399E-013
   40.5650000000000         1.211669986183339E-013
   40.7550000000000         1.095980168305135E-013
   40.9450000000000         8.211923813538185E-014
   41.1350000000000         4.758309211436061E-014
   41.3250000000000         1.756916658881712E-014
   41.5150000000000         1.421926264719576E-015
   41.7050000000000        -4.810476543446046E-015
   41.8950000000000        -4.382246444091658E-015
   42.0850000000000         2.181655212903033E-015
   42.2750000000000         1.363841902654696E-014
   42.4650000000000         3.008358577779643E-014
   42.6550000000000         4.787743612783191E-014
   42.8450000000000         7.062225960120627E-014
   43.0350000000000         9.133306755446275E-014
   43.2250000000000         1.090712571896537E-013
   43.4150000000000         1.344789589903800E-013
   43.6050000000000         1.429754223215609E-013
   43.7950000000000         1.522587634054594E-013
   43.9850000000000         1.612341866990794E-013
   44.1750000000000         1.740225780964572E-013
   44.3650000000000         1.915336108763353E-013
   44.5550000000000         2.096384940611964E-013
   44.7450000000000         2.190890184437891E-013
   44.9350000000000         2.174830493688817E-013
   45.1250000000000         2.098145579617968E-013
   45.3150000000000         2.008665546790748E-013
   45.5050000000000         1.931376439828338E-013
   45.6950000000000         1.883494037084602E-013
   45.8850000000000         1.853377808810697E-013
   46.0750000000000         1.848802132177734E-013
   46.2650000000000         1.836267998146603E-013
   46.4550000000000         1.827190761143049E-013
   46.6450000000000         1.822629355365835E-013
   46.8350000000000         1.859458130872048E-013
   47.0250000000000         1.933677952362414E-013
   47.2150000000000         2.003420841450835E-013
   47.4050000000000         2.030261172251757E-013
   47.5950000000000         2.018959167372378E-013
   47.7850000000000         1.981461624365614E-013
   47.9750000000000         1.910239380560647E-013
   48.1650000000000         1.838599074150472E-013
   48.3550000000000         1.737113147904794E-013
   48.5450000000000         1.656915090427693E-013
   48.7350000000000         1.546178505495344E-013
   48.9250000000000         1.463869001944151E-013
   49.1150000000000         1.385761534101249E-013
   49.3050000000000         1.236635584283718E-013
   49.4950000000000         1.092495606505922E-013
   49.6850000000000         1.069407805482692E-013
   49.8750000000000         1.142645684926514E-013
   50.0650000000000         1.253838966040097E-013
   50.2550000000000         1.405208964676065E-013
   50.4450000000000         1.558437467020526E-013
   50.6350000000000         1.626973594190704E-013
   50.8250000000000         1.793088974471366E-013
   51.0150000000000         1.828895194207010E-013
   51.2050000000000         1.867735848378538E-013
   51.3950000000000         1.912421119811688E-013
   51.5850000000000         1.894272213421568E-013
   51.7750000000000         1.672410482294384E-013
   51.9650000000000         1.342256860161210E-013
   52.1550000000000         9.697335741036737E-014
   52.3450000000000         6.151774752793178E-014
   52.5350000000000         2.486686987618637E-014
   52.7250000000000        -5.351010970220049E-015
   52.9150000000000        -2.263824349888138E-014
   53.1050000000000        -4.683106856715009E-014
   53.2950000000000        -6.328826208556051E-014
   53.4850000000000        -7.451146258151286E-014
   53.6750000000000        -7.265744042475426E-014
   53.8650000000000        -5.715890904221670E-014
   54.0550000000000        -3.068787029416901E-014
   54.2450000000000         3.434133257519215E-015
   54.4350000000000         4.367351048477635E-014
   54.6250000000000         8.268315926413902E-014
   54.8150000000000         1.217980760820284E-013
   55.0050000000000         1.568361058450541E-013
   55.1950000000000         1.826537186978280E-013
   55.3850000000000         2.144930237043923E-013
   55.5750000000000         2.326325448538829E-013
   55.7650000000000         2.487031314386695E-013
   55.9550000000000         2.662939861032227E-013
   56.1450000000000         2.798002579566029E-013
   56.3350000000000         2.780014167874885E-013
   56.5250000000000         2.672198842249548E-013
   56.7150000000000         2.506433270828356E-013
   56.9050000000000         2.296619753778507E-013
   57.0950000000000         2.104456664523108E-013
   57.2850000000000         1.960359299076132E-013
   57.4750000000000         1.778498420705605E-013
   57.6650000000000         1.609208864171539E-013
   57.8550000000000         1.494713407348378E-013
   58.0450000000000         1.445054857364919E-013
   58.2350000000000         1.404964329756822E-013
   58.4250000000000         1.363909630382495E-013
   58.6150000000000         1.341321537162145E-013
   58.8050000000000         1.327520194994002E-013
   58.9950000000000         1.318888721523763E-013
   59.1850000000000         1.313720177851255E-013
   59.3750000000000         1.307624289129506E-013
   59.5650000000000         1.300999167768634E-013
   59.7550000000000         1.298955832621119E-013
   59.9450000000000         1.301758198688868E-013
   60.1350000000000         1.305305201492163E-013
   60.3250000000000         1.284744185711630E-013
   60.5150000000000         1.217118772715756E-013
   60.7050000000000         1.121379172230376E-013
   60.8950000000000         9.838041930554293E-014
   61.0850000000000         8.645055508252873E-014
   61.2750000000000         7.383113533878076E-014
   61.4650000000000         6.178127541281867E-014
   61.6550000000000         5.021656808054838E-014
   61.8450000000000         3.791656874348363E-014
   62.0350000000000         2.737001844225609E-014
   62.2250000000000         1.871778949121661E-014
   62.4150000000000         6.913158482972060E-015
   62.6050000000000        -3.944827372955532E-015
   62.7950000000000        -7.921359758108098E-015
   62.9850000000000        -1.356280965493008E-014
   63.1750000000000        -2.166301925160257E-014
   63.3650000000000        -3.288280063098929E-014
   63.5550000000000        -4.579254750032749E-014
   63.7450000000000        -5.642606014337498E-014
   63.9350000000000        -6.178521005688820E-014
   64.1250000000000        -6.218235271597661E-014
   64.3150000000000        -5.782318578518714E-014
   64.5050000000000        -4.974866305935636E-014
   64.6950000000000        -3.354510788006949E-014
   64.8850000000000        -2.314491883075415E-014
   65.0750000000000        -4.573776199978724E-015
   65.2650000000000         1.836947082907859E-014
   65.4550000000000         4.158984323657180E-014
   65.6450000000000         6.704264765827529E-014
   65.8350000000000         9.464556730441732E-014
   66.0250000000000         1.191647260278042E-013
   66.2150000000000         1.404711417331399E-013
   66.4050000000000         1.611325905100955E-013
   66.5950000000000         1.679163869362255E-013
   66.7850000000000         1.824056494169182E-013
   66.9750000000000         1.892946988621343E-013
   67.1650000000000         1.973451905556148E-013
   67.3550000000000         2.059725106612648E-013
   67.5450000000000         2.146987444696967E-013
   67.7350000000000         2.203336984037528E-013
   67.9250000000000         2.194123007164100E-013
   68.1150000000000         2.118493795232973E-013
   68.3050000000000         1.985384234990657E-013
   68.4950000000000         1.822350806753077E-013
   68.6850000000000         1.663658340194442E-013
   68.8750000000000         1.518722414715706E-013
   69.0650000000000         1.395614789555751E-013
   69.2550000000000         1.297561318633705E-013
   69.4450000000000         1.232809058832202E-013
   69.6350000000000         1.202853744525488E-013
   69.8250000000000         1.192401719285070E-013
   70.0150000000000         1.195348917711823E-013
   70.2050000000000         1.209590829634129E-013
   70.3950000000000         1.230374589747439E-013
   70.5850000000000         1.244650139562008E-013
   70.7750000000000         1.242514734992262E-013
   70.9650000000000         1.214509811152357E-013
   71.1550000000000         1.132473650313469E-013
   71.3450000000000         1.071926950561076E-013
   71.5350000000000         9.382085402270442E-014
   71.7250000000000         8.931500207524282E-014
   71.9150000000000         7.830905196692849E-014
   72.1050000000000         7.539587126526785E-014
   72.2950000000000         7.330311930693107E-014
   72.4850000000000         7.174565521992577E-014
   72.6750000000000         7.059722286826511E-014
   72.8650000000000         6.099189781166653E-014
   73.0550000000000         4.502911078446929E-014
   73.2450000000000         2.260239312976767E-014
   73.4350000000000        -6.941625215185061E-015
   73.6250000000000        -3.533220133305328E-014
   73.8150000000000        -5.477136729454854E-014
   74.0050000000000        -6.573028551350208E-014
   74.1950000000000        -6.799720376152316E-014
   74.3850000000000        -6.423377793283637E-014
   74.5750000000000        -5.611393784333076E-014
   74.7650000000000        -4.445122056401504E-014
   74.9550000000000        -3.231725308138524E-014
   75.1450000000000        -2.007772899294512E-014
   75.3350000000000        -1.568329467673936E-014
   75.5250000000000         4.073332519056405E-015
   75.7150000000000         9.103006528527470E-015
   75.9050000000000         1.624588842345874E-014
   76.0950000000000         3.240535017415708E-014
   76.2850000000000         6.493397117493786E-014
   76.4750000000000         9.930958965320833E-014
   76.6650000000000         1.257209585609684E-013
   76.8550000000000         1.394762528251769E-013
   77.0450000000000         1.516026244890848E-013
   77.2350000000000         1.693071991831854E-013
   77.4250000000000         1.887081710637969E-013
   77.6150000000000         2.002569339864404E-013
   77.8050000000000         2.006943307695193E-013
   77.9950000000000         1.947929423084797E-013
   78.1850000000000         1.847242514812576E-013
   78.3750000000000         1.731543636722289E-013
   78.5650000000000         1.629536142576789E-013
   78.7550000000000         1.494748148424948E-013
   78.9450000000000         1.433939579937828E-013
   79.1350000000000         1.337495153966186E-013
   79.3250000000000         1.266357444015135E-013
   79.5150000000000         1.157654709867508E-013
   79.7050000000000         9.910747963276636E-014
   79.8950000000000         7.826194981615084E-014
   80.0850000000000         6.091805961993555E-014
   80.2750000000000         5.028015129555672E-014
   80.4650000000000         4.329458536209218E-014
   80.6550000000000         3.815475661464374E-014
   80.8450000000000         3.183843132358186E-014
   81.0350000000000         2.445841795288672E-014
   81.2250000000000         1.601933627575825E-014
   81.4150000000000         8.335282750938394E-015
   81.6050000000000        -2.293998952750478E-016
   81.7950000000000        -4.814346109682910E-015
   81.9850000000000        -9.659880615829379E-015
   82.1750000000000        -1.132980120253445E-014
   82.3650000000000        -1.286839452248058E-014
   82.5550000000000        -1.834700533765291E-014
   82.7450000000000        -2.546611577872584E-014
   82.9350000000000        -3.166539426171433E-014
   83.1250000000000        -3.698281470996840E-014
   83.3150000000000        -4.123473917055897E-014
   83.5050000000000        -4.467565373137118E-014
   83.6950000000000        -4.673342085749410E-014
   83.8850000000000        -4.497708472924766E-014
   84.0750000000000        -4.366360835741946E-014
   84.2650000000000        -4.133652760494616E-014
   84.4550000000000        -3.850807381602238E-014
   84.6450000000000        -3.563042509741917E-014
   84.8350000000000        -3.319702158328216E-014
   85.0250000000000        -2.862338983774930E-014
   85.2150000000000        -1.999917994672820E-014
   85.4050000000000        -7.735746608087086E-015
   85.5950000000000         6.087714405443956E-015
   85.7850000000000         1.793826596962500E-014
   85.9750000000000         2.779710307864632E-014
   86.1650000000000         3.758542315714257E-014
   86.3550000000000         4.784586649959165E-014
   86.5450000000000         5.968446944296393E-014
   86.7350000000000         7.245633604867557E-014
   86.9250000000000         8.470856943892656E-014
   87.1150000000000         9.648815082935299E-014
   87.3050000000000         1.089200617002034E-013
   87.4950000000000         1.220562676311472E-013
   87.6850000000000         1.350374395444646E-013
   87.8750000000000         1.448145764719492E-013
   88.0650000000000         1.547059352903226E-013
   88.2550000000000         1.619281975788547E-013
   88.4450000000000         1.691552961233282E-013
   88.6350000000000         1.747421724456711E-013
   88.8250000000000         1.795638321611062E-013
   89.0150000000000         1.789530519960460E-013
   89.2050000000000         1.675700855011155E-013
   89.3950000000000         1.433581620504334E-013
   89.5850000000000         1.114410493202826E-013
   89.7750000000000         8.840674257715902E-014
   89.9650000000000         6.724496167475887E-014
   90.1550000000000         4.673292419347770E-014
   90.3450000000000         3.185770944603314E-014
   90.5350000000000         1.815239005457815E-014
   90.7250000000000         7.463967288369484E-015
   90.9150000000000        -1.426076841438931E-015
   91.1050000000000        -7.863590005682745E-015
   91.2950000000000        -1.248987956720599E-014
   91.4850000000000        -1.453750837365814E-014
   91.6750000000000        -1.318117262491258E-014
   91.8650000000000        -8.537623654196957E-015
   92.0550000000000        -1.952008093433733E-015
   92.2450000000000         4.193470108044291E-015
   92.4350000000000         9.500178809473293E-015
   92.6250000000000         1.468034786922418E-014
   92.8150000000000         1.727839300390079E-014
   93.0050000000000         1.695091125585216E-014
   93.1950000000000         1.091334331005126E-014
   93.3850000000000        -3.761547647282280E-015
   93.5750000000000        -3.059899749642275E-014
   93.7650000000000        -5.820443279118069E-014
   93.9550000000000        -8.194871516299923E-014
   94.1450000000000        -1.028372011955207E-013
   94.3350000000000        -1.199801627516903E-013
   94.5250000000000        -1.333694123033101E-013
   94.7150000000000        -1.425837131247744E-013
   94.9050000000000        -1.505868336284522E-013
   95.0950000000000        -1.544275788443226E-013
   95.2850000000000        -1.560793469729804E-013
   95.4750000000000        -1.567710435983541E-013
   95.6650000000000        -1.483275993753392E-013
   95.8550000000000        -1.442374374369120E-013
   96.0450000000000        -1.370009636321362E-013
   96.2350000000000        -1.235514218125317E-013
   96.4250000000000        -9.876404931120596E-014
   96.6150000000000        -6.795776370695993E-014
   96.8050000000000        -3.448653801825617E-014
   96.9950000000000        -4.881009880328671E-015
   97.1850000000000         1.796546485887407E-014
   97.3750000000000         2.994356321373593E-014
   97.5650000000000         4.390875136180722E-014
   97.7550000000000         5.764648591661959E-014
   97.9450000000000         7.076646038519372E-014
   98.1350000000000         8.318105468463315E-014
   98.3250000000000         9.147118032165016E-014
   98.5150000000000         9.485229989870703E-014
   98.7050000000000         9.309170386902864E-014
   98.8950000000000         8.656087964424932E-014
   99.0850000000000         7.606656934467160E-014
   99.2750000000000         5.977840487075468E-014
   99.4650000000000         3.437491048324952E-014
   99.6550000000000         1.276257699632015E-014
   99.8450000000000        -9.063970350031314E-015
   100.035000000000        -2.742586204800916E-014
   100.225000000000        -4.394146504671181E-014
   100.415000000000        -5.630016576988980E-014
   100.605000000000        -6.653607145286312E-014
   100.795000000000        -7.385133955313692E-014
   100.985000000000        -7.961724316545943E-014
   101.175000000000        -8.126234363995582E-014
   101.365000000000        -8.502339869715961E-014
   101.555000000000        -8.651302994899181E-014
   101.745000000000        -8.833124094768659E-014
   101.935000000000        -8.969064750684360E-014
   102.125000000000        -8.720612370971425E-014
   102.315000000000        -8.176112051997067E-014
   102.505000000000        -7.677869909628559E-014
   102.695000000000        -7.375188892846278E-014
   102.885000000000        -7.194163939071804E-014
   103.075000000000        -7.179137483280423E-014
   103.265000000000        -7.326161857835502E-014
   103.455000000000        -7.623468821018416E-014
   103.645000000000        -7.992978986752487E-014
   103.835000000000        -8.267508121841886E-014
   104.025000000000        -8.670992271135212E-014
   104.215000000000        -8.800416870480738E-014
   104.405000000000        -8.933508633047878E-014
   104.595000000000        -9.358094238469790E-014
   104.785000000000        -1.036867467896460E-013
   104.975000000000        -1.194045864001162E-013
   105.165000000000        -1.360669836148684E-013
   105.355000000000        -1.501738502354120E-013
   105.545000000000        -1.610407081341137E-013
   105.735000000000        -1.678715008994817E-013
   105.925000000000        -1.698248049091858E-013
   106.115000000000        -1.677653145786134E-013
   106.305000000000        -1.623743522215083E-013
   106.495000000000        -1.570844103590696E-013
   106.685000000000        -1.483548196876330E-013
   106.875000000000        -1.435121223536177E-013
   107.065000000000        -1.348160752862321E-013
   107.255000000000        -1.243829516271392E-013
   107.445000000000        -1.120163458778938E-013
   107.635000000000        -9.863280476377228E-014
   107.825000000000        -8.520631346474255E-014
   108.015000000000        -7.247236903530220E-014
   108.205000000000        -5.794603940828584E-014
   108.395000000000        -3.560364458546580E-014
   108.585000000000        -6.513685763017874E-015
   108.775000000000         1.670820045682510E-014
   108.965000000000         3.664686793541492E-014
   109.155000000000         4.178901676132714E-014
   109.345000000000         5.209271421448880E-014
   109.535000000000         5.427827156002519E-014
   109.725000000000         5.622862805946088E-014
   109.915000000000         5.756176620181603E-014
   110.105000000000         5.674060927092955E-014