  -1.42500000000000         4.841550661889451E-020
  -1.23500000000000         3.041807794096181E-019
  -1.04500000000000         1.694213623212501E-018
 -0.855000000000000         8.458967081623088E-018
 -0.665000000000000         3.513810023259351E-017
 -0.475000000000000         1.239483069483473E-016
 -0.285000000000000         3.772912475365738E-016
 -9.499999999999975E-002    1.015460820255652E-015
  9.500000000000020E-002    2.422501185591048E-015
  0.285000000000000         5.144841728994276E-015
  0.475000000000000         9.833885024877491E-015
  0.665000000000000         1.716223783245671E-014
  0.855000000000000         2.762039456069142E-014
   1.04500000000000         4.137357238659297E-014
   1.23500000000000         5.834928757018093E-014
   1.42500000000000         7.774927134728413E-014
   1.61500000000000         9.969158419005164E-014
   1.80500000000000         1.251489543981421E-013
   1.99500000000000         1.540696727849395E-013
   2.18500000000000         1.862601931143389E-013
   2.37500000000000         2.215942783973165E-013
   2.56500000000000         2.596752888798785E-013
   2.75500000000000         2.999541580733497E-013
   2.94500000000000         3.418640699016020E-013
   3.13500000000000         3.847589497443693E-013
   3.32500000000000         4.280447258369844E-013
   3.51500000000000         4.714844199419015E-013
   3.70500000000000         5.149634803258482E-013
   3.89500000000000         5.583170490518123E-013
   4.08500000000000         6.014895834273011E-013
   4.27500000000000         6.444227504069404E-013
   4.46500000000000         6.869153782267091E-013
   4.65500000000000         7.286029175984167E-013
   4.84500000000000         7.690654187915995E-013
   5.03500000000000         8.080819971451867E-013
   5.22500000000000         8.462329005143491E-013
   5.41500000000000         8.837008074844043E-013
   5.60500000000000         9.203801374200343E-013
   5.79500000000000         9.568640881058718E-013
   5.98500000000000         9.938134090711626E-013
   6.17500000000000         1.031973025356441E-012
   6.36500000000000         1.072158380458397E-012
   6.55500000000000         1.114730899384895E-012
   6.74500000000000         1.159653573619694E-012
   6.93500000000000         1.207150642671704E-012
   7.12500000000000         1.257693684857344E-012
   7.31500000000000         1.310879427225851E-012
   7.50500000000000         1.365584548885531E-012
   7.69500000000000         1.420900850162193E-012
   7.88500000000000         1.475930421640675E-012
   8.07500000000000         1.529818267267694E-012
   8.26500000000000         1.582290096623135E-012
   8.45500000000000         1.633040719515835E-012
   8.64500000000000         1.681203991091755E-012
   8.83500000000000         1.726247188974128E-012
   9.02500000000000         1.766529353505338E-012
   9.21500000000000         1.799669969411941E-012
   9.40500000000000         1.825219226512728E-012
   9.59500000000000         1.844377437375989E-012
   9.78500000000000         1.859023991932570E-012
   9.97500000000000         1.870414345333429E-012
   10.1650000000000         1.879292467035609E-012
   10.3550000000000         1.886670215061478E-012
   10.5450000000000         1.893182956616491E-012
   10.7350000000000         1.899348870392477E-012
   10.9250000000000         1.905487097770910E-012
   11.1150000000000         1.911630394098769E-012
   11.3050000000000         1.917945117008512E-012
   11.4950000000000         1.925085187778689E-012
   11.6850000000000         1.934178376367935E-012
   11.8750000000000         1.946161072006391E-012
   12.0650000000000         1.961370241437583E-012
   12.2550000000000         1.979703540482422E-012
   12.4450000000000         2.001185803467848E-012
   12.6350000000000         2.024666567743415E-012
   12.8250000000000         2.049608342446138E-012
   13.0150000000000         2.076417872127552E-012
   13.2050000000000         2.104477323100803E-012
   13.3950000000000         2.133361730714913E-012
   13.5850000000000         2.162625703758829E-012
   13.7750000000000         2.191868689820444E-012
   13.9650000000000         2.221006785483448E-012
   14.1550000000000         2.250127211810198E-012
   14.3450000000000         2.279372669543311E-012
   14.5350000000000         2.308902770677423E-012
   14.7250000000000         2.339022067511205E-012
   14.9150000000000         2.370734777915492E-012
   15.1050000000000         2.405876638314399E-012
   15.2950000000000         2.445793895802411E-012
   15.4850000000000         2.490757273261513E-012
   15.6750000000000         2.540036259480610E-012
   15.8650000000000         2.592751132776650E-012
   16.0550000000000         2.648515999920677E-012
   16.2450000000000         2.706489954248607E-012
   16.4350000000000         2.765571893707093E-012
   16.6250000000000         2.824899323218035E-012
   16.8150000000000         2.883777953780341E-012
   17.0050000000000         2.942137964246084E-012
   17.1950000000000         2.999725501491443E-012
   17.3850000000000         3.056367456308133E-012
   17.5750000000000         3.111527363557331E-012
   17.7650000000000         3.165072536466898E-012
   17.9550000000000         3.217529478662341E-012
   18.1450000000000         3.268829746243987E-012
   18.3350000000000         3.319101337502094E-012
   18.5250000000000         3.368160528510821E-012
   18.7150000000000         3.415028922782432E-012
   18.9050000000000         3.458369472313047E-012
   19.0950000000000         3.497706667808947E-012
   19.2850000000000         3.533492782533778E-012
   19.4750000000000         3.566557063176454E-012
   19.6650000000000         3.597586044579168E-012
   19.8550000000000         3.626829649676855E-012
   20.0450000000000         3.654218822301128E-012
   20.2350000000000         3.679621714250527E-012
   20.4250000000000         3.702848883315660E-012
   20.6150000000000         3.723507367167192E-012
   20.8050000000000         3.741205139906577E-012
   20.9950000000000         3.755805166559780E-012
   21.1850000000000         3.768424188912418E-012
   21.3750000000000         3.778716027080605E-012
   21.5650000000000         3.786579278243711E-012
   21.7550000000000         3.793039316516850E-012
   21.9450000000000         3.797476606457305E-012
   22.1350000000000         3.799825540256118E-012
   22.3250000000000         3.801334879027525E-012
   22.5150000000000         3.804279921666034E-012
   22.7050000000000         3.810687443530302E-012
   22.8950000000000         3.821842492411615E-012
   23.0850000000000         3.838399954436466E-012
   23.2750000000000         3.860474017489318E-012
   23.4650000000000         3.887693871944261E-012
   23.6550000000000         3.920465263254483E-012
   23.8450000000000         3.959496559436298E-012
   24.0350000000000         4.004247397347961E-012
   24.2250000000000         4.053850074608715E-012
   24.4150000000000         4.107515209262300E-012
   24.6050000000000         4.164461060719590E-012
   24.7950000000000         4.223368192293947E-012
   24.9850000000000         4.282780186810494E-012
   25.1750000000000         4.341877141066697E-012
   25.3650000000000         4.399742304300719E-012
   25.5550000000000         4.455800551694395E-012
   25.7450000000000         4.509346332080054E-012
   25.9350000000000         4.559773080623231E-012
   26.1250000000000         4.607625905695653E-012
   26.3150000000000         4.653615151431616E-012
   26.5050000000000         4.697967359156444E-012
   26.6950000000000         4.740845474978537E-012
   26.8850000000000         4.782588968042760E-012
   27.0750000000000         4.823509879657105E-012
   27.2650000000000         4.864198409923230E-012
   27.4550000000000         4.905471058427920E-012
   27.6450000000000         4.947886924142596E-012
   27.8350000000000         4.991097929235931E-012
   28.0250000000000         5.035286265935384E-012
   28.2150000000000         5.080906420773718E-012
   28.4050000000000         5.127516002159716E-012
   28.5950000000000         5.174451580027097E-012
   28.7850000000000         5.220486074013650E-012
   28.9750000000000         5.263877970479035E-012
   29.1650000000000         5.302984119702218E-012
   29.3550000000000         5.336425836953786E-012
   29.5450000000000         5.363490829798094E-012
   29.7350000000000         5.384103073228420E-012
   29.9250000000000         5.398267932983731E-012
   30.1150000000000         5.406258080864777E-012
   30.3050000000000         5.409080052637068E-012
   30.4950000000000         5.408798074161122E-012
   30.6850000000000         5.406596775318155E-012
   30.8750000000000         5.402029658962146E-012
   31.0650000000000         5.394773225286685E-012
   31.2550000000000         5.386343447157705E-012
   31.4450000000000         5.378903399034542E-012
   31.6350000000000         5.373500499157533E-012
   31.8250000000000         5.370918545976851E-012
   32.0150000000000         5.371714745283112E-012
   32.2050000000000         5.376004362947019E-012
   32.3950000000000         5.383760372392658E-012
   32.5850000000000         5.394699145984854E-012
   32.7750000000000         5.408344355072492E-012
   32.9650000000000         5.424492195964906E-012
   33.1550000000000         5.442468842222772E-012
   33.3450000000000         5.461879812855427E-012
   33.5350000000000         5.483575909719729E-012
   33.7250000000000         5.508694775782732E-012
   33.9150000000000         5.538188684468591E-012
   34.1050000000000         5.572256540612658E-012
   34.2950000000000         5.610209331222642E-012
   34.4850000000000         5.650811918272928E-012
   34.6750000000000         5.693311953801635E-012
   34.8650000000000         5.737631144855570E-012
   35.0550000000000         5.783619844755924E-012
   35.2450000000000         5.831146285505743E-012
   35.4350000000000         5.879907791356583E-012
   35.6250000000000         5.929255478505171E-012
   35.8150000000000         5.978486454199136E-012
   36.0050000000000         6.027051777533783E-012
   36.1950000000000         6.074504196808866E-012
   36.3850000000000         6.121072230762504E-012
   36.5750000000000         6.166867792473197E-012
   36.7650000000000         6.211809806185104E-012
   36.9550000000000         6.255758634279998E-012
   37.1450000000000         6.298241626739193E-012
   37.3350000000000         6.339346056519385E-012
   37.5250000000000         6.379399619119146E-012
   37.7150000000000         6.418675754379400E-012
   37.9050000000000         6.457373208380484E-012
   38.0950000000000         6.495720531926878E-012
   38.2850000000000         6.533796181501357E-012
   38.4750000000000         6.571481822927015E-012
   38.6650000000000         6.608624157448620E-012
   38.8550000000000         6.645159958218341E-012
   39.0450000000000         6.680994395777705E-012
   39.2350000000000         6.715870355557708E-012
   39.4250000000000         6.749289851825686E-012
   39.6150000000000         6.780854806437668E-012
   39.8050000000000         6.810255392268900E-012
   39.9950000000000         6.837879572858957E-012
   40.1850000000000         6.863682586728216E-012
   40.3750000000000         6.887963571938755E-012
   40.5650000000000         6.911484598047878E-012
   40.7550000000000         6.933407274515517E-012
   40.9450000000000         6.951620413737278E-012
   41.1350000000000         6.963942135111003E-012
   41.3250000000000         6.970131599687806E-012
   41.5150000000000         6.971935753508891E-012
   41.7050000000000         6.971613841232413E-012
   41.8950000000000         6.970740532548598E-012
   42.0850000000000         6.970531476381635E-012
   42.2750000000000         6.972034383434383E-012
   42.4650000000000         6.976187973890795E-012
   42.6550000000000         6.983594270971831E-012
   42.8450000000000         6.994851742066085E-012
   43.0350000000000         7.010237498145875E-012
   43.2250000000000         7.029275908996566E-012
   43.4150000000000         7.052413179533669E-012
   43.6050000000000         7.078771345758304E-012
   43.7950000000000         7.106818593402372E-012
   43.9850000000000         7.136600423662303E-012
   44.1750000000000         7.168449816317880E-012
   44.3650000000000         7.203177654270296E-012
   44.5550000000000         7.241289004239363E-012
   44.7450000000000         7.282018117927335E-012
   44.9350000000000         7.323492464369539E-012
   45.1250000000000         7.364085737065954E-012
   45.3150000000000         7.403100442766838E-012
   45.5050000000000         7.440530841639721E-012
   45.6950000000000         7.476772111170395E-012
   45.8850000000000         7.512272393706400E-012
   46.0750000000000         7.547443103145790E-012
   46.2650000000000         7.582451269383869E-012
   46.4550000000000         7.617254127597122E-012
   46.6450000000000         7.651927418703956E-012
   46.8350000000000         7.686907249823216E-012
   47.0250000000000         7.722942042613945E-012
   47.2150000000000         7.760344481155171E-012
   47.4050000000000         7.798664460285346E-012
   47.5950000000000         7.837132053511774E-012
   47.7850000000000         7.875136051033286E-012
   47.9750000000000         7.912107210580083E-012
   48.1650000000000         7.947721175899841E-012
   48.3550000000000         7.981690442009365E-012
   48.5450000000000         8.013933710273521E-012
   48.7350000000000         8.044363099434792E-012
   48.9250000000000         8.072958550755466E-012
   49.1150000000000         8.100030040847897E-012
   49.3050000000000         8.124942813472554E-012
   49.4950000000000         8.147069559785058E-012
   49.6850000000000         8.167607642198948E-012
   49.8750000000000         8.188622150357836E-012
   50.0650000000000         8.211388754542018E-012
   50.2550000000000         8.236649709883821E-012
   50.4450000000000         8.264804350984936E-012
   50.6350000000000         8.295065756066444E-012
   50.8250000000000         8.327556350468734E-012
   51.0150000000000         8.361965200071177E-012
   51.2050000000000         8.397083194975740E-012
   51.3950000000000         8.432994686173550E-012
   51.5850000000000         8.469158272839267E-012
   51.7750000000000         8.503041758448569E-012
   51.9650000000000         8.531681098201898E-012
   52.1550000000000         8.553645007327413E-012
   52.3450000000000         8.568701662296550E-012
   52.5350000000000         8.576908200949941E-012
   52.7250000000000         8.578762207546006E-012
   52.9150000000000         8.576103228371442E-012
   53.1050000000000         8.569503643725171E-012
   53.2950000000000         8.559042307313162E-012
   53.4850000000000         8.545951333469790E-012
   53.6750000000000         8.531970287684195E-012
   53.8650000000000         8.519637734484834E-012
   54.0550000000000         8.511292290447879E-012
   54.2450000000000         8.508703185429399E-012
   54.4350000000000         8.513178411584916E-012
   54.6250000000000         8.525182295211063E-012
   54.8150000000000         8.544608012568948E-012
   55.0050000000000         8.571078259852018E-012
   55.1950000000000         8.603329793183595E-012
   55.3850000000000         8.641058733711806E-012
   55.5750000000000         8.683535662724842E-012
   55.7650000000000         8.729262551972636E-012
   55.9550000000000         8.778187278139116E-012
   56.1450000000000         8.830066231324799E-012
   56.3350000000000         8.883057390425489E-012
   56.5250000000000         8.934853414021670E-012
   56.7150000000000         8.984050419095908E-012
   56.9050000000000         9.029679422829675E-012
   57.0950000000000         9.071489648803544E-012
   57.2850000000000         9.110105400457734E-012
   57.4750000000000         9.145624548795659E-012
   57.6650000000000         9.177807768001992E-012
   57.8550000000000         9.207295029581432E-012
   58.0450000000000         9.235222828096208E-012
   58.2350000000000         9.262298010373865E-012
   58.4250000000000         9.288602312995189E-012
   58.6150000000000         9.314302009086860E-012
   58.8050000000000         9.339656005542343E-012
   58.9950000000000         9.364796890249262E-012
   59.1850000000000         9.389806674793326E-012
   59.3750000000000         9.414709447229642E-012
   59.5650000000000         9.439491370070175E-012
   59.7550000000000         9.464190942573876E-012
   59.9450000000000         9.488897725871322E-012
   60.1350000000000         9.513664828173042E-012
   60.3250000000000         9.538270297351478E-012
   60.5150000000000         9.562037995456537E-012
   60.7050000000000         9.584253725933525E-012
   60.8950000000000         9.604252967903740E-012
   61.0850000000000         9.621811910470608E-012
   61.2750000000000         9.637038671060634E-012
   61.4650000000000         9.649921850082033E-012
   61.6550000000000         9.660561645213904E-012
   61.8450000000000         9.668934293212189E-012
   62.0350000000000         9.675136518994834E-012
   62.2250000000000         9.679514860748514E-012
   62.4150000000000         9.681949800806062E-012
   62.6050000000000         9.682231792261515E-012
   62.7950000000000         9.681104504484062E-012
   62.9850000000000         9.679063508389826E-012
   63.1750000000000         9.675717054643703E-012
   63.3650000000000         9.670535201754860E-012
   63.5550000000000         9.663061043682382E-012
   63.7450000000000         9.653350275956233E-012
   63.9350000000000         9.642120205287209E-012
   64.1250000000000         9.630343286823788E-012
   64.3150000000000         9.618942760666178E-012
   64.5050000000000         9.608723435025945E-012
   64.6950000000000         9.600810526786700E-012
   64.8850000000000         9.595424974249176E-012
   65.0750000000000         9.592791698221255E-012
   65.2650000000000         9.594102289211018E-012
   65.4550000000000         9.599798424047255E-012
   65.6450000000000         9.610118510682267E-012
   65.8350000000000         9.625478891103723E-012
   66.0250000000000         9.645790868970283E-012
   66.2150000000000         9.670456276407574E-012
   66.4050000000000         9.699108630970680E-012
   66.5950000000000         9.730368283828080E-012
   66.7850000000000         9.763648877281628E-012
   66.9750000000000         9.798960410368136E-012
   67.1650000000000         9.835691199862823E-012
   67.3550000000000         9.874006381478429E-012
   67.5450000000000         9.913970150715870E-012
   67.7350000000000         9.955298232788847E-012
   67.9250000000000         9.997074102705261E-012
   68.1150000000000         1.003804396232803E-011
   68.3050000000000         1.007703080361516E-011
   68.4950000000000         1.011320428651172E-011
   68.6850000000000         1.014632137340772E-011
   68.8750000000000         1.017655399057937E-011
   69.0650000000000         1.020424019401995E-011
   69.2550000000000         1.022982536704775E-011
   69.4450000000000         1.025386388563367E-011
   69.6350000000000         1.027700268226557E-011
   69.8250000000000         1.029975760917177E-011
   70.0150000000000         1.032244124022324E-011
   70.2050000000000         1.034528816782303E-011
   70.3950000000000         1.036846783930715E-011
   70.5850000000000         1.039198057423559E-011
   70.7750000000000         1.041560864054386E-011
   70.9650000000000         1.043895037373223E-011
   71.1550000000000         1.046124671661616E-011
   71.3450000000000         1.048218852232447E-011
   71.5350000000000         1.050128480948695E-011
   71.7250000000000         1.051868271581626E-011
   71.9150000000000         1.053460700095026E-011
   72.1050000000000         1.054920896865732E-011
   72.2950000000000         1.056333537276168E-011
   72.4850000000000         1.057711500634173E-011
   72.6750000000000         1.059063757976011E-011
   72.8650000000000         1.060313854622470E-011
   73.0550000000000         1.061321054204134E-011
   73.2450000000000         1.061963553491319E-011
   73.4350000000000         1.062112330786507E-011
   73.6250000000000         1.061710729434299E-011
   73.8150000000000         1.060854745532337E-011
   74.0050000000000         1.059709979830660E-011
   74.1950000000000         1.058439568682547E-011
   74.3850000000000         1.057183374356451E-011
   74.5750000000000         1.056040071056577E-011
   74.7650000000000         1.055084702051708E-011
   74.9550000000000         1.054355401552076E-011
   75.1450000000000         1.053857649222370E-011
   75.3350000000000         1.053517919497508E-011
   75.5250000000000         1.053407624857010E-011
   75.7150000000000         1.053532800077962E-011
   75.9050000000000         1.053773614580006E-011
   76.0950000000000         1.054235801346683E-011
   76.2850000000000         1.055160524899500E-011
   76.4750000000000         1.056720838727367E-011
   76.6650000000000         1.058858628935402E-011
   76.8550000000000         1.061378002443570E-011
   77.0450000000000         1.064143251778056E-011
   77.2350000000000         1.067191895102942E-011
   77.4250000000000         1.070593041120289E-011
   77.6150000000000         1.074288209618266E-011
   77.8050000000000         1.078097246633448E-011
   77.9950000000000         1.081854375727688E-011
   78.1850000000000         1.085459789068691E-011
   78.3750000000000         1.088859635912649E-011
   78.5650000000000         1.092052661702983E-011
   78.7550000000000         1.095020731779435E-011
   78.9450000000000         1.097802985121379E-011
   79.1350000000000         1.100435848118588E-011
   79.3250000000000         1.102909508086670E-011
   79.5150000000000         1.105212319632859E-011
   79.7050000000000         1.107253612663744E-011
   79.8950000000000         1.108938622243509E-011
   80.0850000000000         1.110260832333152E-011
   80.2750000000000         1.111317215336849E-011
   80.4650000000000         1.112206175335097E-011
   80.6550000000000         1.112979944083876E-011
   80.8450000000000         1.113644879369289E-011
   81.0350000000000         1.114179699437415E-011
   81.2250000000000         1.114564238102587E-011
   81.4150000000000         1.114795606983341E-011
   81.6050000000000         1.114872612870470E-011
   81.7950000000000         1.114824697283423E-011
   81.9850000000000         1.114687192129530E-011
   82.1750000000000         1.114487790152255E-011
   82.3650000000000         1.114257907292868E-011
   82.5550000000000         1.113961360994197E-011
   82.7450000000000         1.113545136343591E-011
   82.9350000000000         1.113002386998207E-011
   83.1250000000000         1.112350229012976E-011
   83.3150000000000         1.111607162251111E-011
   83.5050000000000         1.110791013518543E-011
   83.6950000000000         1.109922627309949E-011
   83.8850000000000         1.109051377506874E-011
   84.0750000000000         1.108209290922551E-011
   84.2650000000000         1.107401789630908E-011
   84.4550000000000         1.106643265917409E-011
   84.6450000000000         1.105938950177732E-011
   84.8350000000000         1.105285089434265E-011
   85.0250000000000         1.104697795525765E-011
   85.2150000000000         1.104235881112813E-011
   85.4050000000000         1.103972399310542E-011
   85.5950000000000         1.103956743004617E-011
   85.7850000000000         1.104184989818180E-011
   85.9750000000000         1.104619475824139E-011
   86.1650000000000         1.105240609823379E-011
   86.3550000000000         1.106052207075118E-011
   86.5450000000000         1.107073745266572E-011
   86.7350000000000         1.108329082918743E-011
   86.9250000000000         1.109822149520875E-011
   87.1150000000000         1.111543518363423E-011
   87.3050000000000         1.113494896382454E-011
   87.4950000000000         1.115689171511102E-011
   87.6850000000000         1.118131561729270E-011
   87.8750000000000         1.120790155881426E-011
   88.0650000000000         1.123635600743168E-011
   88.2550000000000         1.126643625005425E-011
   88.4450000000000         1.129788918195596E-011
   88.6350000000000         1.133055944147001E-011
   88.8250000000000         1.136421851190766E-011
   89.0150000000000         1.139827761590259E-011
   89.2050000000000         1.143119731396482E-011
   89.3950000000000         1.146073549748221E-011
   89.5850000000000         1.148494142256243E-011
   89.7750000000000         1.150392696279269E-011
   89.9650000000000         1.151871387469662E-011
   90.1550000000000         1.152954177385410E-011
   90.3450000000000         1.153700788404986E-011
   90.5350000000000         1.154175884350241E-011
   90.7250000000000         1.154419239745000E-011
   90.9150000000000         1.154476599704245E-011
   91.1050000000000         1.154388347869198E-011
   91.2950000000000         1.154194989908255E-011
   91.4850000000000         1.153938229722817E-011
   91.6750000000000         1.153674902253330E-011
   91.8650000000000         1.153468573688679E-011
   92.0550000000000         1.153368922187076E-011
   92.2450000000000         1.153390216076215E-011
   92.4350000000000         1.153520305740931E-011
   92.6250000000000         1.153750020744379E-011
   92.8150000000000         1.154053628782674E-011
   93.0050000000000         1.154378807173141E-011
   93.1950000000000         1.154643517591518E-011
   93.3850000000000         1.154711459650313E-011
   93.5750000000000         1.154385034471448E-011
   93.7650000000000         1.153541401883716E-011
   93.9550000000000         1.152209946978152E-011
   94.1450000000000         1.150454480772746E-011
   94.3350000000000         1.148337715815247E-011
   94.5250000000000         1.145930894852225E-011
   94.7150000000000         1.143309340160658E-011
   94.9050000000000         1.140524219966502E-011
   95.0950000000000         1.137626583048011E-011
   95.2850000000000         1.134676767252747E-011
   95.4750000000000         1.131704688542319E-011
   95.6650000000000         1.128806251434069E-011
   95.8550000000000         1.126026883584352E-011
   96.0450000000000         1.123355118774196E-011
   96.2350000000000         1.120879871112472E-011
   96.4250000000000         1.118767874136796E-011
   96.6150000000000         1.117184016913124E-011
   96.8050000000000         1.116210796046734E-011
   96.9950000000000         1.115836804341698E-011
   97.1850000000000         1.115961106663994E-011
   97.3750000000000         1.116416242430684E-011
   97.5650000000000         1.117117839419152E-011
   97.7550000000000         1.118082614173297E-011
   97.9450000000000         1.119302537163164E-011
   98.1350000000000         1.120765038556327E-011
   98.3250000000000         1.122424234788887E-011
   98.5150000000000         1.124194307850980E-011
   98.7050000000000         1.125979775886774E-011
   98.8950000000000         1.127686475430150E-011
   99.0850000000000         1.129231436195545E-011
   99.2750000000000         1.130521963450591E-011
   99.4650000000000         1.131416419946454E-011
   99.6550000000000         1.131864226077510E-011
   99.8450000000000         1.131899362840649E-011
   100.035000000000         1.131552709432868E-011
   100.225000000000         1.130874719825468E-011
   100.415000000000         1.129922424332711E-011
   100.605000000000         1.128755480079094E-011
   100.795000000000         1.127421799674537E-011
   100.985000000000         1.125963848138710E-011
   101.175000000000         1.124435492064059E-011
   101.365000000000         1.122855777511856E-011
   101.555000000000         1.121226181439718E-011
   101.745000000000         1.119565160866199E-011
   101.935000000000         1.117873952925881E-011
   102.125000000000         1.116193433599324E-011
   102.315000000000         1.114588244779142E-011
   102.505000000000         1.113082116492788E-011
   102.695000000000         1.111652075906553E-011
   102.885000000000         1.110267987387520E-011
   103.075000000000         1.108902523752397E-011
   103.265000000000         1.107524520314991E-011
   103.455000000000         1.106104305400499E-011
   103.645000000000         1.104620742858761E-011
   103.835000000000         1.103075996583445E-011
   104.025000000000         1.101466839046112E-011
   104.215000000000         1.099807055177659E-011
   104.405000000000         1.098122332254823E-011
   104.595000000000         1.096384629982029E-011
   104.785000000000         1.094510586934873E-011
   104.975000000000         1.092391219269570E-011
   105.165000000000         1.089964239354428E-011
   105.355000000000         1.087244951432850E-011
   105.545000000000         1.084288413128340E-011
   105.735000000000         1.081163747142521E-011
   105.925000000000         1.077955632237338E-011
   106.115000000000         1.074748526102204E-011
   106.305000000000         1.071612199267603E-011
   106.495000000000         1.068577341023087E-011
   106.685000000000         1.065675668337644E-011
   106.875000000000         1.062902932388252E-011
   107.065000000000         1.060258814510673E-011
   107.255000000000         1.057796423754996E-011
   107.445000000000         1.055550630428698E-011
   107.635000000000         1.053549463497602E-011
   107.825000000000         1.051802991874431E-011
   108.015000000000         1.050305044390681E-011
   108.205000000000         1.049066069510467E-011
   108.395000000000         1.048177347512526E-011
   108.585000000000         1.047777232874216E-011
   108.775000000000         1.047874080763807E-011
   108.965000000000         1.048380953913533E-011
   109.155000000000         1.049126094818152E-011
   109.345000000000         1.050017971262423E-011
   109.535000000000         1.051028495627281E-011
   109.725000000000         1.052078311173666E-011
   109.915000000000         1.053159319919148E-011
   110.105000000000         1.054245192486139E-011