  -1.42500000000000         0.000000000000000E+000
  -1.23500000000000         1.857421418834611E-020
  -1.04500000000000         2.462187859881687E-019
 -0.855000000000000         3.223124688400484E-018
 -0.665000000000000         1.566862828301894E-017
 -0.475000000000000         5.389751858332944E-017
 -0.285000000000000         1.991116911812133E-016
 -9.499999999999975E-002    6.410476293122271E-016
  9.500000000000020E-002    2.132898136387427E-015
  0.285000000000000         5.903993888079405E-015
  0.475000000000000         1.354799191140692E-014
  0.665000000000000         2.543924811881252E-014
  0.855000000000000         4.587959243232392E-014
   1.04500000000000         7.894977465163017E-014
   1.23500000000000         1.337236278256083E-013
   1.42500000000000         2.160731481062482E-013
   1.61500000000000         3.281839698343070E-013
   1.80500000000000         4.735369145171990E-013
   1.99500000000000         6.743863157690773E-013
   2.18500000000000         9.381386629267871E-013
   2.37500000000000         1.267409986893717E-012
   2.56500000000000         1.665742625073971E-012
   2.75500000000000         2.132411941412331E-012
   2.94500000000000         2.666341143019261E-012
   3.13500000000000         3.269330616418708E-012
   3.32500000000000         3.943033720780498E-012
   3.51500000000000         4.687711281966425E-012
   3.70500000000000         5.503583758377862E-012
   3.89500000000000         6.390531502023599E-012
   4.08500000000000         7.347932138672213E-012
   4.27500000000000         8.375244598211570E-012
   4.46500000000000         9.471547344265243E-012
   4.65500000000000         1.063478323173777E-011
   4.84500000000000         1.186279599863292E-011
   5.03500000000000         1.315373846657746E-011
   5.22500000000000         1.450473761840357E-011
   5.41500000000000         1.591673357810289E-011
   5.60500000000000         1.738393585149173E-011
   5.79500000000000         1.890364001824846E-011
   5.98500000000000         2.046630016504941E-011
   6.17500000000000         2.206597270973097E-011
   6.36500000000000         2.370486999351722E-011
   6.55500000000000         2.537759183823314E-011
   6.74500000000000         2.708296310799924E-011
   6.93500000000000         2.881628237702730E-011
   7.12500000000000         3.057218866381202E-011
   7.31500000000000         3.235922946040118E-011
   7.50500000000000         3.416784853151409E-011
   7.69500000000000         3.599837051381629E-011
   7.88500000000000         3.785112837413840E-011
   8.07500000000000         3.972656906755515E-011
   8.26500000000000         4.162693474590341E-011
   8.45500000000000         4.355228564839194E-011
   8.64500000000000         4.551605913977814E-011
   8.83500000000000         4.752054348648974E-011
   9.02500000000000         4.956545542443800E-011
   9.21500000000000         5.164980463265548E-011
   9.40500000000000         5.376602685524086E-011
   9.59500000000000         5.592578958569818E-011
   9.78500000000000         5.813235609598816E-011
   9.97500000000000         6.038376095774620E-011
   10.1650000000000         6.267826188829022E-011
   10.3550000000000         6.501693820365886E-011
   10.5450000000000         6.740492529098368E-011
   10.7350000000000         6.983958279156072E-011
   10.9250000000000         7.232108300830255E-011
   11.1150000000000         7.484911892065949E-011
   11.3050000000000         7.742425749037351E-011
   11.4950000000000         8.004833655861506E-011
   11.6850000000000         8.272512488577164E-011
   11.8750000000000         8.545843910793234E-011
   12.0650000000000         8.824964513000250E-011
   12.2550000000000         9.109936320776823E-011
   12.4450000000000         9.400747742184243E-011
   12.6350000000000         9.697384800954516E-011
   12.8250000000000         9.999720192721093E-011
   13.0150000000000         1.030704710611884E-010
   13.2050000000000         1.061891007398252E-010
   13.3950000000000         1.093478332644069E-010
   13.5850000000000         1.125415610263265E-010
   13.7750000000000         1.157605068597486E-010
   13.9650000000000         1.190019641367416E-010
   14.1550000000000         1.222664383326324E-010
   14.3450000000000         1.255549382421953E-010
   14.5350000000000         1.288643104316805E-010
   14.7250000000000         1.321956830911476E-010
   14.9150000000000         1.355518547436705E-010
   15.1050000000000         1.389379904101164E-010
   15.2950000000000         1.423596126813883E-010
   15.4850000000000         1.458166569420518E-010
   15.6750000000000         1.493116719423892E-010
   15.8650000000000         1.528452062606309E-010
   16.0550000000000         1.564197639803556E-010
   16.2450000000000         1.600408045739302E-010
   16.4350000000000         1.637108812381075E-010
   16.6250000000000         1.674399966588690E-010
   16.8150000000000         1.712240293966180E-010
   17.0050000000000         1.750652437271288E-010
   17.1950000000000         1.789638935993652E-010
   17.3850000000000         1.829263528253211E-010
   17.5750000000000         1.869528280310541E-010
   17.7650000000000         1.910450900418086E-010
   17.9550000000000         1.952042367462463E-010
   18.1450000000000         1.994302674193622E-010
   18.3350000000000         2.037236224694176E-010
   18.5250000000000         2.080848300149752E-010
   18.7150000000000         2.125136910098044E-010
   18.9050000000000         2.170078696572804E-010
   19.0950000000000         2.215623279725645E-010
   19.2850000000000         2.261715556352562E-010
   19.4750000000000         2.308322703636722E-010
   19.6650000000000         2.355407561742861E-010
   19.8550000000000         2.402935932660763E-010
   20.0450000000000         2.450784097646740E-010
   20.2350000000000         2.498835656172422E-010
   20.4250000000000         2.547057889560936E-010
   20.6150000000000         2.595420995745669E-010
   20.8050000000000         2.643897284441576E-010
   20.9950000000000         2.692476612171663E-010
   21.1850000000000         2.741146707815753E-010
   21.3750000000000         2.789941460193677E-010
   21.5650000000000         2.838809531862601E-010
   21.7550000000000         2.887752092381181E-010
   21.9450000000000         2.936772855521398E-010
   22.1350000000000         2.985896886030407E-010
   22.3250000000000         3.035178773889972E-010
   22.5150000000000         3.084580563644908E-010
   22.7050000000000         3.134206290897947E-010
   22.8950000000000         3.184022458196342E-010
   23.0850000000000         3.234120746340197E-010
   23.2750000000000         3.284481253176390E-010
   23.4650000000000         3.335215674623435E-010
   23.6550000000000         3.386367632797074E-010
   23.8450000000000         3.437934004784669E-010
   24.0350000000000         3.489977554707366E-010
   24.2250000000000         3.542556931075893E-010
   24.4150000000000         3.595734188917722E-010
   24.6050000000000         3.649579765070624E-010
   24.7950000000000         3.704150577452116E-010
   24.9850000000000         3.759454701677492E-010
   25.1750000000000         3.815546226337401E-010
   25.3650000000000         3.872437303394374E-010
   25.5550000000000         3.930126815844809E-010
   25.7450000000000         3.988603222289717E-010
   25.9350000000000         4.047872594141252E-010
   26.1250000000000         4.107847383118271E-010
   26.3150000000000         4.168527542423866E-010
   26.5050000000000         4.229886038024095E-010
   26.6950000000000         4.291887366329742E-010
   26.8850000000000         4.354521309040001E-010
   27.0750000000000         4.417738104725464E-010
   27.2650000000000         4.481535433016584E-010
   27.4550000000000         4.545876366234739E-010
   27.6450000000000         4.610723182903000E-010
   27.8350000000000         4.676041022663768E-010
   28.0250000000000         4.741827590889398E-010
   28.2150000000000         4.807990181433209E-010
   28.4050000000000         4.874524577303411E-010
   28.5950000000000         4.941334662682740E-010
   28.7850000000000         5.008425210468676E-010
   28.9750000000000         5.075737782556193E-010
   29.1650000000000         5.143181015072255E-010
   29.3550000000000         5.210762292803006E-010
   29.5450000000000         5.278444151952458E-010
   29.7350000000000         5.346178911247561E-010
   29.9250000000000         5.413920967079892E-010
   30.1150000000000         5.481647925839554E-010
   30.3050000000000         5.549327776000531E-010
   30.4950000000000         5.616968747332249E-010
   30.6850000000000         5.684541580678753E-010
   30.8750000000000         5.752161360315055E-010
   31.0650000000000         5.819839241991952E-010
   31.2550000000000         5.887643940748189E-010
   31.4450000000000         5.955660686340580E-010
   31.6350000000000         6.023953705499327E-010
   31.8250000000000         6.092614491635146E-010
   32.0150000000000         6.161726488008164E-010
   32.2050000000000         6.231360687888842E-010
   32.3950000000000         6.301573963206638E-010
   32.5850000000000         6.372502267251313E-010
   32.7750000000000         6.444173926866147E-010
   32.9650000000000         6.516712336119411E-010
   33.1550000000000         6.590125844811367E-010
   33.3450000000000         6.664383704326316E-010
   33.5350000000000         6.739505758526182E-010
   33.7250000000000         6.815476718812645E-010
   33.9150000000000         6.892252453928402E-010
   34.1050000000000         6.969782708400250E-010
   34.2950000000000         7.047978497298461E-010
   34.4850000000000         7.126801214558353E-010
   34.6750000000000         7.206254938527162E-010
   34.8650000000000         7.286264004573583E-010
   35.0550000000000         7.366818608027302E-010
   35.2450000000000         7.447886298415111E-010
   35.4350000000000         7.529431462225981E-010
   35.6250000000000         7.611431933120490E-010
   35.8150000000000         7.693856304033570E-010
   36.0050000000000         7.776678208392710E-010
   36.1950000000000         7.859823239805426E-010
   36.3850000000000         7.943308133819928E-010
   36.5750000000000         8.027169623758196E-010
   36.7650000000000         8.111338150446862E-010
   36.9550000000000         8.195814581305894E-010
   37.1450000000000         8.280557811088634E-010
   37.3350000000000         8.365541542792810E-010
   37.5250000000000         8.450748950995028E-010
   37.7150000000000         8.536162431605806E-010
   37.9050000000000         8.621767701170944E-010
   38.0950000000000         8.707566036825055E-010
   38.2850000000000         8.793575282117983E-010
   38.4750000000000         8.879880422457918E-010
   38.6650000000000         8.966518498131739E-010
   38.8550000000000         9.053489707716909E-010
   39.0450000000000         9.140895929756668E-010
   39.2350000000000         9.228797884060303E-010
   39.4250000000000         9.317276207080230E-010
   39.6150000000000         9.406354625814467E-010
   39.8050000000000         9.496135227837808E-010
   39.9950000000000         9.586666089131415E-010
   40.1850000000000         9.677918101397716E-010
   40.3750000000000         9.769923913661130E-010
   40.5650000000000         9.862645073128360E-010
   40.7550000000000         9.956069172008694E-010
   40.9450000000000         1.005014281225312E-009
   41.1350000000000         1.014483313018976E-009
   41.3250000000000         1.024015813346247E-009
   41.5150000000000         1.033605055574905E-009
   41.7050000000000         1.043249923720149E-009
   41.8950000000000         1.052945694356446E-009
   42.0850000000000         1.062684801094337E-009
   42.2750000000000         1.072474884951042E-009
   42.4650000000000         1.082310050144000E-009
   42.6550000000000         1.092187219615977E-009
   42.8450000000000         1.102105996214390E-009
   43.0350000000000         1.112065722528822E-009
   43.2250000000000         1.122065480118976E-009
   43.4150000000000         1.132102124222763E-009
   43.6050000000000         1.142175493663929E-009
   43.7950000000000         1.152283623995165E-009
   43.9850000000000         1.162422691000448E-009
   44.1750000000000         1.172590657265681E-009
   44.3650000000000         1.182785282522154E-009
   44.5550000000000         1.193010944206571E-009
   44.7450000000000         1.203272252552682E-009
   44.9350000000000         1.213575322820447E-009
   45.1250000000000         1.223922878403034E-009
   45.3150000000000         1.234313420344717E-009
   45.5050000000000         1.244748714109087E-009
   45.6950000000000         1.255234669431934E-009
   45.8850000000000         1.265778031636871E-009
   46.0750000000000         1.276385720994836E-009
   46.2650000000000         1.287062544139488E-009
   46.4550000000000         1.297805806236345E-009
   46.6450000000000         1.308615431957985E-009
   46.8350000000000         1.319490086865962E-009
   47.0250000000000         1.330428853178090E-009
   47.2150000000000         1.341424515367606E-009
   47.4050000000000         1.352478626366901E-009
   47.5950000000000         1.363585857549525E-009
   47.7850000000000         1.374740641196112E-009
   47.9750000000000         1.385937183996642E-009
   48.1650000000000         1.397168057862372E-009
   48.3550000000000         1.408432163711768E-009
   48.5450000000000         1.419725511829592E-009
   48.7350000000000         1.431038707387885E-009
   48.9250000000000         1.442368920942375E-009
   49.1150000000000         1.453717624135234E-009
   49.3050000000000         1.465088470114964E-009
   49.4950000000000         1.476478849313635E-009
   49.6850000000000         1.487898919035720E-009
   49.8750000000000         1.499358798416230E-009
   50.0650000000000         1.510848367888632E-009
   50.2550000000000         1.522371551574415E-009
   50.4450000000000         1.533929982086683E-009
   50.6350000000000         1.545516180601357E-009
   50.8250000000000         1.557127199042478E-009
   51.0150000000000         1.568761298452028E-009
   51.2050000000000         1.580417261405057E-009
   51.3950000000000         1.592095720443496E-009
   51.5850000000000         1.603801346219820E-009
   51.7750000000000         1.615537704286623E-009
   51.9650000000000         1.627300886714455E-009
   52.1550000000000         1.639095147090878E-009
   52.3450000000000         1.650925046176665E-009
   52.5350000000000         1.662797259679004E-009
   52.7250000000000         1.674715973107478E-009
   52.9150000000000         1.686683678887924E-009
   53.1050000000000         1.698720173780042E-009
   53.2950000000000         1.710827963491446E-009
   53.4850000000000         1.723015359249121E-009
   53.6750000000000         1.735281288404040E-009
   53.8650000000000         1.747633689926853E-009
   54.0550000000000         1.760077869743892E-009
   54.2450000000000         1.772612863186378E-009
   54.4350000000000         1.785239281060558E-009
   54.6250000000000         1.797956256662433E-009
   54.8150000000000         1.810763932285779E-009
   55.0050000000000         1.823659989063727E-009
   55.1950000000000         1.836645499599168E-009
   55.3850000000000         1.849715886903209E-009
   55.5750000000000         1.862867736334326E-009
   55.7650000000000         1.876098604321362E-009
   55.9550000000000         1.889404240785184E-009
   56.1450000000000         1.902780339412974E-009
   56.3350000000000         1.916225797640892E-009
   56.5250000000000         1.929734917118699E-009
   56.7150000000000         1.943302501039797E-009
   56.9050000000000         1.956923892093284E-009
   57.0950000000000         1.970595629781525E-009
   57.2850000000000         1.984311329765350E-009
   57.4750000000000         1.998057911967899E-009
   57.6650000000000         2.011825129678200E-009
   57.8550000000000         2.025597693795411E-009
   58.0450000000000         2.039379983107687E-009
   58.2350000000000         2.053169551771163E-009
   58.4250000000000         2.066965330785730E-009
   58.6150000000000         2.080768800052505E-009
   58.8050000000000         2.094578872449930E-009
   58.9950000000000         2.108394865900490E-009
   59.1850000000000         2.122215517409489E-009
   59.3750000000000         2.136039791779680E-009
   59.5650000000000         2.149868759990104E-009
   59.7550000000000         2.163704182362760E-009
   59.9450000000000         2.177547630616282E-009
   60.1350000000000         2.191399810049017E-009
   60.3250000000000         2.205260959226134E-009
   60.5150000000000         2.219132003360950E-009
   60.7050000000000         2.233021379321458E-009
   60.8950000000000         2.246924596626865E-009
   61.0850000000000         2.260839028801607E-009
   61.2750000000000         2.274771835736106E-009
   61.4650000000000         2.288722645363546E-009
   61.6550000000000         2.302695835418598E-009
   61.8450000000000         2.316697463920557E-009
   62.0350000000000         2.330744574051626E-009
   62.2250000000000         2.344838590725171E-009
   62.4150000000000         2.358995516744942E-009
   62.6050000000000         2.373219869291831E-009
   62.7950000000000         2.387514963391795E-009
   62.9850000000000         2.401881896302349E-009
   63.1750000000000         2.416323705922101E-009
   63.3650000000000         2.430843912688865E-009
   63.5550000000000         2.445442143493876E-009
   63.7450000000000         2.460120025704496E-009
   63.9350000000000         2.474871989783377E-009
   64.1250000000000         2.489692521184655E-009
   64.3150000000000         2.504590023901568E-009
   64.5050000000000         2.519566295980743E-009
   64.6950000000000         2.534618341603079E-009
   64.8850000000000         2.549736373189931E-009
   65.0750000000000         2.564903094598347E-009
   65.2650000000000         2.580122774728652E-009
   65.4550000000000         2.595387853889219E-009
   65.6450000000000         2.610688470328059E-009
   65.8350000000000         2.626012385121159E-009
   66.0250000000000         2.641354978524037E-009
   66.2150000000000         2.656717616834672E-009
   66.4050000000000         2.672095572718181E-009
   66.5950000000000         2.687488023609480E-009
   66.7850000000000         2.702897109777879E-009
   66.9750000000000         2.718324482495739E-009
   67.1650000000000         2.733771044224529E-009
   67.3550000000000         2.749237517829058E-009
   67.5450000000000         2.764724621860728E-009
   67.7350000000000         2.780236810585501E-009
   67.9250000000000         2.795776151538984E-009
   68.1150000000000         2.811347433260530E-009
   68.3050000000000         2.826955327044526E-009
   68.4950000000000         2.842606701557957E-009
   68.6850000000000         2.858296113260690E-009
   68.8750000000000         2.874026407728051E-009
   69.0650000000000         2.889801801157084E-009
   69.2550000000000         2.905627673561023E-009
   69.4450000000000         2.921508370429740E-009
   69.6350000000000         2.937449795835759E-009
   69.8250000000000         2.953457016470994E-009
   70.0150000000000         2.969527329449374E-009
   70.2050000000000         2.985665011369976E-009
   70.3950000000000         3.001874313685608E-009
   70.5850000000000         3.018158010157551E-009
   70.7750000000000         3.034515821137973E-009
   70.9650000000000         3.050945559844885E-009
   71.1550000000000         3.067445698259535E-009
   71.3450000000000         3.084016712355867E-009
   71.5350000000000         3.100658725183400E-009
   71.7250000000000         3.117371566792217E-009
   71.9150000000000         3.134154048306297E-009
   72.1050000000000         3.151006854887400E-009
   72.2950000000000         3.167929748093828E-009
   72.4850000000000         3.184923438254851E-009
   72.6750000000000         3.201989225176640E-009
   72.8650000000000         3.219128138839515E-009
   73.0550000000000         3.236339032096683E-009
   73.2450000000000         3.253619624574703E-009
   73.4350000000000         3.270965920073932E-009
   73.6250000000000         3.288376921493603E-009
   73.8150000000000         3.305850785471000E-009
   74.0050000000000         3.323388176080100E-009
   74.1950000000000         3.340982687106480E-009
   74.3850000000000         3.358632888582324E-009
   74.5750000000000         3.376337004228966E-009
   74.7650000000000         3.394094049994626E-009
   74.9550000000000         3.411904052996524E-009
   75.1450000000000         3.429771006074990E-009
   75.3350000000000         3.447696432832159E-009
   75.5250000000000         3.465674643588990E-009
   75.7150000000000         3.483701067009553E-009
   75.9050000000000         3.501772808500632E-009
   76.0950000000000         3.519889967764938E-009
   76.2850000000000         3.538053074189802E-009
   76.4750000000000         3.556263018773493E-009
   76.6650000000000         3.574517263032189E-009
   76.8550000000000         3.592813447010333E-009
   77.0450000000000         3.611151652173217E-009
   77.2350000000000         3.629532099657700E-009
   77.4250000000000         3.647953132269300E-009
   77.6150000000000         3.666413948985045E-009
   77.8050000000000         3.684910813293838E-009
   77.9950000000000         3.703440477889768E-009
   78.1850000000000         3.721999433631293E-009
   78.3750000000000         3.740586705252726E-009
   78.5650000000000         3.759196667023708E-009
   78.7550000000000         3.777833406903229E-009
   78.9450000000000         3.796492345093270E-009
   79.1350000000000         3.815168034047888E-009
   79.3250000000000         3.833855600604752E-009
   79.5150000000000         3.852554001994423E-009
   79.7050000000000         3.871263420774268E-009
   79.8950000000000         3.889987928434367E-009
   80.0850000000000         3.908727825195010E-009
   80.2750000000000         3.927488018018546E-009
   80.4650000000000         3.946272040895020E-009
   80.6550000000000         3.965085218640174E-009
   80.8450000000000         3.983941966494785E-009
   81.0350000000000         4.002849143172417E-009
   81.2250000000000         4.021810774764994E-009
   81.4150000000000         4.040833317300883E-009
   81.6050000000000         4.059923409454426E-009
   81.7950000000000         4.079083408435769E-009
   81.9850000000000         4.098321472459496E-009
   82.1750000000000         4.117634111139239E-009
   82.3650000000000         4.137019945325518E-009
   82.5550000000000         4.156478957925226E-009
   82.7450000000000         4.176011453292998E-009
   82.9350000000000         4.195615942076597E-009
   83.1250000000000         4.215291632738731E-009
   83.3150000000000         4.235038384126876E-009
   83.5050000000000         4.254863308853724E-009
   83.6950000000000         4.274764047638867E-009
   83.8850000000000         4.294740634561653E-009
   84.0750000000000         4.314794288956688E-009
   84.2650000000000         4.334927442202341E-009
   84.4550000000000         4.355142775833772E-009
   84.6450000000000         4.375439437831894E-009
   84.8350000000000         4.395816481921876E-009
   85.0250000000000         4.416273204436021E-009
   85.2150000000000         4.436810706675847E-009
   85.4050000000000         4.457429360110290E-009
   85.5950000000000         4.478130000124806E-009
   85.7850000000000         4.498909708038950E-009
   85.9750000000000         4.519761047317102E-009
   86.1650000000000         4.540684299523428E-009
   86.3550000000000         4.561672330001320E-009
   86.5450000000000         4.582713623238154E-009
   86.7350000000000         4.603802409858378E-009
   86.9250000000000         4.624930800243270E-009
   87.1150000000000         4.646087090416058E-009
   87.3050000000000         4.667262671355454E-009
   87.4950000000000         4.688449532191842E-009
   87.6850000000000         4.709644476455175E-009
   87.8750000000000         4.730843765452709E-009
   88.0650000000000         4.752048354616329E-009
   88.2550000000000         4.773258080633925E-009
   88.4450000000000         4.794474455507328E-009
   88.6350000000000         4.815698669781806E-009
   88.8250000000000         4.836934734070979E-009
   89.0150000000000         4.858190814402094E-009
   89.2050000000000         4.879472784572283E-009
   89.3950000000000         4.900789899799336E-009
   89.5850000000000         4.922141321412548E-009
   89.7750000000000         4.943515861610009E-009
   89.9650000000000         4.964920558623728E-009
   90.1550000000000         4.986368148211926E-009
   90.3450000000000         5.007863657513345E-009
   90.5350000000000         5.029413431984259E-009
   90.7250000000000         5.051020107280692E-009
   90.9150000000000         5.072687919475909E-009
   91.1050000000000         5.094421599142871E-009
   91.2950000000000         5.116227036993645E-009
   91.4850000000000         5.138110324937432E-009
   91.6750000000000         5.160079610197862E-009
   91.8650000000000         5.182137640124355E-009
   92.0550000000000         5.204286027518660E-009
   92.2450000000000         5.226524834002717E-009
   92.4350000000000         5.248856504796194E-009
   92.6250000000000         5.271280594172438E-009
   92.8150000000000         5.293794762575964E-009
   93.0050000000000         5.316394266953332E-009
   93.1950000000000         5.339072775009865E-009
   93.3850000000000         5.361824962758643E-009
   93.5750000000000         5.384652402629470E-009
   93.7650000000000         5.407559008795452E-009
   93.9550000000000         5.430538627807188E-009
   94.1450000000000         5.453580331916251E-009
   94.3350000000000         5.476677008309720E-009
   94.5250000000000         5.499830681695563E-009
   94.7150000000000         5.523038297338363E-009
   94.9050000000000         5.546293824888211E-009
   95.0950000000000         5.569587375814885E-009
   95.2850000000000         5.592907770818245E-009
   95.4750000000000         5.616250626184483E-009
   95.6650000000000         5.639619076172258E-009
   95.8550000000000         5.663004993320204E-009
   96.0450000000000         5.686412698453777E-009
   96.2350000000000         5.709840297543584E-009
   96.4250000000000         5.733281708130486E-009
   96.6150000000000         5.756732420262398E-009
   96.8050000000000         5.780188990554837E-009
   96.9950000000000         5.803651634936958E-009
   97.1850000000000         5.827125616419932E-009
   97.3750000000000         5.850612110874868E-009
   97.5650000000000         5.874109403130704E-009
   97.7550000000000         5.897617491573872E-009
   97.9450000000000         5.921138263976740E-009
   98.1350000000000         5.944677645453429E-009
   98.3250000000000         5.968250239291338E-009
   98.5150000000000         5.991859974741910E-009
   98.7050000000000         6.015510042046745E-009
   98.8950000000000         6.039205526551900E-009
   99.0850000000000         6.062957836536998E-009
   99.2750000000000         6.086775639014523E-009
   99.4650000000000         6.110658037759494E-009
   99.6550000000000         6.134603071072937E-009
   99.8450000000000         6.158621139037201E-009
   100.035000000000         6.182711022705417E-009
   100.225000000000         6.206868916925020E-009
   100.415000000000         6.231093134621547E-009
   100.605000000000         6.255380161997856E-009
   100.795000000000         6.279727023175587E-009
   100.985000000000         6.304134548444482E-009
   101.175000000000         6.328594987405465E-009
   101.365000000000         6.353108149914551E-009
   101.555000000000         6.377670922732279E-009
   101.745000000000         6.402287649473298E-009
   101.935000000000         6.426961608986716E-009
   102.125000000000         6.451697150511137E-009
   102.315000000000         6.476504357081669E-009
   102.505000000000         6.501376590967317E-009
   102.695000000000         6.526310988587037E-009
   102.885000000000         6.551306223260672E-009
   103.075000000000         6.576360138369421E-009
   103.265000000000         6.601466395315266E-009
   103.455000000000         6.626628052754898E-009
   103.645000000000         6.651842336070863E-009
   103.835000000000         6.677108542629756E-009
   104.025000000000         6.702418121684699E-009
   104.215000000000         6.727768291352609E-009
   104.405000000000         6.753165581374807E-009
   104.595000000000         6.778609295726791E-009
   104.785000000000         6.804098159076342E-009
   104.975000000000         6.829630587413063E-009
   105.165000000000         6.855206852829399E-009
   105.355000000000         6.880830483806497E-009
   105.545000000000         6.906503738551062E-009
   105.735000000000         6.932226994510227E-009
   105.925000000000         6.957998672800764E-009
   106.115000000000         6.983816891557645E-009
   106.305000000000         7.009681051084457E-009
   106.495000000000         7.035590651923321E-009
   106.685000000000         7.061547013405421E-009
   106.875000000000         7.087547093431327E-009
   107.065000000000         7.113589003132624E-009
   107.255000000000         7.139669306391091E-009
   107.445000000000         7.165786936898642E-009
   107.635000000000         7.191942729093380E-009
   107.825000000000         7.218137871115372E-009
   108.015000000000         7.244372017455148E-009
   108.205000000000         7.270643042484973E-009
   108.395000000000         7.296948729402310E-009
   108.585000000000         7.323289672953494E-009
   108.775000000000         7.349667431393936E-009
   108.965000000000         7.376083865036828E-009
   109.155000000000         7.402539979963064E-009
   109.345000000000         7.429036204675292E-009
   109.535000000000         7.455574758061714E-009
   109.725000000000         7.482156404390432E-009
   109.915000000000         7.508783962208032E-009
   110.105000000000         7.535461703142791E-009