  -1.42500000000000        -7.199695909278371E-021
  -1.23500000000000        -6.613611519442300E-018
  -1.04500000000000        -5.638809283688682E-017
 -0.855000000000000        -3.057229729089594E-016
 -0.665000000000000        -1.193316624564581E-015
 -0.475000000000000        -3.723128868555678E-015
 -0.285000000000000        -1.021426155383302E-014
 -9.499999999999975E-002   -2.593762680405048E-014
  9.500000000000020E-002   -6.349823060404719E-014
  0.285000000000000        -1.392032851135683E-013
  0.475000000000000        -2.586579425550646E-013
  0.665000000000000        -4.287928809096233E-013
  0.855000000000000        -6.796459995818423E-013
   1.04500000000000        -1.017139011885986E-012
   1.23500000000000        -1.418309885862819E-012
   1.42500000000000        -1.841774167074926E-012
   1.61500000000000        -2.283535137131286E-012
   1.80500000000000        -2.766348456104853E-012
   1.99500000000000        -3.276759093890041E-012
   2.18500000000000        -3.796722550481852E-012
   2.37500000000000        -4.310794008738115E-012
   2.56500000000000        -4.814770705503823E-012
   2.75500000000000        -5.300513894223368E-012
   2.94500000000000        -5.761372377584695E-012
   3.13500000000000        -6.199498805180992E-012
   3.32500000000000        -6.620057468874466E-012
   3.51500000000000        -7.023980842204215E-012
   3.70500000000000        -7.412108166826260E-012
   3.89500000000000        -7.786961602331433E-012
   4.08500000000000        -8.148170328774721E-012
   4.27500000000000        -8.496233258080498E-012
   4.46500000000000        -8.827736141404657E-012
   4.65500000000000        -9.141749595585092E-012
   4.84500000000000        -9.446585902965936E-012
   5.03500000000000        -9.751931434083871E-012
   5.22500000000000        -1.006039080144313E-011
   5.41500000000000        -1.036763286075980E-011
   5.60500000000000        -1.066163607088312E-011
   5.79500000000000        -1.093038931736784E-011
   5.98500000000000        -1.117118199045173E-011
   6.17500000000000        -1.138604560978215E-011
   6.36500000000000        -1.157165203930539E-011
   6.55500000000000        -1.173970717458839E-011
   6.74500000000000        -1.190704522562911E-011
   6.93500000000000        -1.208187591366439E-011
   7.12500000000000        -1.228390703654751E-011
   7.31500000000000        -1.253920571139989E-011
   7.50500000000000        -1.285833863156639E-011
   7.69500000000000        -1.324197375472271E-011
   7.88500000000000        -1.368910295146893E-011
   8.07500000000000        -1.419510955315016E-011
   8.26500000000000        -1.473714759885065E-011
   8.45500000000000        -1.530868274118629E-011
   8.64500000000000        -1.591866525811998E-011
   8.83500000000000        -1.654599239627651E-011
   9.02500000000000        -1.714570905864873E-011
   9.21500000000000        -1.768331797939522E-011
   9.40500000000000        -1.812007357669706E-011
   9.59500000000000        -1.844423766659398E-011
   9.78500000000000        -1.869942572338162E-011
   9.97500000000000        -1.889705935913795E-011
   10.1650000000000        -1.903552622322692E-011
   10.3550000000000        -1.913946694073958E-011
   10.5450000000000        -1.921403183167711E-011
   10.7350000000000        -1.926345371486143E-011
   10.9250000000000        -1.930776822086062E-011
   11.1150000000000        -1.934903036393108E-011
   11.3050000000000        -1.938690609018401E-011
   11.4950000000000        -1.942907851807878E-011
   11.6850000000000        -1.949275079949541E-011
   11.8750000000000        -1.959100327566010E-011
   12.0650000000000        -1.972631466903534E-011
   12.2550000000000        -1.989596002101725E-011
   12.4450000000000        -2.009711328012281E-011
   12.6350000000000        -2.031774402431072E-011
   12.8250000000000        -2.054508812549510E-011
   13.0150000000000        -2.077262932673263E-011
   13.2050000000000        -2.099071934630695E-011
   13.3950000000000        -2.118609085058854E-011
   13.5850000000000        -2.134858171078645E-011
   13.7750000000000        -2.148007263595865E-011
   13.9650000000000        -2.158667338131963E-011
   14.1550000000000        -2.167994462114991E-011
   14.3450000000000        -2.176374459793867E-011
   14.5350000000000        -2.183925824851900E-011
   14.7250000000000        -2.191611420271086E-011
   14.9150000000000        -2.201501664516552E-011
   15.1050000000000        -2.216001056124807E-011
   15.2950000000000        -2.235536217329691E-011
   15.4850000000000        -2.259765375764686E-011
   15.6750000000000        -2.287424892732649E-011
   15.8650000000000        -2.317710999775492E-011
   16.0550000000000        -2.350909665616665E-011
   16.2450000000000        -2.386313788925091E-011
   16.4350000000000        -2.423635460755525E-011
   16.6250000000000        -2.462831728668878E-011
   16.8150000000000        -2.503340087422412E-011
   17.0050000000000        -2.544291212026349E-011
   17.1950000000000        -2.585672650314480E-011
   17.3850000000000        -2.627680256002137E-011
   17.5750000000000        -2.670006396270839E-011
   17.7650000000000        -2.712662073215923E-011
   17.9550000000000        -2.755390412748679E-011
   18.1450000000000        -2.798104529860492E-011
   18.3350000000000        -2.840767159303751E-011
   18.5250000000000        -2.883250821604141E-011
   18.7150000000000        -2.925240116120012E-011
   18.9050000000000        -2.966551430919661E-011
   19.0950000000000        -3.007141080621898E-011
   19.2850000000000        -3.047212970724410E-011
   19.4750000000000        -3.086979897944709E-011
   19.6650000000000        -3.126179304735001E-011
   19.8550000000000        -3.164113857729465E-011
   20.0450000000000        -3.200377616858750E-011
   20.2350000000000        -3.234553535671861E-011
   20.4250000000000        -3.265854311108639E-011
   20.6150000000000        -3.294051405366727E-011
   20.8050000000000        -3.319214877920144E-011
   20.9950000000000        -3.341606827057654E-011
   21.1850000000000        -3.362454001491353E-011
   21.3750000000000        -3.382092256211134E-011
   21.5650000000000        -3.400893278806173E-011
   21.7550000000000        -3.420096047475635E-011
   21.9450000000000        -3.440730175752418E-011
   22.1350000000000        -3.464678031390615E-011
   22.3250000000000        -3.494702034825948E-011
   22.5150000000000        -3.532257783894668E-011
   22.7050000000000        -3.577416294090185E-011
   22.8950000000000        -3.629563457365384E-011
   23.0850000000000        -3.687471040962358E-011
   23.2750000000000        -3.749685699397926E-011
   23.4650000000000        -3.815221942333343E-011
   23.6550000000000        -3.884501169176691E-011
   23.8450000000000        -3.957018861831891E-011
   24.0350000000000        -4.031692904007479E-011
   24.2250000000000        -4.107244108710225E-011
   24.4150000000000        -4.182064021176729E-011
   24.6050000000000        -4.254206789282927E-011
   24.7950000000000        -4.323516837480773E-011
   24.9850000000000        -4.388934418274035E-011
   25.1750000000000        -4.449902108187752E-011
   25.3650000000000        -4.505753114573762E-011
   25.5550000000000        -4.555648458402618E-011
   25.7450000000000        -4.599187369609388E-011
   25.9350000000000        -4.636007439505795E-011
   26.1250000000000        -4.668105543132862E-011
   26.3150000000000        -4.696743446018021E-011
   26.5050000000000        -4.722808942691752E-011
   26.6950000000000        -4.747193762680101E-011
   26.8850000000000        -4.770929437842290E-011
   27.0750000000000        -4.795150987843544E-011
   27.2650000000000        -4.821576600946926E-011
   27.4550000000000        -4.851072917648662E-011
   27.6450000000000        -4.883274100006573E-011
   27.8350000000000        -4.917199328255901E-011
   28.0250000000000        -4.951588110552648E-011
   28.2150000000000        -4.985782930704250E-011
   28.4050000000000        -5.018296344441133E-011
   28.5950000000000        -5.045712973579674E-011
   28.7850000000000        -5.065119836240155E-011
   28.9750000000000        -5.075006038511869E-011
   29.1650000000000        -5.074377395084893E-011
   29.3550000000000        -5.065677756653742E-011
   29.5450000000000        -5.050778845054872E-011
   29.7350000000000        -5.027218765741713E-011
   29.9250000000000        -4.994047306057586E-011
   30.1150000000000        -4.951329160451717E-011
   30.3050000000000        -4.900478652911977E-011
   30.4950000000000        -4.847362247152605E-011
   30.6850000000000        -4.795264747205991E-011
   30.8750000000000        -4.744535071727093E-011
   31.0650000000000        -4.700760300474660E-011
   31.2550000000000        -4.665023441078672E-011
   31.4450000000000        -4.635856944946094E-011
   31.6350000000000        -4.617115512540155E-011
   31.8250000000000        -4.610028995162551E-011
   32.0150000000000        -4.616660585038864E-011
   32.2050000000000        -4.638740888880945E-011
   32.3950000000000        -4.672255542567685E-011
   32.5850000000000        -4.711571829451532E-011
   32.7750000000000        -4.753370373757052E-011
   32.9650000000000        -4.797964148719367E-011
   33.1550000000000        -4.844700194799573E-011
   33.3450000000000        -4.892183839166361E-011
   33.5350000000000        -4.939786977539846E-011
   33.7250000000000        -4.984760438336672E-011
   33.9150000000000        -5.023486908373353E-011
   34.1050000000000        -5.054070087813140E-011
   34.2950000000000        -5.077225512774226E-011
   34.4850000000000        -5.095088645969248E-011
   34.6750000000000        -5.108873890949274E-011
   34.8650000000000        -5.119573601014389E-011
   35.0550000000000        -5.129382504137748E-011
   35.2450000000000        -5.140983954058487E-011
   35.4350000000000        -5.156994057909721E-011
   35.6250000000000        -5.178167296963926E-011
   35.8150000000000        -5.204211328449705E-011
   36.0050000000000        -5.234191019119756E-011
   36.1950000000000        -5.267141040000051E-011
   36.3850000000000        -5.302329693898809E-011
   36.5750000000000        -5.338626624058925E-011
   36.7650000000000        -5.375629990817268E-011
   36.9550000000000        -5.413024231653021E-011
   37.1450000000000        -5.449934344056849E-011
   37.3350000000000        -5.485797335450063E-011
   37.5250000000000        -5.520590142439343E-011
   37.7150000000000        -5.554261345535164E-011
   37.9050000000000        -5.586968644217510E-011
   38.0950000000000        -5.619278871641295E-011
   38.2850000000000        -5.652709527859159E-011
   38.4750000000000        -5.691676065609880E-011
   38.6650000000000        -5.738966370777894E-011
   38.8550000000000        -5.793199497413585E-011
   39.0450000000000        -5.855119987703494E-011
   39.2350000000000        -5.926692679942678E-011
   39.4250000000000        -6.008931037470513E-011
   39.6150000000000        -6.101880601278755E-011
   39.8050000000000        -6.202248132630401E-011
   39.9950000000000        -6.304299861891875E-011
   40.1850000000000        -6.407608577421302E-011
   40.3750000000000        -6.513242935760776E-011
   40.5650000000000        -6.619615107871094E-011
   40.7550000000000        -6.725782407818848E-011
   40.9450000000000        -6.828751664254996E-011
   41.1350000000000        -6.924720887114212E-011
   41.3250000000000        -7.009729781420686E-011
   41.5150000000000        -7.083007123108818E-011
   41.7050000000000        -7.146693314883658E-011
   41.8950000000000        -7.200663058206753E-011
   42.0850000000000        -7.244156511221059E-011
   42.2750000000000        -7.277544340677521E-011
   42.4650000000000        -7.301760339352672E-011
   42.6550000000000        -7.318008595607916E-011
   42.8450000000000        -7.326917035504820E-011
   43.0350000000000        -7.329850157690862E-011
   43.2250000000000        -7.328694395220113E-011
   43.4150000000000        -7.322731857404186E-011
   43.6050000000000        -7.312905761989899E-011
   43.7950000000000        -7.301689585648737E-011
   43.9850000000000        -7.289160263696915E-011
   44.1750000000000        -7.275293752220727E-011
   44.3650000000000        -7.261648412718714E-011
   44.5550000000000        -7.252504880760495E-011
   44.7450000000000        -7.254230732166431E-011
   44.9350000000000        -7.270737788115154E-011
   45.1250000000000        -7.300874413881873E-011
   45.3150000000000        -7.341849726974456E-011
   45.5050000000000        -7.392103277477111E-011
   45.6950000000000        -7.450749356329255E-011
   45.8850000000000        -7.515186474521369E-011
   46.0750000000000        -7.580623279748103E-011
   46.2650000000000        -7.646275984953168E-011
   46.4550000000000        -7.713020147732703E-011
   46.6450000000000        -7.778701301240715E-011
   46.8350000000000        -7.838325895346506E-011
   47.0250000000000        -7.887138490092814E-011
   47.2150000000000        -7.923838257047620E-011
   47.4050000000000        -7.949480440141459E-011
   47.5950000000000        -7.965765301743225E-011
   47.7850000000000        -7.973174499048624E-011
   47.9750000000000        -7.972864971014917E-011
   48.1650000000000        -7.966395207252024E-011
   48.3550000000000        -7.954880311994314E-011
   48.5450000000000        -7.940514658729293E-011
   48.7350000000000        -7.923789412992143E-011
   48.9250000000000        -7.904638868490072E-011
   49.1150000000000        -7.885299753638545E-011
   49.3050000000000        -7.868008783893131E-011
   49.4950000000000        -7.858795150592091E-011
   49.6850000000000        -7.861787655385387E-011
   49.8750000000000        -7.877231485011967E-011
   50.0650000000000        -7.904271603354072E-011
   50.2550000000000        -7.941416498704804E-011
   50.4450000000000        -7.988345854467576E-011
   50.6350000000000        -8.039707845561206E-011
   50.8250000000000        -8.096292539259355E-011
   51.0150000000000        -8.158605495557364E-011
   51.2050000000000        -8.221814244171317E-011
   51.3950000000000        -8.286749872729014E-011
   51.5850000000000        -8.349478800649647E-011
   51.7750000000000        -8.402963655197768E-011
   51.9650000000000        -8.444904523748115E-011
   52.1550000000000        -8.475623262541338E-011
   52.3450000000000        -8.497868652007268E-011
   52.5350000000000        -8.514937247371853E-011
   52.7250000000000        -8.528225486600690E-011
   52.9150000000000        -8.538806826135134E-011
   53.1050000000000        -8.547568010330432E-011
   53.2950000000000        -8.556585444162171E-011
   53.4850000000000        -8.568470724026680E-011
   53.6750000000000        -8.586677950757292E-011
   53.8650000000000        -8.612426520690166E-011
   54.0550000000000        -8.644665236820306E-011
   54.2450000000000        -8.683535273822101E-011
   54.4350000000000        -8.729041685456953E-011
   54.6250000000000        -8.780416643656760E-011
   54.8150000000000        -8.837329519803735E-011
   55.0050000000000        -8.898858880002526E-011
   55.1950000000000        -8.963032093060663E-011
   55.3850000000000        -9.029764136230664E-011
   55.5750000000000        -9.098442739388162E-011
   55.7650000000000        -9.167016936686420E-011
   55.9550000000000        -9.233773409196584E-011
   56.1450000000000        -9.296163467532963E-011
   56.3350000000000        -9.349613435604221E-011
   56.5250000000000        -9.393697267817514E-011
   56.7150000000000        -9.430435034659115E-011
   56.9050000000000        -9.459779163086634E-011
   57.0950000000000        -9.483960676908054E-011
   57.2850000000000        -9.506971760347432E-011
   57.4750000000000        -9.527739330239037E-011
   57.6650000000000        -9.544513834066697E-011
   57.8550000000000        -9.558893889282740E-011
   58.0450000000000        -9.571601336533946E-011
   58.2350000000000        -9.583419775938999E-011
   58.4250000000000        -9.595073114623493E-011
   58.6150000000000        -9.607393912204745E-011
   58.8050000000000        -9.620920925293078E-011
   58.9950000000000        -9.636169623666340E-011
   59.1850000000000        -9.653339097621793E-011
   59.3750000000000        -9.672226653956661E-011
   59.5650000000000        -9.692585460805240E-011
   59.7550000000000        -9.714191061232218E-011
   59.9450000000000        -9.736852077299146E-011
   60.1350000000000        -9.760226383843561E-011
   60.3250000000000        -9.783690100566634E-011
   60.5150000000000        -9.805777435550943E-011
   60.7050000000000        -9.824666609298806E-011
   60.8950000000000        -9.839463828323448E-011
   61.0850000000000        -9.850942565315581E-011
   61.2750000000000        -9.860820121003926E-011
   61.4650000000000        -9.868306785094443E-011
   61.6550000000000        -9.873045882459184E-011
   61.8450000000000        -9.875265007646738E-011
   62.0350000000000        -9.874448173477750E-011
   62.2250000000000        -9.871279090871426E-011
   62.4150000000000        -9.866260393371330E-011
   62.6050000000000        -9.859797873794730E-011
   62.7950000000000        -9.852177801730025E-011
   62.9850000000000        -9.843767993798012E-011
   63.1750000000000        -9.834996283000523E-011
   63.3650000000000        -9.826406496463637E-011
   63.5550000000000        -9.819137626844640E-011
   63.7450000000000        -9.814536456246793E-011
   63.9350000000000        -9.813435220084579E-011
   64.1250000000000        -9.816312443524351E-011
   64.3150000000000        -9.823183963871630E-011
   64.5050000000000        -9.833710206086311E-011
   64.6950000000000        -9.848453835819539E-011
   64.8850000000000        -9.866005476077956E-011
   65.0750000000000        -9.885763240727759E-011
   65.2650000000000        -9.908437307357467E-011
   65.4550000000000        -9.932330082775127E-011
   65.6450000000000        -9.956711307449504E-011
   65.8350000000000        -9.981508542873674E-011
   66.0250000000000        -1.000662443750202E-010
   66.2150000000000        -1.003199841912486E-010
   66.4050000000000        -1.005745983462849E-010
   66.5950000000000        -1.008325101270501E-010
   66.7850000000000        -1.010948801331680E-010
   66.9750000000000        -1.013582259193397E-010
   67.1650000000000        -1.016205895420442E-010
   67.3550000000000        -1.018807807354548E-010
   67.5450000000000        -1.021371672160443E-010
   67.7350000000000        -1.023877092899714E-010
   67.9250000000000        -1.026299523453755E-010
   68.1150000000000        -1.028622257994343E-010
   68.3050000000000        -1.030888001283521E-010
   68.4950000000000        -1.033190038514291E-010
   68.6850000000000        -1.035643638277322E-010
   68.8750000000000        -1.038357511541360E-010
   69.0650000000000        -1.041389336967365E-010
   69.2550000000000        -1.044755858375820E-010
   69.4450000000000        -1.048445265553580E-010
   69.6350000000000        -1.052404629546853E-010
   69.8250000000000        -1.056577629248654E-010
   70.0150000000000        -1.060948626350484E-010
   70.2050000000000        -1.065517596699018E-010
   70.3950000000000        -1.070307528089249E-010
   70.5850000000000        -1.075363151137883E-010
   70.7750000000000        -1.080731107478572E-010
   70.9650000000000        -1.086481884217747E-010
   71.1550000000000        -1.092859438539828E-010
   71.3450000000000        -1.099751806354967E-010
   71.5350000000000        -1.107122198405288E-010
   71.7250000000000        -1.114946597216727E-010
   71.9150000000000        -1.123001000652087E-010
   72.1050000000000        -1.131287344751603E-010
   72.2950000000000        -1.139699184834113E-010
   72.4850000000000        -1.148168441246901E-010
   72.6750000000000        -1.156649866013926E-010
   72.8650000000000        -1.165111374739963E-010
   73.0550000000000        -1.173470976386202E-010
   73.2450000000000        -1.181593663178644E-010
   73.4350000000000        -1.189320206392437E-010
   73.6250000000000        -1.196428296794014E-010
   73.8150000000000        -1.202721201907344E-010
   74.0050000000000        -1.208091536270326E-010
   74.1950000000000        -1.212609136265651E-010
   74.3850000000000        -1.216370564649321E-010
   74.5750000000000        -1.219405390435108E-010
   74.7650000000000        -1.221791459843701E-010
   74.9550000000000        -1.223674129981759E-010
   75.1450000000000        -1.225230050570645E-010
   75.3350000000000        -1.226628968975700E-010
   75.5250000000000        -1.227867327080944E-010
   75.7150000000000        -1.228916801354052E-010
   75.9050000000000        -1.229882800962500E-010
   76.0950000000000        -1.230864495059618E-010
   76.2850000000000        -1.232050006128977E-010
   76.4750000000000        -1.233582238115894E-010
   76.6650000000000        -1.235450927291325E-010
   76.8550000000000        -1.237535293860714E-010
   77.0450000000000        -1.239686451437051E-010
   77.2350000000000        -1.241683138130647E-010
   77.4250000000000        -1.243167801464277E-010
   77.6150000000000        -1.243734172179921E-010
   77.8050000000000        -1.243275873267040E-010
   77.9950000000000        -1.241931343464845E-010
   78.1850000000000        -1.239791025544109E-010
   78.3750000000000        -1.236969516919603E-010
   78.5650000000000        -1.233722424805752E-010
   78.7550000000000        -1.230219844990748E-010
   78.9450000000000        -1.226555398573694E-010
   79.1350000000000        -1.222865584352465E-010
   79.3250000000000        -1.219205589503672E-010
   79.5150000000000        -1.215606498139173E-010
   79.7050000000000        -1.212213460064499E-010
   79.8950000000000        -1.209405147680298E-010
   80.0850000000000        -1.207671721553111E-010
   80.2750000000000        -1.207266288316845E-010
   80.4650000000000        -1.208123395199412E-010
   80.6550000000000        -1.210146444300815E-010
   80.8450000000000        -1.213313837424392E-010
   81.0350000000000        -1.217611731279649E-010
   81.2250000000000        -1.222884307808181E-010
   81.4150000000000        -1.229005956264396E-010
   81.6050000000000        -1.235901576293977E-010
   81.7950000000000        -1.243101107909733E-010
   81.9850000000000        -1.250556701769565E-010
   82.1750000000000        -1.258413772930110E-010
   82.3650000000000        -1.266428036485811E-010
   82.5550000000000        -1.274201434881811E-010
   82.7450000000000        -1.281145885644400E-010
   82.9350000000000        -1.287105779016373E-010
   83.1250000000000        -1.292220653405550E-010
   83.3150000000000        -1.296681639501957E-010
   83.5050000000000        -1.300632297478903E-010
   83.6950000000000        -1.304265671759883E-010
   83.8850000000000        -1.307445743680421E-010
   84.0750000000000        -1.310214799338758E-010
   84.2650000000000        -1.312975229019785E-010
   84.4550000000000        -1.315738351031593E-010
   84.6450000000000        -1.318470089032035E-010
   84.8350000000000        -1.321158309522559E-010
   85.0250000000000        -1.323784919157564E-010
   85.2150000000000        -1.326340795402000E-010
   85.4050000000000        -1.328878886878984E-010
   85.5950000000000        -1.331624932657854E-010
   85.7850000000000        -1.334739572942923E-010
   85.9750000000000        -1.338179020669056E-010
   86.1650000000000        -1.341904211410751E-010
   86.3550000000000        -1.345877806576625E-010
   86.5450000000000        -1.350079741435109E-010
   86.7350000000000        -1.354499291606816E-010
   86.9250000000000        -1.359076408133411E-010
   87.1150000000000        -1.363765496969338E-010
   87.3050000000000        -1.368550244664641E-010
   87.4950000000000        -1.373441160821900E-010
   87.6850000000000        -1.378365229539936E-010
   87.8750000000000        -1.383271162137103E-010
   88.0650000000000        -1.388179141874197E-010
   88.2550000000000        -1.393074242780023E-010
   88.4450000000000        -1.397955316756048E-010
   88.6350000000000        -1.402820855727745E-010
   88.8250000000000        -1.407722635065553E-010
   89.0150000000000        -1.412742272578029E-010
   89.2050000000000        -1.417817974681867E-010
   89.3950000000000        -1.422606622892686E-010
   89.5850000000000        -1.426953446693996E-010
   89.7750000000000        -1.430994685076612E-010
   89.9650000000000        -1.434807170887917E-010
   90.1550000000000        -1.438432867660288E-010
   90.3450000000000        -1.441944802274862E-010
   90.5350000000000        -1.445334442188385E-010
   90.7250000000000        -1.448522125279223E-010
   90.9150000000000        -1.451473338353847E-010
   91.1050000000000        -1.454182752861093E-010
   91.2950000000000        -1.456671198214496E-010
   91.4850000000000        -1.458889818455063E-010
   91.6750000000000        -1.460767758368529E-010
   91.8650000000000        -1.462282427568660E-010
   92.0550000000000        -1.463460577295938E-010
   92.2450000000000        -1.464352408237512E-010
   92.4350000000000        -1.465001054608574E-010
   92.6250000000000        -1.465379045339695E-010
   92.8150000000000        -1.465441526056582E-010
   93.0050000000000        -1.465164301034497E-010
   93.1950000000000        -1.464548763961982E-010
   93.3850000000000        -1.463846325311241E-010
   93.5750000000000        -1.463437381343008E-010
   93.7650000000000        -1.463551161182083E-010
   93.9550000000000        -1.464200378840652E-010
   94.1450000000000        -1.465426986055742E-010
   94.3350000000000        -1.467319386212440E-010
   94.5250000000000        -1.469747258035566E-010
   94.7150000000000        -1.472607230925759E-010
   94.9050000000000        -1.475871532650117E-010
   95.0950000000000        -1.479300549325597E-010
   95.2850000000000        -1.482818089872063E-010
   95.4750000000000        -1.486441157617105E-010
   95.6650000000000        -1.490083903625706E-010
   95.8550000000000        -1.493770099102684E-010
   96.0450000000000        -1.497496374715794E-010
   96.2350000000000        -1.501194499802665E-010
   96.4250000000000        -1.504751237978040E-010
   96.6150000000000        -1.508071361541348E-010
   96.8050000000000        -1.511082535865335E-010
   96.9950000000000        -1.513759414102218E-010
   97.1850000000000        -1.516149536263368E-010
   97.3750000000000        -1.518349289354566E-010
   97.5650000000000        -1.520495018814771E-010
   97.7550000000000        -1.522707139434839E-010
   97.9450000000000        -1.525100230844300E-010
   98.1350000000000        -1.527782636494121E-010
   98.3250000000000        -1.530772698811637E-010
   98.5150000000000        -1.534021402112110E-010
   98.7050000000000        -1.537446801422804E-010
   98.8950000000000        -1.540939516338142E-010
   99.0850000000000        -1.544357193637095E-010
   99.2750000000000        -1.547472593702445E-010
   99.4650000000000        -1.549989252088264E-010
   99.6550000000000        -1.551705456457707E-010
   99.8450000000000        -1.552560327185464E-010
   100.035000000000        -1.552503365680758E-010
   100.225000000000        -1.551456560615786E-010
   100.415000000000        -1.549430187523252E-010
   100.605000000000        -1.546471057025244E-010
   100.795000000000        -1.542674276656056E-010
   100.985000000000        -1.538204652176624E-010
   101.175000000000        -1.533376398920310E-010
   101.365000000000        -1.528249525759591E-010
   101.555000000000        -1.522822081023023E-010
   101.745000000000        -1.517308043547944E-010
   101.935000000000        -1.512112260335852E-010
   102.125000000000        -1.508133712187924E-010
   102.315000000000        -1.506011572774288E-010
   102.505000000000        -1.505640324617553E-010
   102.695000000000        -1.506741002769306E-010
   102.885000000000        -1.509187490113479E-010
   103.075000000000        -1.512825763216925E-010
   103.265000000000        -1.517437377241600E-010
   103.455000000000        -1.522618332958890E-010
   103.645000000000        -1.528016788175698E-010
   103.835000000000        -1.533555537135710E-010
   104.025000000000        -1.539296682551073E-010
   104.215000000000        -1.545265721549041E-010
   104.405000000000        -1.551400461926777E-010
   104.595000000000        -1.557628348289475E-010
   104.785000000000        -1.563815423532938E-010
   104.975000000000        -1.569782400308183E-010
   105.165000000000        -1.575395504583472E-010
   105.355000000000        -1.580619936574808E-010
   105.545000000000        -1.585483190852385E-010
   105.735000000000        -1.590024697708318E-010
   105.925000000000        -1.594297742084347E-010
   106.115000000000        -1.598384252773545E-010
   106.305000000000        -1.602305464962831E-010
   106.495000000000        -1.606090651005914E-010
   106.685000000000        -1.609711196097917E-010
   106.875000000000        -1.613135791288658E-010
   107.065000000000        -1.616370651779196E-010
   107.255000000000        -1.619361798950559E-010
   107.445000000000        -1.622125537179438E-010
   107.635000000000        -1.624707090748368E-010
   107.825000000000        -1.627163160597258E-010
   108.015000000000        -1.629558097743431E-010
   108.205000000000        -1.631944838721296E-010
   108.395000000000        -1.634348570712893E-010
   108.585000000000        -1.636771185287124E-010
   108.775000000000        -1.639173688743012E-010
   108.965000000000        -1.641498477613508E-010
   109.155000000000        -1.643748484473099E-010
   109.345000000000        -1.645919528255066E-010
   109.535000000000        -1.648013271963038E-010
   109.725000000000        -1.650066544590387E-010
   109.915000000000        -1.652099889270718E-010
   110.105000000000        -1.654140391371274E-010