  -1.42500000000000         0.000000000000000E+000
  -1.23500000000000         1.839789251517991E-020
  -1.04500000000000         1.155886961756549E-019
 -0.855000000000000         6.621990693359307E-019
 -0.665000000000000         3.329996187192430E-018
 -0.475000000000000         1.401467715772146E-017
 -0.285000000000000         5.043035282756439E-017
 -9.499999999999975E-002    1.573853512216195E-016
  9.500000000000020E-002    4.363054645247120E-016
  0.285000000000000         1.077935801746218E-015
  0.475000000000000         2.391345321542537E-015
  0.665000000000000         4.814812111199663E-015
  0.855000000000000         8.912995697876084E-015
   1.04500000000000         1.531056204426240E-014
   1.23500000000000         2.463495320478141E-014
   1.42500000000000         3.748329132093116E-014
   1.61500000000000         5.417967631674939E-014
   1.80500000000000         7.536609331315080E-014
   1.99500000000000         1.017362789880434E-013
   2.18500000000000         1.339125689714278E-013
   2.37500000000000         1.725151523714922E-013
   2.56500000000000         2.181183947624080E-013
   2.75500000000000         2.711917621458460E-013
   2.94500000000000         3.321009748302809E-013
   3.13500000000000         4.011001087084548E-013
   3.32500000000000         4.783093757331412E-013
   3.51500000000000         5.637571045265088E-013
   3.70500000000000         6.574734553110639E-013
   3.89500000000000         7.594432270503312E-013
   4.08500000000000         8.696339339507522E-013
   4.27500000000000         9.880092687527052E-013
   4.46500000000000         1.114514579105390E-012
   4.65500000000000         1.249037112478855E-012
   4.84500000000000         1.391383687792788E-012
   5.03500000000000         1.541281971619663E-012
   5.22500000000000         1.698454846707959E-012
   5.41500000000000         1.862850473815116E-012
   5.60500000000000         2.034261153552033E-012
   5.79500000000000         2.212594926034728E-012
   5.98500000000000         2.397869507032265E-012
   6.17500000000000         2.590244021481770E-012
   6.36500000000000         2.790019256667712E-012
   6.55500000000000         2.997664206055961E-012
   6.74500000000000         3.213616998433972E-012
   6.93500000000000         3.438332564031446E-012
   7.12500000000000         3.672334242649219E-012
   7.31500000000000         3.916256164277236E-012
   7.50500000000000         4.170468424995043E-012
   7.69500000000000         4.435178292853737E-012
   7.88500000000000         4.710410748056676E-012
   8.07500000000000         4.996031853077193E-012
   8.26500000000000         5.291741689618399E-012
   8.45500000000000         5.597302089793984E-012
   8.64500000000000         5.912297163034418E-012
   8.83500000000000         6.236159606408851E-012
   9.02500000000000         6.568271094844588E-012
   9.21500000000000         6.907440760740882E-012
   9.40500000000000         7.252145683221125E-012
   9.59500000000000         7.601024066815717E-012
   9.78500000000000         7.953009109423999E-012
   9.97500000000000         8.307453183750095E-012
   10.1650000000000         8.663766560650704E-012
   10.3550000000000         9.021584321223626E-012
   10.5450000000000         9.380701242374062E-012
   10.7350000000000         9.740993844737892E-012
   10.9250000000000         1.010245381312320E-011
   11.1150000000000         1.046507894189084E-011
   11.3050000000000         1.082887336288074E-011
   11.4950000000000         1.119389808635407E-011
   11.6850000000000         1.156040573423664E-011
   11.8750000000000         1.192888586937388E-011
   12.0650000000000         1.229994694159907E-011
   12.2550000000000         1.267420656112017E-011
   12.4450000000000         1.305223428698238E-011
   12.6350000000000         1.343465716643795E-011
   12.8250000000000         1.382160758272488E-011
   13.0150000000000         1.421350833656748E-011
   13.2050000000000         1.461064637413335E-011
   13.3950000000000         1.501320971934578E-011
   13.5850000000000         1.542132383180502E-011
   13.7750000000000         1.583500748677414E-011
   13.9650000000000         1.625423393393679E-011
   14.1550000000000         1.667899006525785E-011
   14.3450000000000         1.710928227442467E-011
   14.5350000000000         1.754515167968431E-011
   14.7250000000000         1.798666532728209E-011
   14.9150000000000         1.843398006533857E-011
   15.1050000000000         1.888754454288997E-011
   15.2950000000000         1.934821318789804E-011
   15.4850000000000         1.981694622329488E-011
   15.6750000000000         2.029470095173742E-011
   15.8650000000000         2.078216000189751E-011
   16.0550000000000         2.127994638219253E-011
   16.2450000000000         2.178859608186738E-011
   16.4350000000000         2.230841256480701E-011
   16.6250000000000         2.283951340147607E-011
   16.8150000000000         2.338187430762986E-011
   17.0050000000000         2.393534902391260E-011
   17.1950000000000         2.449988673404338E-011
   17.3850000000000         2.507524471447935E-011
   17.5750000000000         2.566130636744046E-011
   17.7650000000000         2.625762511263114E-011
   17.9550000000000         2.686403393129789E-011
   18.1450000000000         2.748028631452283E-011
   18.3350000000000         2.810618923487060E-011
   18.5250000000000         2.874154482277363E-011
   18.7150000000000         2.938609023570471E-011
   18.9050000000000         3.003925581343095E-011
   19.0950000000000         3.070027063518368E-011
   19.2850000000000         3.136838434719835E-011
   19.4750000000000         3.204299789254650E-011
   19.6650000000000         3.272367603120540E-011
   19.8550000000000         3.341008058948660E-011
   20.0450000000000         3.410187129808260E-011
   20.2350000000000         3.479868374196102E-011
   20.4250000000000         3.550012754949781E-011
   20.6150000000000         3.620576631762098E-011
   20.8050000000000         3.691506034902134E-011
   20.9950000000000         3.762742427078548E-011
   21.1850000000000         3.834226631231406E-011
   21.3750000000000         3.905942546257220E-011
   21.5650000000000         3.977817840260469E-011
   21.7550000000000         4.049832558830481E-011
   21.9450000000000         4.121953334288109E-011
   22.1350000000000         4.194136669875859E-011
   22.3250000000000         4.266346704817842E-011
   22.5150000000000         4.338587395278904E-011
   22.7050000000000         4.410909341841151E-011
   22.8950000000000         4.483393518133056E-011
   23.0850000000000         4.556139356552792E-011
   23.2750000000000         4.629252716401642E-011
   23.4650000000000         4.702837369217386E-011
   23.6550000000000         4.776985083535524E-011
   23.8450000000000         4.851815049221054E-011
   24.0350000000000         4.927445952794100E-011
   24.2250000000000         5.003976450320278E-011
   24.4150000000000         5.081492255629233E-011
   24.6050000000000         5.160062028272245E-011
   24.7950000000000         5.239741775936578E-011
   24.9850000000000         5.320550019579416E-011
   25.1750000000000         5.402487423035376E-011
   25.3650000000000         5.485541350939950E-011
   25.5550000000000         5.569677630598803E-011
   25.7450000000000         5.654861771904336E-011
   25.9350000000000         5.741032791217845E-011
   26.1250000000000         5.828133148968019E-011
   26.3150000000000         5.916122575634279E-011
   26.5050000000000         6.004970524722419E-011
   26.6950000000000         6.094645335282225E-011
   26.8850000000000         6.185122652771605E-011
   27.0750000000000         6.276383716067849E-011
   27.2650000000000         6.368416028198576E-011
   27.4550000000000         6.461223255644933E-011
   27.6450000000000         6.554823928418835E-011
   27.8350000000000         6.649242958762349E-011
   28.0250000000000         6.744485649729800E-011
   28.2150000000000         6.840583836867895E-011
   28.4050000000000         6.937560093719203E-011
   28.5950000000000         7.035429444949964E-011
   28.7850000000000         7.134189253760235E-011
   28.9750000000000         7.233807915762485E-011
   29.1650000000000         7.334216616638437E-011
   29.3550000000000         7.435321312311168E-011
   29.5450000000000         7.537000798442680E-011
   29.7350000000000         7.639133963843494E-011
   29.9250000000000         7.741596715225359E-011
   30.1150000000000         7.844268145296876E-011
   30.3050000000000         7.947034522298220E-011
   30.4950000000000         8.049813187297084E-011
   30.6850000000000         8.152568849116343E-011
   30.8750000000000         8.255263864759177E-011
   31.0650000000000         8.357845976156904E-011
   31.2550000000000         8.460265247320069E-011
   31.4450000000000         8.562527027148898E-011
   31.6350000000000         8.664663576483381E-011
   31.8250000000000         8.766720046116885E-011
   32.0150000000000         8.868758481230504E-011
   32.2050000000000         8.970845206437646E-011
   32.3950000000000         9.073046647022489E-011
   32.5850000000000         9.175428100588563E-011
   32.7750000000000         9.278045214569916E-011
   32.9650000000000         9.380945186081322E-011
   33.1550000000000         9.484175918016581E-011
   33.3450000000000         9.587759002085786E-011
   33.5350000000000         9.691727350905089E-011
   33.7250000000000         9.796134886655134E-011
   33.9150000000000         9.901057752384832E-011
   34.1050000000000         1.000658605666494E-010
   34.2950000000000         1.011280350092811E-010
   34.4850000000000         1.021977401125140E-010
   34.6750000000000         1.032753435382248E-010
   34.8650000000000         1.043611986549586E-010
   35.0550000000000         1.054556433732699E-010
   35.2450000000000         1.065589741959659E-010
   35.4350000000000         1.076714789617621E-010
   35.6250000000000         1.087933391566813E-010
   35.8150000000000         1.099245960435941E-010
   36.0050000000000         1.110651640092770E-010
   36.1950000000000         1.122148757190569E-010
   36.3850000000000         1.133734756040644E-010
   36.5750000000000         1.145408831667466E-010
   36.7650000000000         1.157168853652042E-010
   36.9550000000000         1.169013708930970E-010
   37.1450000000000         1.180940736462306E-010
   37.3350000000000         1.192947027112579E-010
   37.5250000000000         1.205030251477080E-010
   37.7150000000000         1.217188745665232E-010
   37.9050000000000         1.229421219343721E-010
   38.0950000000000         1.241726763857078E-010
   38.2850000000000         1.254104957365043E-010
   38.4750000000000         1.266555189346782E-010
   38.6650000000000         1.279076588292166E-010
   38.8550000000000         1.291667961145087E-010
   39.0450000000000         1.304328196133396E-010
   39.2350000000000         1.317055739849043E-010
   39.4250000000000         1.329848503484515E-010
   39.6150000000000         1.342703041285980E-010
   39.8050000000000         1.355615751748978E-010
   39.9950000000000         1.368582011776602E-010
   40.1850000000000         1.381599694125842E-010
   40.3750000000000         1.394664005606169E-010
   40.5650000000000         1.407773955699210E-010
   40.7550000000000         1.420927647078751E-010
   40.9450000000000         1.434120903342368E-010
   41.1350000000000         1.447343804650953E-010
   41.3250000000000         1.460583883455790E-010
   41.5150000000000         1.473830304729766E-010
   41.7050000000000         1.487077239319124E-010
   41.8950000000000         1.500322437326449E-010
   42.0850000000000         1.513566053342809E-010
   42.2750000000000         1.526810456936700E-010
   42.4650000000000         1.540059783999859E-010
   42.6550000000000         1.553319971237484E-010
   42.8450000000000         1.566597442229552E-010
   43.0350000000000         1.579900407857336E-010
   43.2250000000000         1.593236344722506E-010
   43.4150000000000         1.606611656311523E-010
   43.6050000000000         1.620035514804735E-010
   43.7950000000000         1.633510987425404E-010
   43.9850000000000         1.647041425459663E-010
   44.1750000000000         1.660630069035321E-010
   44.3650000000000         1.674281534761671E-010
   44.5550000000000         1.688002144121548E-010
   44.7450000000000         1.701798432977780E-010
   44.9350000000000         1.715673812969672E-010
   45.1250000000000         1.729627704342385E-010
   45.3150000000000         1.743657338770522E-010
   45.5050000000000         1.757759486024899E-010
   45.6950000000000         1.771931355968753E-010
   45.8850000000000         1.786171220047346E-010
   46.0750000000000         1.800477991064838E-010
   46.2650000000000         1.814851503839300E-010
   46.4550000000000         1.829291305888496E-010
   46.6450000000000         1.843797069524169E-010
   46.8350000000000         1.858368630079571E-010
   47.0250000000000         1.873007317073497E-010
   47.2150000000000         1.887715809841504E-010
   47.4050000000000         1.902496626101887E-010
   47.5950000000000         1.917350734790588E-010
   47.7850000000000         1.932277727905231E-010
   47.9750000000000         1.947276251784514E-010
   48.1650000000000         1.962343735305435E-010
   48.3550000000000         1.977477592252933E-010
   48.5450000000000         1.992674158985071E-010
   48.7350000000000         2.007930540351972E-010
   48.9250000000000         2.023242738762922E-010
   49.1150000000000         2.038607782844842E-010
   49.3050000000000         2.054022852918144E-010
   49.4950000000000         2.069482565536039E-010
   49.6850000000000         2.084981717245328E-010
   49.8750000000000         2.100519474576394E-010
   50.0650000000000         2.116098481416687E-010
   50.2550000000000         2.131722751843654E-010
   50.4450000000000         2.147397750314246E-010
   50.6350000000000         2.163129008377397E-010
   50.8250000000000         2.178919000187298E-010
   51.0150000000000         2.194773722509178E-010
   51.2050000000000         2.210694467947569E-010
   51.3950000000000         2.226682638650086E-010
   51.5850000000000         2.242739847755028E-010
   51.7750000000000         2.258865440086875E-010
   51.9650000000000         2.275051406437134E-010
   52.1550000000000         2.291285828260043E-010
   52.3450000000000         2.307555257464978E-010
   52.5350000000000         2.323846894576771E-010
   52.7250000000000         2.340147508628588E-010
   52.9150000000000         2.356446190965445E-010
   53.1050000000000         2.372736700896400E-010
   53.2950000000000         2.389010304811601E-010
   53.4850000000000         2.405261061664190E-010
   53.6750000000000         2.421484919878786E-010
   53.8650000000000         2.437682548757390E-010
   54.0550000000000         2.453859543269829E-010
   54.2450000000000         2.470025459461092E-010
   54.4350000000000         2.486192615374460E-010
   54.6250000000000         2.502375537425115E-010
   54.8150000000000         2.518588308096262E-010
   55.0050000000000         2.534845047872876E-010
   55.1950000000000         2.551158405483699E-010
   55.3850000000000         2.567537701086973E-010
   55.5750000000000         2.583994428671805E-010
   55.7650000000000         2.600535136605328E-010
   55.9550000000000         2.617165626369300E-010
   56.1450000000000         2.633892248262257E-010
   56.3350000000000         2.650719878048335E-010
   56.5250000000000         2.667647866345874E-010
   56.7150000000000         2.684672321021617E-010
   56.9050000000000         2.701787257938439E-010
   57.0950000000000         2.718985102828370E-010
   57.2850000000000         2.736258918603892E-010
   57.4750000000000         2.753603503350110E-010
   57.6650000000000         2.771012291889316E-010
   57.8550000000000         2.788479172868517E-010
   58.0450000000000         2.806000013001725E-010
   58.2350000000000         2.823573019615283E-010
   58.4250000000000         2.841196745441146E-010
   58.6150000000000         2.858869708404666E-010
   58.8050000000000         2.876591093075676E-010
   58.9950000000000         2.894360401225726E-010
   59.1850000000000         2.912177321258623E-010
   59.3750000000000         2.930041666589940E-010
   59.5650000000000         2.947953217158095E-010
   59.7550000000000         2.965911733796207E-010
   59.9450000000000         2.983917142739876E-010
   60.1350000000000         3.001969545154518E-010
   60.3250000000000         3.020069069086934E-010
   60.5150000000000         3.038214972284453E-010
   60.7050000000000         3.056404813469668E-010
   60.8950000000000         3.074635136443000E-010
   61.0850000000000         3.092900974747702E-010
   61.2750000000000         3.111198021702789E-010
   61.4650000000000         3.129521721697733E-010
   61.6550000000000         3.147867724733101E-010
   61.8450000000000         3.166231855949545E-010
   62.0350000000000         3.184609675047308E-010
   62.2250000000000         3.202997374721727E-010
   62.4150000000000         3.221391831518152E-010
   62.6050000000000         3.239788783964789E-010
   62.7950000000000         3.258184312328746E-010
   62.9850000000000         3.276576981081830E-010
   63.1750000000000         3.294964753660627E-010
   63.3650000000000         3.313344705889475E-010
   63.5550000000000         3.331712787427295E-010
   63.7450000000000         3.350064337855468E-010
   63.9350000000000         3.368395518475929E-010
   64.1250000000000         3.386704394635559E-010
   64.3150000000000         3.404990822965859E-010
   64.5050000000000         3.423256377126089E-010
   64.6950000000000         3.441503972018957E-010
   64.8850000000000         3.459739457127880E-010
   65.0750000000000         3.477966586921104E-010
   65.2650000000000         3.496192065581121E-010
   65.4550000000000         3.514424175620106E-010
   65.6450000000000         3.532671299592500E-010
   65.8350000000000         3.550942625960699E-010
   66.0250000000000         3.569248119378694E-010
   66.2150000000000         3.587596631262786E-010
   66.4050000000000         3.605995853229043E-010
   66.5950000000000         3.624453244060473E-010
   66.7850000000000         3.642971252707588E-010
   66.9750000000000         3.661555109794143E-010
   67.1650000000000         3.680207302266988E-010
   67.3550000000000         3.698930736353621E-010
   67.5450000000000         3.717728526516604E-010
   67.7350000000000         3.736603822926341E-010
   67.9250000000000         3.755558659801202E-010
   68.1150000000000         3.774592704516621E-010
   68.3050000000000         3.793703226858048E-010
   68.4950000000000         3.812885421570358E-010
   68.6850000000000         3.832133403146793E-010
   68.8750000000000         3.851441442789308E-010
   69.0650000000000         3.870804308310995E-010
   69.2550000000000         3.890217555526586E-010
   69.4450000000000         3.909677644705777E-010
   69.6350000000000         3.929182238291993E-010
   69.8250000000000         3.948730254898386E-010
   70.0150000000000         3.968321317206845E-010
   70.2050000000000         3.987955531611235E-010
   70.3950000000000         4.007633412244574E-010
   70.5850000000000         4.027355709400602E-010
   70.7750000000000         4.047122938426669E-010
   70.9650000000000         4.066935022234669E-010
   71.1550000000000         4.086790949846851E-010
   71.3450000000000         4.106687759757809E-010
   71.5350000000000         4.126623266231685E-010
   71.7250000000000         4.146592642033862E-010
   71.9150000000000         4.166594260551786E-010
   72.1050000000000         4.186624148637472E-010
   72.2950000000000         4.206681254632685E-010
   72.4850000000000         4.226764823053966E-010
   72.6750000000000         4.246874291656783E-010
   72.8650000000000         4.267009245857054E-010
   73.0550000000000         4.287166218132436E-010
   73.2450000000000         4.307339445916811E-010
   73.4350000000000         4.327520833165107E-010
   73.6250000000000         4.347699714486699E-010
   73.8150000000000         4.367865840883610E-010
   74.0050000000000         4.388012194816927E-010
   74.1950000000000         4.408134820117176E-010
   74.3850000000000         4.428232898426865E-010
   74.5750000000000         4.448307788342720E-010
   74.7650000000000         4.468362421127014E-010
   74.9550000000000         4.488401007020685E-010
   75.1450000000000         4.508427926385992E-010
   75.3350000000000         4.528447597691133E-010
   75.5250000000000         4.548461607326897E-010
   75.7150000000000         4.568477087435700E-010
   75.9050000000000         4.588495853729860E-010
   76.0950000000000         4.608520484789740E-010
   76.2850000000000         4.628556814181033E-010
   76.4750000000000         4.648616584735921E-010
   76.6650000000000         4.668712206052674E-010
   76.8550000000000         4.688853212635466E-010
   77.0450000000000         4.709044570145528E-010
   77.2350000000000         4.729290656203033E-010
   77.4250000000000         4.749597862159439E-010
   77.6150000000000         4.769973191765603E-010
   77.8050000000000         4.790420814124933E-010
   77.9950000000000         4.810940887137674E-010
   78.1850000000000         4.831531280402586E-010
   78.3750000000000         4.852188359122283E-010
   78.5650000000000         4.872907946567267E-010
   78.7550000000000         4.893686360266997E-010
   78.9450000000000         4.914518734374886E-010
   79.1350000000000         4.935402873701609E-010
   79.3250000000000         4.956335296603393E-010
   79.5150000000000         4.977313435008904E-010
   79.7050000000000         4.998333364749442E-010
   79.8950000000000         5.019389072290127E-010
   80.0850000000000         5.040473032394694E-010
   80.2750000000000         5.061578983918788E-010
   80.4650000000000         5.082703086577495E-010
   80.6550000000000         5.103842818581519E-010
   80.8450000000000         5.124996324452683E-010
   81.0350000000000         5.146161323997552E-010
   81.2250000000000         5.167335153031304E-010
   81.4150000000000         5.188514765045450E-010
   81.6050000000000         5.209697386096670E-010
   81.7950000000000         5.230879924334529E-010
   81.9850000000000         5.252060724593440E-010
   82.1750000000000         5.273238037635450E-010
   82.3650000000000         5.294411260619226E-010
   82.5550000000000         5.315579838112579E-010
   82.7450000000000         5.336741792337007E-010
   82.9350000000000         5.357894553293636E-010
   83.1250000000000         5.379035883042938E-010
   83.3150000000000         5.400163861996129E-010
   83.5050000000000         5.421276955208481E-010
   83.6950000000000         5.442373920509834E-010
   83.8850000000000         5.463454015046258E-010
   84.0750000000000         5.484517872855095E-010
   84.2650000000000         5.505565968101316E-010
   84.4550000000000         5.526599140861070E-010
   84.6450000000000         5.547618412206177E-010
   84.8350000000000         5.568624820967824E-010
   85.0250000000000         5.589619245604679E-010
   85.2150000000000         5.610603337197802E-010
   85.4050000000000         5.631580209086965E-010
   85.5950000000000         5.652554288371602E-010
   85.7850000000000         5.673530565321141E-010
   85.9750000000000         5.694513317984695E-010
   86.1650000000000         5.715506105402457E-010
   86.3550000000000         5.736512461157981E-010
   86.5450000000000         5.757536089271311E-010
   86.7350000000000         5.778581263478111E-010
   86.9250000000000         5.799652594422224E-010
   87.1150000000000         5.820754505159902E-010
   87.3050000000000         5.841891248120033E-010
   87.4950000000000         5.863067311222438E-010
   87.6850000000000         5.884287436637456E-010
   87.8750000000000         5.905556310568150E-010
   88.0650000000000         5.926877462560950E-010
   88.2550000000000         5.948254463396389E-010
   88.4450000000000         5.969689920311155E-010
   88.6350000000000         5.991186442287821E-010
   88.8250000000000         6.012746046188742E-010
   89.0150000000000         6.034370472633072E-010
   89.2050000000000         6.056059501129171E-010
   89.3950000000000         6.077809022426138E-010
   89.5850000000000         6.099610296019603E-010
   89.7750000000000         6.121451799831877E-010
   89.9650000000000         6.143325218478217E-010
   90.1550000000000         6.165222912555722E-010
   90.3450000000000         6.187137477218862E-010
   90.5350000000000         6.209063542515111E-010
   90.7250000000000         6.230996160824170E-010
   90.9150000000000         6.252931473625422E-010
   91.1050000000000         6.274866271612933E-010
   91.2950000000000         6.296798230844452E-010
   91.4850000000000         6.318725681229447E-010
   91.6750000000000         6.340647883573918E-010
   91.8650000000000         6.362565327515072E-010
   92.0550000000000         6.384479689374086E-010
   92.2450000000000         6.406393346558181E-010
   92.4350000000000         6.428308517584982E-010
   92.6250000000000         6.450227118176336E-010
   92.8150000000000         6.472151018373270E-010
   93.0050000000000         6.494081156070078E-010
   93.1950000000000         6.516017413045849E-010
   93.3850000000000         6.537957609738554E-010
   93.5750000000000         6.559896448512561E-010
   93.7650000000000         6.581824241048470E-010
   93.9550000000000         6.603731021784144E-010
   94.1450000000000         6.625608219033642E-010
   94.3350000000000         6.647448292053507E-010
   94.5250000000000         6.669245052234620E-010
   94.7150000000000         6.690993666057892E-010
   94.9050000000000         6.712690807160726E-010
   95.0950000000000         6.734333586416618E-010
   95.2850000000000         6.755920617316550E-010
   95.4750000000000         6.777451303572224E-010
   95.6650000000000         6.798925395481157E-010
   95.8550000000000         6.820345941126717E-010
   96.0450000000000         6.841714417057363E-010
   96.2350000000000         6.863033435640136E-010
   96.4250000000000         6.884307852159636E-010
   96.6150000000000         6.905546614857336E-010
   96.8050000000000         6.926760844802337E-010
   96.9950000000000         6.947962625107111E-010
   97.1850000000000         6.969162643367320E-010
   97.3750000000000         6.990369147160343E-010
   97.5650000000000         7.011586460579686E-010
   97.7550000000000         7.032819625058272E-010
   97.9450000000000         7.054073599918274E-010
   98.1350000000000         7.075353121470472E-010
   98.3250000000000         7.096662671383411E-010
   98.5150000000000         7.118005242392448E-010
   98.7050000000000         7.139382055081748E-010
   98.8950000000000         7.160792473876144E-010
   99.0850000000000         7.182234141148093E-010
   99.2750000000000         7.203703268451574E-010
   99.4650000000000         7.225193975759217E-010
   99.6550000000000         7.246697092409539E-010
   99.8450000000000         7.268204816350161E-010
   100.035000000000         7.289709268197482E-010
   100.225000000000         7.311203819308608E-010
   100.415000000000         7.332682507550851E-010
   100.605000000000         7.354140871433250E-010
   100.795000000000         7.375575215793855E-010
   100.985000000000         7.396982899820882E-010
   101.175000000000         7.418361842023125E-010
   101.365000000000         7.439711448519316E-010
   101.555000000000         7.461030361568576E-010
   101.745000000000         7.482318043414023E-010
   101.935000000000         7.503573837681491E-010
   102.125000000000         7.524797253625208E-010
   102.315000000000         7.545989188158265E-010
   102.505000000000         7.567151606926814E-010
   102.695000000000         7.588286308584992E-010
   102.885000000000         7.609394385811264E-010
   103.075000000000         7.630476492105716E-010
   103.265000000000         7.651532681713853E-010
   103.455000000000         7.672562423877686E-010
   103.645000000000         7.693564645319074E-010
   103.835000000000         7.714538012106319E-010
   104.025000000000         7.735481533189245E-010
   104.215000000000         7.756393751990073E-010
   104.405000000000         7.777274201285994E-010
   104.595000000000         7.798122400615754E-010
   104.785000000000         7.818936817225315E-010
   104.975000000000         7.839713802919280E-010
   105.165000000000         7.860447683557560E-010
   105.355000000000         7.881132444014752E-010
   105.545000000000         7.901762991712008E-010
   105.735000000000         7.922335403713628E-010
   105.925000000000         7.942847214103421E-010
   106.115000000000         7.963297717738646E-010
   106.305000000000         7.983687658095305E-010
   106.495000000000         8.004018981310813E-010
   106.685000000000         8.024293597054182E-010
   106.875000000000         8.044514656707642E-010
   107.065000000000         8.064683908484936E-010
   107.255000000000         8.084804491659050E-010
   107.445000000000         8.104880172587627E-010
   107.635000000000         8.124915415615340E-010
   107.825000000000         8.144915052200534E-010
   108.015000000000         8.164883929306566E-010
   108.205000000000         8.184826643887380E-010
   108.395000000000         8.204748439947964E-010
   108.585000000000         8.224657383092854E-010
   108.775000000000         8.244563974797186E-010
   108.965000000000         8.264476598161878E-010
   109.155000000000         8.284402451045899E-010
   109.345000000000         8.304343389764967E-010
   109.535000000000         8.324303133953868E-010
   109.725000000000         8.344282472598803E-010
   109.915000000000         8.364282109778469E-010
   110.105000000000         8.384302526755732E-010