  -1.42500000000000         0.000000000000000E+000
  -1.23500000000000        -1.134583610155585E-020
  -1.04500000000000        -2.939492289279590E-018
 -0.855000000000000        -2.974359749273983E-017
 -0.665000000000000        -1.663305052545414E-016
 -0.475000000000000        -6.395220441592807E-016
 -0.285000000000000        -2.066473441797085E-015
 -9.499999999999975E-002   -6.416751662041890E-015
  9.500000000000020E-002   -1.885443685484379E-014
  0.285000000000000        -4.673536038601328E-014
  0.475000000000000        -9.714599403793826E-014
  0.665000000000000        -1.859902429125438E-013
  0.855000000000000        -3.377547188388944E-013
   1.04500000000000        -5.626116039426631E-013
   1.23500000000000        -8.832899627763948E-013
   1.42500000000000        -1.325637543416249E-012
   1.61500000000000        -1.888930747023907E-012
   1.80500000000000        -2.584828575798863E-012
   1.99500000000000        -3.416755919952170E-012
   2.18500000000000        -4.385286005518278E-012
   2.37500000000000        -5.487540090135312E-012
   2.56500000000000        -6.718349008909682E-012
   2.75500000000000        -8.072985659480201E-012
   2.94500000000000        -9.543794986617846E-012
   3.13500000000000        -1.112442689196539E-011
   3.32500000000000        -1.280815358855316E-011
   3.51500000000000        -1.459096436468459E-011
   3.70500000000000        -1.646624371901697E-011
   3.89500000000000        -1.842965752224709E-011
   4.08500000000000        -2.047696971942302E-011
   4.27500000000000        -2.260451321928455E-011
   4.46500000000000        -2.480832074049793E-011
   4.65500000000000        -2.708391071864281E-011
   4.84500000000000        -2.942934548937982E-011
   5.03500000000000        -3.184647002784435E-011
   5.22500000000000        -3.433943882450747E-011
   5.41500000000000        -3.691051871066818E-011
   5.60500000000000        -3.955764388023560E-011
   5.79500000000000        -4.227674361389321E-011
   5.98500000000000        -4.506120741945221E-011
   6.17500000000000        -4.790100633036108E-011
   6.36500000000000        -5.078752500899453E-011
   6.55500000000000        -5.370966862237884E-011
   6.74500000000000        -5.667089688322372E-011
   6.93500000000000        -5.967582877237616E-011
   7.12500000000000        -6.273054349729855E-011
   7.31500000000000        -6.585745201794348E-011
   7.50500000000000        -6.907281258740965E-011
   7.69500000000000        -7.239585759877296E-011
   7.88500000000000        -7.584555127641882E-011
   8.07500000000000        -7.943736704384193E-011
   8.26500000000000        -8.318781991934095E-011
   8.45500000000000        -8.709771350727754E-011
   8.64500000000000        -9.117507987319737E-011
   8.83500000000000        -9.542484475524526E-011
   9.02500000000000        -9.984563854643823E-011
   9.21500000000000        -1.044200394878095E-010
   9.40500000000000        -1.091137356602750E-010
   9.59500000000000        -1.139134850800471E-010
   9.78500000000000        -1.188009833614550E-010
   9.97500000000000        -1.237391313780433E-010
   10.1650000000000        -1.287030898274936E-010
   10.3550000000000        -1.336819439288941E-010
   10.5450000000000        -1.386730504144979E-010
   10.7350000000000        -1.436671446395534E-010
   10.9250000000000        -1.486606485184282E-010
   11.1150000000000        -1.536529975141682E-010
   11.3050000000000        -1.586434931587306E-010
   11.4950000000000        -1.636325787456340E-010
   11.6850000000000        -1.686267845900650E-010
   11.8750000000000        -1.736373866222699E-010
   12.0650000000000        -1.786761533963613E-010
   12.2550000000000        -1.837540298404759E-010
   12.4450000000000        -1.888799196988374E-010
   12.6350000000000        -1.940617777183141E-010
   12.8250000000000        -1.993018721786400E-010
   13.0150000000000        -2.045995994901413E-010
   13.2050000000000        -2.099542503752955E-010
   13.3950000000000        -2.153611686242329E-010
   13.5850000000000        -2.208132490377045E-010
   13.7750000000000        -2.263002709387779E-010
   13.9650000000000        -2.318152127527972E-010
   14.1550000000000        -2.373537718284375E-010
   14.3450000000000        -2.429133806825489E-010
   14.5350000000000        -2.484912204434621E-010
   14.7250000000000        -2.540870410070922E-010
   14.9150000000000        -2.597042709752763E-010
   15.1050000000000        -2.653551179675690E-010
   15.2950000000000        -2.710546239055350E-010
   15.4850000000000        -2.768162031357294E-010
   15.6750000000000        -2.826539119624876E-010
   15.8650000000000        -2.885712247151517E-010
   16.0550000000000        -2.945757355633911E-010
   16.2450000000000        -3.006752812696480E-010
   16.4350000000000        -3.068727757279552E-010
   16.6250000000000        -3.131712005639474E-010
   16.8150000000000        -3.195735322344676E-010
   17.0050000000000        -3.260844360897572E-010
   17.1950000000000        -3.327036995134480E-010
   17.3850000000000        -3.394342093956131E-010
   17.5750000000000        -3.462758393626964E-010
   17.7650000000000        -3.532295029811168E-010
   17.9550000000000        -3.602950835967262E-010
   18.1450000000000        -3.674723657281279E-010
   18.3350000000000        -3.747610609838532E-010
   18.5250000000000        -3.821605890342700E-010
   18.7150000000000        -3.896698386812026E-010
   18.9050000000000        -3.972866293947128E-010
   19.0950000000000        -4.050092327396239E-010
   19.2850000000000        -4.128382079937782E-010
   19.4750000000000        -4.207746353744498E-010
   19.6650000000000        -4.288180550895016E-010
   19.8550000000000        -4.369691811860626E-010
   20.0450000000000        -4.452228956267165E-010
   20.2350000000000        -4.535738810383233E-010
   20.4250000000000        -4.620148182161422E-010
   20.6150000000000        -4.705371712648487E-010
   20.8050000000000        -4.791314328305246E-010
   20.9950000000000        -4.877908742228065E-010
   21.1850000000000        -4.965103085849360E-010
   21.3750000000000        -5.052878410026036E-010
   21.5650000000000        -5.141192239482468E-010
   21.7550000000000        -5.230059253068578E-010
   21.9450000000000        -5.319508364794322E-010
   22.1350000000000        -5.409617490267876E-010
   22.3250000000000        -5.500510362518684E-010
   22.5150000000000        -5.592454976479124E-010
   22.7050000000000        -5.685657325466747E-010
   22.8950000000000        -5.780317053648149E-010
   23.0850000000000        -5.876617621470465E-010
   23.2750000000000        -5.974695646449599E-010
   23.4650000000000        -6.074652152438820E-010
   23.6550000000000        -6.176532213690933E-010
   23.8450000000000        -6.280447235557241E-010
   24.0350000000000        -6.386438221034866E-010
   24.2250000000000        -6.494525878702580E-010
   24.4150000000000        -6.604670147556606E-010
   24.6050000000000        -6.716799316335706E-010
   24.7950000000000        -6.830800095055804E-010
   24.9850000000000        -6.946582903744168E-010
   25.1750000000000        -7.063955888591130E-010
   25.3650000000000        -7.182833543996544E-010
   25.5550000000000        -7.302987678449735E-010
   25.7450000000000        -7.424335242375156E-010
   25.9350000000000        -7.546585516536887E-010
   26.1250000000000        -7.669639159293324E-010
   26.3150000000000        -7.793385021006940E-010
   26.5050000000000        -7.917723561398703E-010
   26.6950000000000        -8.042587217917763E-010
   26.8850000000000        -8.167968852421623E-010
   27.0750000000000        -8.293890961884291E-010
   27.2650000000000        -8.420424501659689E-010
   27.4550000000000        -8.547709506210977E-010
   27.6450000000000        -8.675836547764529E-010
   27.8350000000000        -8.804873076562481E-010
   28.0250000000000        -8.934838914223948E-010
   28.2150000000000        -9.065746901042578E-010
   28.4050000000000        -9.197575646788666E-010
   28.5950000000000        -9.330237453380557E-010
   28.7850000000000        -9.463458836525078E-010
   28.9750000000000        -9.597007604000367E-010
   29.1650000000000        -9.730742273938114E-010
   29.3550000000000        -9.864531106170218E-010
   29.5450000000000        -9.997978226935704E-010
   29.7350000000000        -1.013079943521960E-009
   29.9250000000000        -1.026270159667028E-009
   30.1150000000000        -1.039340540638960E-009
   30.3050000000000        -1.052270362560071E-009
   30.4950000000000        -1.065051882466167E-009
   30.6850000000000        -1.077674065832240E-009
   30.8750000000000        -1.090138379189427E-009
   31.0650000000000        -1.102458140947984E-009
   31.2550000000000        -1.114646912015133E-009
   31.4450000000000        -1.126739728003357E-009
   31.6350000000000        -1.138766342811957E-009
   31.8250000000000        -1.150752523495324E-009
   32.0150000000000        -1.162741311335099E-009
   32.2050000000000        -1.174762667623368E-009
   32.3950000000000        -1.186836856846276E-009
   32.5850000000000        -1.199007940329284E-009
   32.7750000000000        -1.211292593045837E-009
   32.9650000000000        -1.223687887691969E-009
   33.1550000000000        -1.236200609558154E-009
   33.3450000000000        -1.248832594922634E-009
   33.5350000000000        -1.261585175041785E-009
   33.7250000000000        -1.274452472390813E-009
   33.9150000000000        -1.287417997490472E-009
   34.1050000000000        -1.300459579702403E-009
   34.2950000000000        -1.313554197213682E-009
   34.4850000000000        -1.326685105984428E-009
   34.6750000000000        -1.339841933274474E-009
   34.8650000000000        -1.353014097933820E-009
   35.0550000000000        -1.366200712219641E-009
   35.2450000000000        -1.379406846199282E-009
   35.4350000000000        -1.392647699445389E-009
   35.6250000000000        -1.405941755790575E-009
   35.8150000000000        -1.419305378976437E-009
   36.0050000000000        -1.432754586072824E-009
   36.1950000000000        -1.446299345046920E-009
   36.3850000000000        -1.459949224479333E-009
   36.5750000000000        -1.473707923501740E-009
   36.7650000000000        -1.487575355201012E-009
   36.9550000000000        -1.501553569886335E-009
   37.1450000000000        -1.515640470360728E-009
   37.3350000000000        -1.529830644117251E-009
   37.5250000000000        -1.544118817115574E-009
   37.7150000000000        -1.558499525770418E-009
   37.9050000000000        -1.572967673372174E-009
   38.0950000000000        -1.587520122594412E-009
   38.2850000000000        -1.602156868946782E-009
   38.4750000000000        -1.616885425655362E-009
   38.6650000000000        -1.631732965427227E-009
   38.8550000000000        -1.646707127014178E-009
   39.0450000000000        -1.661841059821615E-009
   39.2350000000000        -1.677162226390658E-009
   39.4250000000000        -1.692698118408039E-009
   39.6150000000000        -1.708464777448523E-009
   39.8050000000000        -1.724491470633465E-009
   39.9950000000000        -1.740807981023185E-009
   40.1850000000000        -1.757413455378500E-009
   40.3750000000000        -1.774314558627649E-009
   40.5650000000000        -1.791514366446102E-009
   40.7550000000000        -1.809013011928228E-009
   40.9450000000000        -1.826804167105983E-009
   41.1350000000000        -1.844869045901008E-009
   41.3250000000000        -1.863177004045738E-009
   41.5150000000000        -1.881691524558535E-009
   41.7050000000000        -1.900381205616171E-009
   41.8950000000000        -1.919217211669972E-009
   42.0850000000000        -1.938167235839218E-009
   42.2750000000000        -1.957204449094626E-009
   42.4650000000000        -1.976304575368400E-009
   42.6550000000000        -1.995441246747759E-009
   42.8450000000000        -2.014597707845250E-009
   43.0350000000000        -2.033753258883632E-009
   43.2250000000000        -2.052895977213491E-009
   43.4150000000000        -2.072020552050967E-009
   43.6050000000000        -2.091107353694330E-009
   43.7950000000000        -2.110153829325250E-009
   43.9850000000000        -2.129155022404767E-009
   44.1750000000000        -2.148106549938533E-009
   44.3650000000000        -2.167006998961361E-009
   44.5550000000000        -2.185865485810497E-009
   44.7450000000000        -2.204709172907210E-009
   44.9350000000000        -2.223582934485422E-009
   45.1250000000000        -2.242512591595011E-009
   45.3150000000000        -2.261514226207817E-009
   45.5050000000000        -2.280618365963301E-009
   45.6950000000000        -2.299851030846338E-009
   45.8850000000000        -2.319234441043499E-009
   46.0750000000000        -2.338796860829629E-009
   46.2650000000000        -2.358533252775947E-009
   46.4550000000000        -2.378449011543147E-009
   46.6450000000000        -2.398544089765558E-009
   46.8350000000000        -2.418809225487971E-009
   47.0250000000000        -2.439213388728232E-009
   47.2150000000000        -2.459723524318229E-009
   47.4050000000000        -2.480332059339113E-009
   47.5950000000000        -2.501013211188213E-009
   47.7850000000000        -2.521738415384587E-009
   47.9750000000000        -2.542476546989247E-009
   48.1650000000000        -2.563195437874361E-009
   48.3550000000000        -2.583870317019895E-009
   48.5450000000000        -2.604488057262299E-009
   48.7350000000000        -2.625050582356237E-009
   48.9250000000000        -2.645552764808899E-009
   49.1150000000000        -2.665992590215204E-009
   49.3050000000000        -2.686374176818391E-009
   49.4950000000000        -2.706717314765148E-009
   49.6850000000000        -2.727060596472897E-009
   49.8750000000000        -2.747448784449394E-009
   50.0650000000000        -2.767915476174915E-009
   50.2550000000000        -2.788496202538011E-009
   50.4450000000000        -2.809220559979170E-009
   50.6350000000000        -2.830109320236036E-009
   50.8250000000000        -2.851153883796232E-009
   51.0150000000000        -2.872383853905805E-009
   51.2050000000000        -2.893798678552618E-009
   51.3950000000000        -2.915400074348611E-009
   51.5850000000000        -2.937188187467041E-009
   51.7750000000000        -2.959134110979131E-009
   51.9650000000000        -2.981193343156776E-009
   52.1550000000000        -3.003336578893589E-009
   52.3450000000000        -3.025542126335845E-009
   52.5350000000000        -3.047776117055345E-009
   52.7250000000000        -3.070019234671480E-009
   52.9150000000000        -3.092265437222967E-009
   53.1050000000000        -3.114521731162962E-009
   53.2950000000000        -3.136787542002650E-009
   53.4850000000000        -3.159067979511481E-009
   53.6750000000000        -3.181379768185562E-009
   53.8650000000000        -3.203749107785205E-009
   54.0550000000000        -3.226193375570915E-009
   54.2450000000000        -3.248732010597919E-009
   54.4350000000000        -3.271385175634621E-009
   54.6250000000000        -3.294172357232446E-009
   54.8150000000000        -3.317109288482506E-009
   55.0050000000000        -3.340211361437349E-009
   55.1950000000000        -3.363487754065447E-009
   55.3850000000000        -3.386943090953081E-009
   55.5750000000000        -3.410587068781782E-009
   55.7650000000000        -3.434421169162898E-009
   55.9550000000000        -3.458444468963722E-009
   56.1450000000000        -3.482651157104451E-009
   56.3350000000000        -3.507015581773172E-009
   56.5250000000000        -3.531510138972922E-009
   56.7150000000000        -3.556113788285981E-009
   56.9050000000000        -3.580804631849872E-009
   57.0950000000000        -3.605563539125725E-009
   57.2850000000000        -3.630373787431181E-009
   57.4750000000000        -3.655235710177420E-009
   57.6650000000000        -3.680138772495740E-009
   57.8550000000000        -3.705079167333207E-009
   58.0450000000000        -3.730055068556312E-009
   58.2350000000000        -3.755063356380236E-009
   58.4250000000000        -3.780103212951697E-009
   58.6150000000000        -3.805177436511839E-009
   58.8050000000000        -3.830290007565435E-009
   58.9950000000000        -3.855444918549502E-009
   59.1850000000000        -3.880648752747244E-009
   59.3750000000000        -3.905907772915245E-009
   59.5650000000000        -3.931227665460525E-009
   59.7550000000000        -3.956614037430497E-009
   59.9450000000000        -3.982072749379526E-009
   60.1350000000000        -4.007608192576671E-009
   60.3250000000000        -4.033222117101574E-009
   60.5150000000000        -4.058910515784807E-009
   60.7050000000000        -4.084660936195130E-009
   60.8950000000000        -4.110460074180641E-009
   61.0850000000000        -4.136296417613652E-009
   61.2750000000000        -4.162152459472558E-009
   61.4650000000000        -4.188013139283401E-009
   61.6550000000000        -4.213862795653687E-009
   61.8450000000000        -4.239696356100915E-009
   62.0350000000000        -4.265507889898499E-009
   62.2250000000000        -4.291294790212386E-009
   62.4150000000000        -4.317050342267564E-009
   62.6050000000000        -4.342770354994820E-009
   62.7950000000000        -4.368450602075634E-009
   62.9850000000000        -4.394088458928609E-009
   63.1750000000000        -4.419681629902847E-009
   63.3650000000000        -4.445230091775821E-009
   63.5550000000000        -4.470737195517783E-009
   63.7450000000000        -4.496211219076939E-009
   63.9350000000000        -4.521665579420095E-009
   64.1250000000000        -4.547113258661840E-009
   64.3150000000000        -4.572566125582458E-009
   64.5050000000000        -4.598035579362407E-009
   64.6950000000000        -4.623531462747729E-009
   64.8850000000000        -4.649064513152022E-009
   65.0750000000000        -4.674638582251218E-009
   65.2650000000000        -4.700261795232716E-009
   65.4550000000000        -4.725939438904143E-009
   65.6450000000000        -4.751675065729021E-009
   65.8350000000000        -4.777472932119602E-009
   66.0250000000000        -4.803338522166784E-009
   66.2150000000000        -4.829275026173279E-009
   66.4050000000000        -4.855285215200198E-009
   66.5950000000000        -4.881372450949530E-009
   66.7850000000000        -4.907539494519995E-009
   66.9750000000000        -4.933787272196233E-009
   67.1650000000000        -4.960115304220829E-009
   67.3550000000000        -4.986523055170464E-009
   67.5450000000000        -5.013009390327103E-009
   67.7350000000000        -5.039572750607516E-009
   67.9250000000000        -5.066210253771788E-009
   68.1150000000000        -5.092918839915738E-009
   68.3050000000000        -5.119695398568463E-009
   68.4950000000000        -5.146539798167274E-009
   68.6850000000000        -5.173455235263857E-009
   68.8750000000000        -5.200446091916656E-009
   69.0650000000000        -5.227517630003076E-009
   69.2550000000000        -5.254675113511167E-009
   69.4450000000000        -5.281923862417922E-009
   69.6350000000000        -5.309268499804485E-009
   69.8250000000000        -5.336712988743727E-009
   70.0150000000000        -5.364261071889862E-009
   70.2050000000000        -5.391920974260746E-009
   70.3950000000000        -5.419700487288230E-009
   70.5850000000000        -5.447608113902813E-009
   70.7750000000000        -5.475654047708899E-009
   70.9650000000000        -5.503853187260244E-009
   71.1550000000000        -5.532218516705873E-009
   71.3450000000000        -5.560773465420764E-009
   71.5350000000000        -5.589522056644891E-009
   71.7250000000000        -5.618486036404806E-009
   71.9150000000000        -5.647664750629040E-009
   72.1050000000000        -5.677067977459875E-009
   72.2950000000000        -5.706700854377752E-009
   72.4850000000000        -5.736565099951014E-009
   72.6750000000000        -5.766662747294858E-009
   72.8650000000000        -5.796995475673433E-009
   73.0550000000000        -5.827562632206915E-009
   73.2450000000000        -5.858359383216076E-009
   73.4350000000000        -5.889377638511095E-009
   73.6250000000000        -5.920603131948823E-009
   73.8150000000000        -5.952013399805623E-009
   74.0050000000000        -5.983582317695695E-009
   74.1950000000000        -6.015282227366713E-009
   74.3850000000000        -6.047089842689978E-009
   74.5750000000000        -6.078977797847666E-009
   74.7650000000000        -6.110924757719859E-009
   74.9550000000000        -6.142912431324897E-009
   75.1450000000000        -6.174930634362174E-009
   75.3350000000000        -6.206974210167533E-009
   75.5250000000000        -6.239043223538337E-009
   75.7150000000000        -6.271127508602908E-009
   75.9050000000000        -6.303222708453782E-009
   76.0950000000000        -6.335327455483319E-009
   76.2850000000000        -6.367445690883488E-009
   76.4750000000000        -6.399587988307133E-009
   76.6650000000000        -6.431765745055305E-009
   76.8550000000000        -6.463986854982304E-009
   77.0450000000000        -6.496256997007561E-009
   77.2350000000000        -6.528577133754630E-009
   77.4250000000000        -6.560939711564646E-009
   77.6150000000000        -6.593322078648389E-009
   77.8050000000000        -6.625695121455214E-009
   77.9950000000000        -6.658035536061451E-009
   78.1850000000000        -6.690320178159596E-009
   78.3750000000000        -6.722527839692027E-009
   78.5650000000000        -6.754641835617928E-009
   78.7550000000000        -6.786655083072821E-009
   78.9450000000000        -6.818560339862692E-009
   79.1350000000000        -6.850356019395462E-009
   79.3250000000000        -6.882039070160925E-009
   79.5150000000000        -6.913609135187038E-009
   79.7050000000000        -6.945067362037114E-009
   79.8950000000000        -6.976425885365682E-009
   80.0850000000000        -7.007712384307384E-009
   80.2750000000000        -7.038965015833123E-009
   80.4650000000000        -7.070220351236170E-009
   80.6550000000000        -7.101501237803617E-009
   80.8450000000000        -7.132838258929666E-009
   81.0350000000000        -7.164266747815222E-009
   81.2250000000000        -7.195820451760421E-009
   81.4150000000000        -7.227538248383854E-009
   81.6050000000000        -7.259453482191546E-009
   81.7950000000000        -7.291585634886636E-009
   81.9850000000000        -7.323927449949048E-009
   82.1750000000000        -7.356487190861751E-009
   82.3650000000000        -7.389267211560472E-009
   82.5550000000000        -7.422261423705105E-009
   82.7450000000000        -7.455444395365812E-009
   82.9350000000000        -7.488781487787108E-009
   83.1250000000000        -7.522242293644286E-009
   83.3150000000000        -7.555804293428386E-009
   83.5050000000000        -7.589454481854586E-009
   83.6950000000000        -7.623181206699291E-009
   83.8850000000000        -7.656984330876211E-009
   84.0750000000000        -7.690838066871574E-009
   84.2650000000000        -7.724745199303963E-009
   84.4550000000000        -7.758706114485660E-009
   84.6450000000000        -7.792719750296443E-009
   84.8350000000000        -7.826787216669969E-009
   85.0250000000000        -7.860911183016885E-009
   85.2150000000000        -7.895095190550088E-009
   85.4050000000000        -7.929344687603585E-009
   85.5950000000000        -7.963670419087262E-009
   85.7850000000000        -7.998087084965810E-009
   85.9750000000000        -8.032605422084589E-009
   86.1650000000000        -8.067232690719292E-009
   86.3550000000000        -8.101974191631045E-009
   86.5450000000000        -8.136834184288487E-009
   86.7350000000000        -8.171815427793854E-009
   86.9250000000000        -8.206920383020703E-009
   87.1150000000000        -8.242151193160459E-009
   87.3050000000000        -8.277510062838318E-009
   87.4950000000000        -8.313002117615533E-009
   87.6850000000000        -8.348632902211914E-009
   87.8750000000000        -8.384404303654997E-009
   88.0650000000000        -8.420318137161854E-009
   88.2550000000000        -8.456376481444291E-009
   88.4450000000000        -8.492580011434270E-009
   88.6350000000000        -8.528928612261512E-009
   88.8250000000000        -8.565422391522371E-009
   89.0150000000000        -8.602064270485323E-009
   89.2050000000000        -8.638855909274802E-009
   89.3950000000000        -8.675785815609529E-009
   89.5850000000000        -8.712838872828523E-009
   89.7750000000000        -8.749997986020376E-009
   89.9650000000000        -8.787257971067225E-009
   90.1550000000000        -8.824609016863561E-009
   90.3450000000000        -8.862043506506941E-009
   90.5350000000000        -8.899557495881621E-009
   90.7250000000000        -8.937144128202163E-009
   90.9150000000000        -8.974796066070286E-009
   91.1050000000000        -9.012506067579672E-009
   91.2950000000000        -9.050266700814593E-009
   91.4850000000000        -9.088070862192216E-009
   91.6750000000000        -9.125907469398325E-009
   91.8650000000000        -9.163763987963749E-009
   92.0550000000000        -9.201629611620764E-009
   92.2450000000000        -9.239496162393041E-009
   92.4350000000000        -9.277358271929379E-009
   92.6250000000000        -9.315208450187703E-009
   92.8150000000000        -9.353038700830165E-009
   93.0050000000000        -9.390842973658555E-009
   93.1950000000000        -9.428614861000050E-009
   93.3850000000000        -9.466354025580123E-009
   93.5750000000000        -9.504069202764318E-009
   93.7650000000000        -9.541777550104656E-009
   93.9550000000000        -9.579502357606706E-009
   94.1450000000000        -9.617261117684241E-009
   94.3350000000000        -9.655068885388981E-009
   94.5250000000000        -9.692941759273689E-009
   94.7150000000000        -9.730889581341240E-009
   94.9050000000000        -9.768920234566029E-009
   95.0950000000000        -9.807046036801248E-009
   95.2850000000000        -9.845271643802407E-009
   95.4750000000000        -9.883605958010014E-009
   95.6650000000000        -9.922049375938972E-009
   95.8550000000000        -9.960604623849497E-009
   96.0450000000000        -9.999270336423551E-009
   96.2350000000000        -1.003804434671097E-008
   96.4250000000000        -1.007692082698022E-008
   96.6150000000000        -1.011589201634637E-008
   96.8050000000000        -1.015494937301494E-008
   96.9950000000000        -1.019408235296524E-008
   97.1850000000000        -1.023328232423263E-008
   97.3750000000000        -1.027254410729366E-008
   97.5650000000000        -1.031186746876036E-008
   97.7550000000000        -1.035125201208481E-008
   97.9450000000000        -1.039070001614305E-008
   98.1350000000000        -1.043021622695257E-008
   98.3250000000000        -1.046980818984878E-008
   98.5150000000000        -1.050948357254790E-008
   98.7050000000000        -1.054924815722544E-008
   98.8950000000000        -1.058910418883607E-008
   99.0850000000000        -1.062904973601848E-008
   99.2750000000000        -1.066907972513186E-008
   99.4650000000000        -1.070918242297877E-008
   99.6550000000000        -1.074933212398573E-008
   99.8450000000000        -1.078950572337937E-008
   100.035000000000        -1.082967101461074E-008
   100.225000000000        -1.086980128459407E-008
   100.415000000000        -1.090987028525339E-008
   100.605000000000        -1.094984762797373E-008
   100.795000000000        -1.098970369224733E-008
   100.985000000000        -1.102940835612727E-008
   101.175000000000        -1.106894461327677E-008
   101.365000000000        -1.110831873850647E-008
   101.555000000000        -1.114751457731875E-008
   101.745000000000        -1.118652962910880E-008
   101.935000000000        -1.122536521526308E-008
   102.125000000000        -1.126405078664566E-008
   102.315000000000        -1.130264110544673E-008
   102.505000000000        -1.134116013609004E-008
   102.695000000000        -1.137964319950919E-008
   102.885000000000        -1.141813618588466E-008
   103.075000000000        -1.145667982277614E-008
   103.265000000000        -1.149530928147476E-008
   103.455000000000        -1.153406160794680E-008
   103.645000000000        -1.157297402738260E-008
   103.835000000000        -1.161205938056306E-008
   104.025000000000        -1.165131641408467E-008
   104.215000000000        -1.169074880217358E-008
   104.405000000000        -1.173035978244867E-008
   104.595000000000        -1.177014816738961E-008
   104.785000000000        -1.181011106503378E-008
   104.975000000000        -1.185024190253544E-008
   105.165000000000        -1.189052983957371E-008
   105.355000000000        -1.193096355884483E-008
   105.545000000000        -1.197153296769897E-008
   105.735000000000        -1.201222831397396E-008
   105.925000000000        -1.205304006749979E-008
   106.115000000000        -1.209395972948688E-008
   106.305000000000        -1.213497980940612E-008
   106.495000000000        -1.217609101412014E-008
   106.685000000000        -1.221728950367389E-008
   106.875000000000        -1.225856816404255E-008
   107.065000000000        -1.229992512700018E-008
   107.255000000000        -1.234135757635028E-008
   107.445000000000        -1.238286279381404E-008
   107.635000000000        -1.242444004845860E-008
   107.825000000000        -1.246608893877267E-008
   108.015000000000        -1.250780943775040E-008
   108.205000000000        -1.254960171536404E-008
   108.395000000000        -1.259146557880112E-008
   108.585000000000        -1.263340045910995E-008
   108.775000000000        -1.267540278166676E-008
   108.965000000000        -1.271746721197797E-008
   109.155000000000        -1.275958751381498E-008
   109.345000000000        -1.280175967137649E-008
   109.535000000000        -1.284397924543688E-008
   109.725000000000        -1.288624352437676E-008
   109.915000000000        -1.292855076514008E-008
   110.105000000000        -1.297089985222128E-008