  -1.42500000000000         0.000000000000000E+000
  -1.23500000000000         1.961253251424445E-020
  -1.04500000000000         1.505237970792451E-019
 -0.855000000000000         9.516568352641396E-019
 -0.665000000000000         4.888748233172357E-018
 -0.475000000000000         2.079123848546201E-017
 -0.285000000000000         7.586369961002983E-017
 -9.499999999999975E-002    2.394553721895523E-016
  9.500000000000020E-002    6.616635883651220E-016
  0.285000000000000         1.612514588070374E-015
  0.475000000000000         3.545109377153776E-015
  0.665000000000000         7.139413359905950E-015
  0.855000000000000         1.324860623556644E-014
   1.04500000000000         2.284158492530118E-014
   1.23500000000000         3.701437274064236E-014
   1.42500000000000         5.673108413585643E-014
   1.61500000000000         8.238924608873530E-014
   1.80500000000000         1.150246604907642E-013
   1.99500000000000         1.556534068013112E-013
   2.18500000000000         2.051864399483177E-013
   2.37500000000000         2.645462166451622E-013
   2.56500000000000         3.345538679102972E-013
   2.75500000000000         4.158579574164603E-013
   2.94500000000000         5.089575436764468E-013
   3.13500000000000         6.141811020021238E-013
   3.32500000000000         7.316627880745716E-013
   3.51500000000000         8.614217383843135E-013
   3.70500000000000         1.003449691457943E-012
   3.89500000000000         1.157688096446887E-012
   4.08500000000000         1.324053372190623E-012
   4.27500000000000         1.502461388981466E-012
   4.46500000000000         1.692791713388681E-012
   4.65500000000000         1.894815413406893E-012
   4.84500000000000         2.108174369624024E-012
   5.03500000000000         2.332424334547991E-012
   5.22500000000000         2.567169107398463E-012
   5.41500000000000         2.812343031304100E-012
   5.60500000000000         3.067696868691944E-012
   5.79500000000000         3.333168435101713E-012
   5.98500000000000         3.608862435434502E-012
   6.17500000000000         3.895095947257922E-012
   6.36500000000000         4.192393723496605E-012
   6.55500000000000         4.501533566907826E-012
   6.74500000000000         4.823161151968410E-012
   6.93500000000000         5.157955774029551E-012
   7.12500000000000         5.506717814491653E-012
   7.31500000000000         5.870358157420907E-012
   7.50500000000000         6.249336413983671E-012
   7.69500000000000         6.643859297697177E-012
   7.88500000000000         7.053869588630833E-012
   8.07500000000000         7.479089386654724E-012
   8.26500000000000         7.918986320183704E-012
   8.45500000000000         8.373193952382729E-012
   8.64500000000000         8.841036718859724E-012
   8.83500000000000         9.321594403567715E-012
   9.02500000000000         9.813896099828190E-012
   9.21500000000000         1.031597131627994E-011
   9.40500000000000         1.082556786659058E-011
   9.59500000000000         1.134089643481662E-011
   9.78500000000000         1.186049511668955E-011
   9.97500000000000         1.238329338836034E-011
   10.1650000000000         1.290847466036890E-011
   10.3550000000000         1.343560623665375E-011
   10.5450000000000         1.396448199911185E-011
   10.7350000000000         1.449495899811706E-011
   10.9250000000000         1.502705383180504E-011
   11.1150000000000         1.556077844909394E-011
   11.3050000000000         1.609616521965070E-011
   11.4950000000000         1.663339397618948E-011
   11.6850000000000         1.717303785584941E-011
   11.8750000000000         1.771600477031908E-011
   12.0650000000000         1.826329621857350E-011
   12.2550000000000         1.881586282928978E-011
   12.4450000000000         1.937454257474163E-011
   12.6350000000000         1.994021692621525E-011
   12.8250000000000         2.051306528594419E-011
   13.0150000000000         2.109362608616892E-011
   13.2050000000000         2.168223905399645E-011
   13.3950000000000         2.227907487566245E-011
   13.5850000000000         2.288419281893675E-011
   13.7750000000000         2.349751111043724E-011
   13.9650000000000         2.411892419329901E-011
   14.1550000000000         2.474837930610342E-011
   14.3450000000000         2.538587925471669E-011
   14.5350000000000         2.603151242072542E-011
   14.7250000000000         2.668543071963932E-011
   14.9150000000000         2.734792752333010E-011
   15.1050000000000         2.801984023951088E-011
   15.2950000000000         2.870255860108959E-011
   15.4850000000000         2.939752453092408E-011
   15.6750000000000         3.010613126234484E-011
   15.8650000000000         3.082929677795696E-011
   16.0550000000000         3.156789500857197E-011
   16.2450000000000         3.232264493028125E-011
   16.4350000000000         3.309390200450497E-011
   16.6250000000000         3.388179694855346E-011
   16.8150000000000         3.468625332038864E-011
   17.0050000000000         3.550698557106301E-011
   17.1950000000000         3.634389853721784E-011
   17.3850000000000         3.719654859964499E-011
   17.5750000000000         3.806470489305003E-011
   17.7650000000000         3.894756643819288E-011
   17.9550000000000         3.984482434877806E-011
   18.1450000000000         4.075603214431896E-011
   18.3350000000000         4.168084798978018E-011
   18.5250000000000         4.261891361878553E-011
   18.7150000000000         4.356975576962507E-011
   18.9050000000000         4.453240602709448E-011
   19.0950000000000         4.550567159794805E-011
   19.2850000000000         4.648853742077632E-011
   19.4750000000000         4.748026785754905E-011
   19.6650000000000         4.848035283244145E-011
   19.8550000000000         4.948837985279992E-011
   20.0450000000000         5.050389150634292E-011
   20.2350000000000         5.152636221989382E-011
   20.4250000000000         5.255521518783148E-011
   20.6150000000000         5.358979498856905E-011
   20.8050000000000         5.462927583669757E-011
   20.9950000000000         5.567279886891271E-011
   21.1850000000000         5.671950478338350E-011
   21.3750000000000         5.776912514084071E-011
   21.5650000000000         5.882052416774441E-011
   21.7550000000000         5.987337614346971E-011
   21.9450000000000         6.092726656639612E-011
   22.1350000000000         6.198158614301014E-011
   22.3250000000000         6.303594642705950E-011
   22.5150000000000         6.409070667461081E-011
   22.7050000000000         6.514680767361752E-011
   22.8950000000000         6.620560198625336E-011
   23.0850000000000         6.726864410501715E-011
   23.2750000000000         6.833760895950905E-011
   23.4650000000000         6.941406821851850E-011
   23.6550000000000         7.049928268644665E-011
   23.8450000000000         7.159513242168621E-011
   24.0350000000000         7.270333839929688E-011
   24.2250000000000         7.382526302484265E-011
   24.4150000000000         7.496209593185360E-011
   24.6050000000000         7.611472386088476E-011
   24.7950000000000         7.728382584503593E-011
   24.9850000000000         7.846954222295589E-011
   25.1750000000000         7.967172463353248E-011
   25.3650000000000         8.089014068611211E-011
   25.5550000000000         8.212412352975985E-011
   25.7450000000000         8.337316350259974E-011
   25.9350000000000         8.463619956853093E-011
   26.1250000000000         8.591242614584553E-011
   26.3150000000000         8.720122376702854E-011
   26.5050000000000         8.850210613664510E-011
   26.6950000000000         8.981459761705724E-011
   26.8850000000000         9.113834628783265E-011
   27.0750000000000         9.247310976545675E-011
   27.2650000000000         9.381878118661587E-011
   27.4550000000000         9.517553006001638E-011
   27.6450000000000         9.654371575263002E-011
   27.8350000000000         9.792378501986132E-011
   28.0250000000000         9.931586712352434E-011
   28.2150000000000         1.007205048978547E-010
   28.4050000000000         1.021380685387064E-010
   28.5950000000000         1.035687460908250E-010
   28.7850000000000         1.050123762836564E-010
   28.9750000000000         1.064684150519553E-010
   29.1650000000000         1.079357803379428E-010
   29.3550000000000         1.094131479929241E-010
   29.5450000000000         1.108988866865385E-010
   29.7350000000000         1.123911643876261E-010
   29.9250000000000         1.138881207288462E-010
   30.1150000000000         1.153879063004297E-010
   30.3050000000000         1.168888539738176E-010
   30.4950000000000         1.183895007618868E-010
   30.6850000000000         1.198891968000703E-010
   30.8750000000000         1.213874632383977E-010
   31.0650000000000         1.228834580504846E-010
   31.2550000000000         1.243766005331341E-010
   31.4450000000000         1.258670007657240E-010
   31.6350000000000         1.273551535459599E-010
   31.8250000000000         1.288418011979663E-010
   32.0150000000000         1.303278524556766E-010
   32.2050000000000         1.318143232645497E-010
   32.3950000000000         1.333023710144115E-010
   32.5850000000000         1.347930723258970E-010
   32.7750000000000         1.362872816287900E-010
   32.9650000000000         1.377855932833295E-010
   33.1550000000000         1.392887624325760E-010
   33.3450000000000         1.407971668654442E-010
   33.5350000000000         1.423113425221334E-010
   33.7250000000000         1.438322223909240E-010
   33.9150000000000         1.453610302921761E-010
   34.1050000000000         1.468991119769663E-010
   34.2950000000000         1.484476710590903E-010
   34.4850000000000         1.500075997382570E-010
   34.6750000000000         1.515794307429986E-010
   34.8650000000000         1.531636426731492E-010
   35.0550000000000         1.547606535885513E-010
   35.2450000000000         1.563707754379605E-010
   35.4350000000000         1.579942810577491E-010
   35.6250000000000         1.596312804946485E-010
   35.8150000000000         1.612816976243139E-010
   36.0050000000000         1.629453036711416E-010
   36.1950000000000         1.646218179086710E-010
   36.3850000000000         1.663108593834495E-010
   36.5750000000000         1.680123153995435E-010
   36.7650000000000         1.697258820197072E-010
   36.9550000000000         1.714513751738725E-010
   37.1450000000000         1.731883829286172E-010
   37.3350000000000         1.749364264299594E-010
   37.5250000000000         1.766951390383909E-010
   37.7150000000000         1.784642478819749E-010
   37.9050000000000         1.802435414849550E-010
   38.0950000000000         1.820328775089072E-010
   38.2850000000000         1.838321968654930E-010
   38.4750000000000         1.856414478181368E-010
   38.6650000000000         1.874605607452362E-010
   38.8550000000000         1.892894548661376E-010
   39.0450000000000         1.911280859142286E-010
   39.2350000000000         1.929762931752865E-010
   39.4250000000000         1.948337652231185E-010
   39.6150000000000         1.967000156324909E-010
   39.8050000000000         1.985743638762631E-010
   39.9950000000000         2.004560780113412E-010
   40.1850000000000         2.023448362532753E-010
   40.3750000000000         2.042398239048251E-010
   40.5650000000000         2.061407694532042E-010
   40.7550000000000         2.080473269956319E-010
   40.9450000000000         2.099587068676704E-010
   41.1350000000000         2.118732695012276E-010
   41.3250000000000         2.137892634453349E-010
   41.5150000000000         2.157053502721082E-010
   41.7050000000000         2.176209075313348E-010
   41.8950000000000         2.195358464009035E-010
   42.0850000000000         2.214504086176173E-010
   42.2750000000000         2.233651092964900E-010
   42.4650000000000         2.252806323453803E-010
   42.6550000000000         2.271979543053764E-010
   42.8450000000000         2.291180549002200E-010
   43.0350000000000         2.310421230111541E-010
   43.2250000000000         2.329711846274278E-010
   43.4150000000000         2.349060166393762E-010
   43.6050000000000         2.368480258422967E-010
   43.7950000000000         2.387976386321902E-010
   43.9850000000000         2.407553353643081E-010
   44.1750000000000         2.427216902445130E-010
   44.3650000000000         2.446974773841262E-010
   44.5550000000000         2.466836536980902E-010
   44.7450000000000         2.486810433946251E-010
   44.9350000000000         2.506898876414472E-010
   45.1250000000000         2.527099027426222E-010
   45.3150000000000         2.547406133045653E-010
   45.5050000000000         2.567814845746200E-010
   45.6950000000000         2.588320345295493E-010
   45.8850000000000         2.608919045591315E-010
   46.0750000000000         2.629609029360929E-010
   46.2650000000000         2.650390308295447E-010
   46.4550000000000         2.671262557525000E-010
   46.6450000000000         2.692225921492974E-010
   46.8350000000000         2.713281230922449E-010
   47.0250000000000         2.734432074113689E-010
   47.2150000000000         2.755683287745173E-010
   47.4050000000000         2.777038622159632E-010
   47.5950000000000         2.798499403865373E-010
   47.7850000000000         2.820064823458270E-010
   47.9750000000000         2.841731486298772E-010
   48.1650000000000         2.863493914696555E-010
   48.3550000000000         2.885346212396828E-010
   48.5450000000000         2.907281405009885E-010
   48.7350000000000         2.929294628420886E-010
   48.9250000000000         2.951379118338226E-010
   49.1150000000000         2.973530048458954E-010
   49.3050000000000         2.995743923931035E-010
   49.4950000000000         3.018013975451514E-010
   49.6850000000000         3.040335322224028E-010
   49.8750000000000         3.062709755915236E-010
   50.0650000000000         3.085142745427108E-010
   50.2550000000000         3.107641287337842E-010
   50.4450000000000         3.130213316259144E-010
   50.6350000000000         3.152865718269127E-010
   50.8250000000000         3.175600181648639E-010
   51.0150000000000         3.198425992330540E-010
   51.2050000000000         3.221344871941519E-010
   51.3950000000000         3.244358851756549E-010
   51.5850000000000         3.267470752145624E-010
   51.7750000000000         3.290677918511458E-010
   51.9650000000000         3.313966726650680E-010
   52.1550000000000         3.337318713910104E-010
   52.3450000000000         3.360713243262728E-010
   52.5350000000000         3.384129575065814E-010
   52.7250000000000         3.407547001103378E-010
   52.9150000000000         3.430949064325991E-010
   53.1050000000000         3.454327677063598E-010
   53.2950000000000         3.477669896496999E-010
   53.4850000000000         3.500968374618768E-010
   53.6750000000000         3.524218651536315E-010
   53.8650000000000         3.547424937104667E-010
   54.0550000000000         3.570597738208769E-010
   54.2450000000000         3.593752533042738E-010
   54.4350000000000         3.616908834872484E-010
   54.6250000000000         3.640088877936624E-010
   54.8150000000000         3.663313928631419E-010
   55.0050000000000         3.686605108661732E-010
   55.1950000000000         3.709981223607015E-010
   55.3850000000000         3.733454970770897E-010
   55.5750000000000         3.757043957030102E-010
   55.7650000000000         3.780757231047105E-010
   55.9550000000000         3.804602308653231E-010
   56.1450000000000         3.828586115912419E-010
   56.3350000000000         3.852711529630648E-010
   56.5250000000000         3.876973415029405E-010
   56.7150000000000         3.901362911548573E-010
   56.9050000000000         3.925869764979387E-010
   57.0950000000000         3.950482438358456E-010
   57.2850000000000         3.975190953313876E-010
   57.4750000000000         3.999989504715393E-010
   57.6650000000000         4.024869377879664E-010
   57.8550000000000         4.049822863780871E-010
   58.0450000000000         4.074845116673590E-010
   58.2350000000000         4.099933665950207E-010
   58.4250000000000         4.125086391731184E-010
   58.6150000000000         4.150301104946526E-010
   58.8050000000000         4.175576777904956E-010
   58.9950000000000         4.200913131358637E-010
   59.1850000000000         4.226310586294236E-010
   59.3750000000000         4.251769887547720E-010
   59.5650000000000         4.277291738252118E-010
   59.7550000000000         4.302876634315567E-010
   59.9450000000000         4.328524994643948E-010
   60.1350000000000         4.354237009983086E-010
   60.3250000000000         4.380012241750923E-010
   60.5150000000000         4.405848222843193E-010
   60.7050000000000         4.431739919820717E-010
   60.8950000000000         4.457681356643631E-010
   61.0850000000000         4.483664466884883E-010
   61.2750000000000         4.509682515059032E-010
   61.4650000000000         4.535728597155297E-010
   61.6550000000000         4.561795996553878E-010
   61.8450000000000         4.587878240903432E-010
   62.0350000000000         4.613968334086834E-010
   62.2250000000000         4.640060225941139E-010
   62.4150000000000         4.666149391260103E-010
   62.6050000000000         4.692229430041462E-010
   62.7950000000000         4.718295042205578E-010
   62.9850000000000         4.744344242933865E-010
   63.1750000000000         4.770374777203734E-010
   63.3650000000000         4.796382708724965E-010
   63.5550000000000         4.822362337048389E-010
   63.7450000000000         4.848307343784875E-010
   63.9350000000000         4.874212710497495E-010
   64.1250000000000         4.900075931715256E-010
   64.3150000000000         4.925896733441641E-010
   64.5050000000000         4.951677074394939E-010
   64.6950000000000         4.977421258201624E-010
   64.8850000000000         5.003139075928031E-010
   65.0750000000000         5.028835583132157E-010
   65.2650000000000         5.054522893200235E-010
   65.4550000000000         5.080214524054779E-010
   65.6450000000000         5.105923835048299E-010
   65.8350000000000         5.131665627196989E-010
   66.0250000000000         5.157455428306663E-010
   66.2150000000000         5.183306550769417E-010
   66.4050000000000         5.209230897026136E-010
   66.5950000000000         5.235239429749538E-010
   66.7850000000000         5.261335005336684E-010
   66.9750000000000         5.287524452659312E-010
   67.1650000000000         5.313810809507881E-010
   67.3550000000000         5.340197626262634E-010
   67.5450000000000         5.366688489017998E-010
   67.7350000000000         5.393286522875256E-010
   67.9250000000000         5.419992489118866E-010
   68.1150000000000         5.446803531978638E-010
   68.3050000000000         5.473713706223487E-010
   68.4950000000000         5.500714139234449E-010
   68.6850000000000         5.527795400446676E-010
   68.8750000000000         5.554948960683591E-010
   69.0650000000000         5.582167285424587E-010
   69.2550000000000         5.609444053188254E-010
   69.4450000000000         5.636774464594933E-010
   69.6350000000000         5.664155708866716E-010
   69.8250000000000         5.691586690657948E-010
   70.0150000000000         5.719067583815183E-010
   70.2050000000000         5.746599467278167E-010
   70.3950000000000         5.774184155821616E-010
   70.5850000000000         5.801823714657172E-010
   70.7750000000000         5.829519624740351E-010
   70.9650000000000         5.857272023525124E-010
   71.1550000000000         5.885079560902750E-010
   71.3450000000000         5.912937345618560E-010
   71.5350000000000         5.940842368182961E-010
   71.7250000000000         5.968785873791274E-010
   71.9150000000000         5.996765440660660E-010
   72.1050000000000         6.024772566664048E-010
   72.2950000000000         6.052803595842841E-010
   72.4850000000000         6.080855462698404E-010
   72.6750000000000         6.108924983921587E-010
   72.8650000000000         6.137009611441696E-010
   73.0550000000000         6.165102178302907E-010
   73.2450000000000         6.193192567207644E-010
   73.4350000000000         6.221269032966735E-010
   73.6250000000000         6.249318061440494E-010
   73.8150000000000         6.277328305015185E-010
   74.0050000000000         6.305293290597162E-010
   74.1950000000000         6.333210067775830E-010
   74.3850000000000         6.361078729469301E-010
   74.5750000000000         6.388901853528004E-010
   74.7650000000000         6.416683225731269E-010
   74.9550000000000         6.444428192661997E-010
   75.1450000000000         6.472142165583097E-010
   75.3350000000000         6.499831422950667E-010
   75.5250000000000         6.527497712915089E-010
   75.7150000000000         6.555155333996186E-010
   75.9050000000000         6.582808249190949E-010
   76.0950000000000         6.610460757838522E-010
   76.2850000000000         6.638124084788339E-010
   76.4750000000000         6.665817110853103E-010
   76.6650000000000         6.693557170187797E-010
   76.8550000000000         6.721356577631664E-010
   77.0450000000000         6.749221523756285E-010
   77.2350000000000         6.777157453356476E-010
   77.4250000000000         6.805173184939915E-010
   77.6150000000000         6.833277918820261E-010
   77.8050000000000         6.861476560523585E-010
   77.9950000000000         6.889768880080834E-010
   78.1850000000000         6.918151532226828E-010
   78.3750000000000         6.946618838003872E-010
   78.5650000000000         6.975164048433827E-010
   78.7550000000000         7.003781840294396E-010
   78.9450000000000         7.032464341281758E-010
   79.1350000000000         7.061207382748925E-010
   79.3250000000000         7.090004838974626E-010
   79.5150000000000         7.118851569294549E-010
   79.7050000000000         7.147740477301710E-010
   79.8950000000000         7.176661202986552E-010
   80.0850000000000         7.205602056541521E-010
   80.2750000000000         7.234553856229403E-010
   80.4650000000000         7.263510654179137E-010
   80.6550000000000         7.292468130028463E-010
   80.8450000000000         7.321423601866476E-010
   81.0350000000000         7.350374522476890E-010
   81.2250000000000         7.379318899443799E-010
   81.4150000000000         7.408255494224556E-010
   81.6050000000000         7.437182925888655E-010
   81.7950000000000         7.466099441871462E-010
   81.9850000000000         7.495005046935646E-010
   82.1750000000000         7.523897670038252E-010
   82.3650000000000         7.552775572847543E-010
   82.5550000000000         7.581635968813269E-010
   82.7450000000000         7.610473051982267E-010
   82.9350000000000         7.639280663059888E-010
   83.1250000000000         7.668054169734999E-010
   83.3150000000000         7.696790212570947E-010
   83.5050000000000         7.725486888424500E-010
   83.6950000000000         7.754143571793662E-010
   83.8850000000000         7.782760546910314E-010
   84.0750000000000         7.811340338926720E-010
   84.2650000000000         7.839883680969717E-010
   84.4550000000000         7.868391053409379E-010
   84.6450000000000         7.896862708852357E-010
   84.8350000000000         7.925298749573996E-010
   85.0250000000000         7.953699579464162E-010
   85.2150000000000         7.982068169369951E-010
   85.4050000000000         8.010410892743571E-010
   85.5950000000000         8.038736153000936E-010
   85.7850000000000         8.067052900264736E-010
   85.9750000000000         8.095368938644863E-010
   86.1650000000000         8.123690507919325E-010
   86.3550000000000         8.152022921177668E-010
   86.5450000000000         8.180370955299325E-010
   86.7350000000000         8.208739906796357E-010
   86.9250000000000         8.237135342413109E-010
   87.1150000000000         8.265562813992519E-010
   87.3050000000000         8.294027715155240E-010
   87.4950000000000         8.322536361825531E-010
   87.6850000000000         8.351095754818439E-010
   87.8750000000000         8.379712918111953E-010
   88.0650000000000         8.408393202722715E-010
   88.2550000000000         8.437141826873721E-010
   88.4450000000000         8.465961938825531E-010
   88.6350000000000         8.494856475772643E-010
   88.8250000000000         8.523827644069585E-010
   89.0150000000000         8.552877354388401E-010
   89.2050000000000         8.582004463786676E-010
   89.3950000000000         8.611202153973950E-010
   89.5850000000000         8.640456967535297E-010
   89.7750000000000         8.669752541104845E-010
   89.9650000000000         8.699077134491724E-010
   90.1550000000000         8.728419145742930E-010
   90.3450000000000         8.757766152405669E-010
   90.5350000000000         8.787108476543452E-010
   90.7250000000000         8.816436704018795E-010
   90.9150000000000         8.845743804468330E-010
   91.1050000000000         8.875024619683292E-010
   91.2950000000000         8.904276216077613E-010
   91.4850000000000         8.933497646886396E-010
   91.6750000000000         8.962689721724916E-010
   91.8650000000000         8.991855251960973E-010
   92.0550000000000         9.020997601033283E-010
   92.2450000000000         9.050120343854714E-010
   92.4350000000000         9.079226067159412E-010
   92.6250000000000         9.108316430174101E-010
   92.8150000000000         9.137392772090902E-010
   93.0050000000000         9.166455593291234E-010
   93.1950000000000         9.195504476038709E-010
   93.3850000000000         9.224536497024553E-010
   93.5750000000000         9.253544058146793E-010
   93.7650000000000         9.282513224091344E-010
   93.9550000000000         9.311429837019451E-010
   94.1450000000000         9.340281244275620E-010
   94.3350000000000         9.369056074229752E-010
   94.5250000000000         9.397743331419610E-010
   94.7150000000000         9.426334744714353E-010
   94.9050000000000         9.454824857640352E-010
   95.0950000000000         9.483209619271977E-010
   95.2850000000000         9.511488026182432E-010
   95.4750000000000         9.539660850022952E-010
   95.6650000000000         9.567728963865966E-010
   95.8550000000000         9.595699695343162E-010
   96.0450000000000         9.623575906526500E-010
   96.2350000000000         9.651360533167734E-010
   96.4250000000000         9.679061254747748E-010
   96.6150000000000         9.706692298289306E-010
   96.8050000000000         9.734269998134874E-010
   96.9950000000000         9.761811904368272E-010
   97.1850000000000         9.789333806847560E-010
   97.3750000000000         9.816848549970729E-010
   97.5650000000000         9.844364151518516E-010
   97.7550000000000         9.871889217973317E-010
   97.9450000000000         9.899431252726143E-010
   98.1350000000000         9.926996120545473E-010
   98.3250000000000         9.954587827043935E-010
   98.5150000000000         9.982207746071220E-010
   98.7050000000000         1.000985437281618E-009
   98.8950000000000         1.003752416858893E-009
   99.0850000000000         1.006521216606001E-009
   99.2750000000000         1.009291195188827E-009
   99.4650000000000         1.012061453207824E-009
   99.6550000000000         1.014830630519872E-009
   99.8450000000000         1.017597691060459E-009
   100.035000000000         1.020361529635463E-009
   100.225000000000         1.023121101637956E-009
   100.415000000000         1.025875558288867E-009
   100.605000000000         1.028624155663495E-009
   100.795000000000         1.031366300761695E-009
   100.985000000000         1.034101628449363E-009
   101.175000000000         1.036829869262612E-009
   101.365000000000         1.039551074359878E-009
   101.555000000000         1.042265143874284E-009
   101.745000000000         1.044972114300846E-009
   101.935000000000         1.047671965133183E-009
   102.125000000000         1.050364641286938E-009
   102.315000000000         1.053050238518167E-009
   102.505000000000         1.055728889216592E-009
   102.695000000000         1.058400745908669E-009
   102.885000000000         1.061065888023861E-009
   103.075000000000         1.063724425268179E-009
   103.265000000000         1.066376428536684E-009
   103.455000000000         1.069021897493027E-009
   103.645000000000         1.071660752306649E-009
   103.835000000000         1.074292830039863E-009
   104.025000000000         1.076917943254256E-009
   104.215000000000         1.079535773992922E-009
   104.405000000000         1.082146114690932E-009
   104.595000000000         1.084748780581575E-009
   104.785000000000         1.087343412217043E-009
   104.975000000000         1.089929377344398E-009
   105.165000000000         1.092505872701424E-009
   105.355000000000         1.095072158356434E-009
   105.545000000000         1.097627676908279E-009
   105.735000000000         1.100172032595826E-009
   105.925000000000         1.102705004520534E-009
   106.115000000000         1.105226564209538E-009
   106.305000000000         1.107736810704881E-009
   106.495000000000         1.110235990371302E-009
   106.685000000000         1.112724278874760E-009
   106.875000000000         1.115202093412258E-009
   107.065000000000         1.117669655830618E-009
   107.255000000000         1.120127465632907E-009
   107.445000000000         1.122576218051501E-009
   107.635000000000         1.125016710194044E-009
   107.825000000000         1.127449789525729E-009
   108.015000000000         1.129876291503185E-009
   108.205000000000         1.132296994893626E-009
   108.395000000000         1.134712761192367E-009
   108.585000000000         1.137124867103435E-009
   108.775000000000         1.139534866568188E-009
   108.965000000000         1.141943876237314E-009
   109.155000000000         1.144352759699331E-009
   109.345000000000         1.146761681777203E-009
   109.535000000000         1.149170953960594E-009
   109.725000000000         1.151580555843008E-009
   109.915000000000         1.153990443174873E-009
   110.105000000000         1.156400528524531E-009