  -1.42500000000000        -3.142890886857576E-019
  -1.23500000000000        -8.079780102704926E-017
  -1.04500000000000        -6.613838988997842E-016
 -0.855000000000000        -3.041074863111949E-015
 -0.665000000000000        -9.324228009499659E-015
 -0.475000000000000        -2.641994068512643E-014
 -0.285000000000000        -8.097858234368432E-014
 -9.499999999999975E-002   -2.240278939766510E-013
  9.500000000000020E-002   -4.277905356888529E-013
  0.285000000000000        -6.240916930957191E-013
  0.475000000000000        -1.064643080960681E-012
  0.665000000000000        -1.742942577610667E-012
  0.855000000000000        -2.024720475828756E-012
   1.04500000000000        -2.654334452353543E-012
   1.23500000000000        -3.370338554186232E-012
   1.42500000000000        -3.350294265036097E-012
   1.61500000000000        -3.673258314883621E-012
   1.80500000000000        -3.768130619898893E-012
   1.99500000000000        -3.784009457418324E-012
   2.18500000000000        -3.704265901687669E-012
   2.37500000000000        -3.561075738430402E-012
   2.56500000000000        -3.430131074685584E-012
   2.75500000000000        -3.218079683299931E-012
   2.94500000000000        -3.042176681714607E-012
   3.13500000000000        -2.855811391695789E-012
   3.32500000000000        -2.744711344699958E-012
   3.51500000000000        -2.561456459860137E-012
   3.70500000000000        -2.441397476391804E-012
   3.89500000000000        -2.324055233955474E-012
   4.08500000000000        -2.222473758604218E-012
   4.27500000000000        -2.112576768749347E-012
   4.46500000000000        -1.988433710013712E-012
   4.65500000000000        -1.934758797566313E-012
   4.84500000000000        -1.985866142036230E-012
   5.03500000000000        -2.100948980570246E-012
   5.22500000000000        -2.163742091346245E-012
   5.41500000000000        -2.106517545892121E-012
   5.60500000000000        -1.993755237955229E-012
   5.79500000000000        -1.810639110841824E-012
   5.98500000000000        -1.532828403043879E-012
   6.17500000000000        -1.294176391262834E-012
   6.36500000000000        -9.868402978069986E-013
   6.55500000000000        -1.082677214974384E-012
   6.74500000000000        -1.210626822924817E-012
   6.93500000000000        -1.379025921604347E-012
   7.12500000000000        -1.999828136358449E-012
   7.31500000000000        -2.450195258206771E-012
   7.50500000000000        -2.982948529006307E-012
   7.69500000000000        -3.508273304225218E-012
   7.88500000000000        -3.936899993831030E-012
   8.07500000000000        -4.394379725093345E-012
   8.26500000000000        -4.416640233728513E-012
   8.45500000000000        -4.639135124189110E-012
   8.64500000000000        -4.775582164212300E-012
   8.83500000000000        -4.737642912605522E-012
   9.02500000000000        -4.255045711311380E-012
   9.21500000000000        -3.304577038620024E-012
   9.40500000000000        -2.937763083285471E-012
   9.59500000000000        -2.430716388804890E-012
   9.78500000000000        -1.403039755685568E-012
   9.97500000000000        -7.149704393964025E-013
   10.1650000000000        -4.126219376755737E-013
   10.3550000000000        -3.394012244678943E-013
   10.5450000000000        -8.276286569849864E-014
   10.7350000000000         1.635307979698066E-014
   10.9250000000000         3.199122257196703E-014
   11.1150000000000         5.133936780254671E-014
   11.3050000000000         3.905976894340338E-014
   11.4950000000000        -1.418353885761071E-013
   11.6850000000000        -4.541880269730988E-013
   11.8750000000000        -7.801867558632472E-013
   12.0650000000000        -1.083370360753181E-012
   12.2550000000000        -1.330011474983111E-012
   12.4450000000000        -1.550364573826593E-012
   12.6350000000000        -1.613197807457336E-012
   12.8250000000000        -1.596477871895306E-012
   13.0150000000000        -1.576830295093808E-012
   13.2050000000000        -1.447849412279584E-012
   13.3950000000000        -1.251029488477333E-012
   13.5850000000000        -9.679082438208607E-013
   13.7750000000000        -7.734047907437631E-013
   13.9650000000000        -6.542177734347408E-013
   14.1550000000000        -5.830963565408042E-013
   14.3450000000000        -5.050112687499593E-013
   14.5350000000000        -4.980831777505822E-013
   14.7250000000000        -5.930582978945656E-013
   14.9150000000000        -9.312195043949019E-013
   15.1050000000000        -1.347893231947897E-012
   15.2950000000000        -1.719481779180045E-012
   15.4850000000000        -2.108853090405354E-012
   15.6750000000000        -2.205094900447334E-012
   15.8650000000000        -2.415459711223373E-012
   16.0550000000000        -2.632544543419869E-012
   16.2450000000000        -2.713261829650815E-012
   16.4350000000000        -2.795855337533220E-012
   16.6250000000000        -2.878305665596073E-012
   16.8150000000000        -3.007539744305266E-012
   17.0050000000000        -3.001650094215207E-012
   17.1950000000000        -3.081619348319167E-012
   17.3850000000000        -3.078118695789378E-012
   17.5750000000000        -3.103425244801945E-012
   17.7650000000000        -3.100193827950592E-012
   17.9550000000000        -3.094224814187404E-012
   18.1450000000000        -3.086236130850412E-012
   18.3350000000000        -3.070160517766891E-012
   18.5250000000000        -3.039379404871837E-012
   18.7150000000000        -2.978976913511182E-012
   18.9050000000000        -2.931097822728860E-012
   19.0950000000000        -2.946590283756378E-012
   19.2850000000000        -2.976513199916757E-012
   19.4750000000000        -2.963776575636200E-012
   19.6650000000000        -2.983556274489410E-012
   19.8550000000000        -2.841782384840844E-012
   20.0450000000000        -2.694486730002089E-012
   20.2350000000000        -2.491738676235666E-012
   20.4250000000000        -2.255287282208078E-012
   20.6150000000000        -1.991925677816329E-012
   20.8050000000000        -1.805535363048538E-012
   20.9950000000000        -1.661855120430946E-012
   21.1850000000000        -1.609364419342717E-012
   21.3750000000000        -1.491704376051831E-012
   21.5650000000000        -1.532366010189687E-012
   21.7550000000000        -1.612460220590222E-012
   21.9450000000000        -1.828292930222029E-012
   22.1350000000000        -2.171043704308603E-012
   22.3250000000000        -2.913411938036028E-012
   22.5150000000000        -3.484030546213479E-012
   22.7050000000000        -4.037061478616545E-012
   22.8950000000000        -4.545262163192877E-012
   23.0850000000000        -4.923704035505393E-012
   23.2750000000000        -5.203548504393537E-012
   23.4650000000000        -5.328407930455126E-012
   23.6550000000000        -5.637010011618517E-012
   23.8450000000000        -5.750591721094870E-012
   24.0350000000000        -5.807956205235831E-012
   24.2250000000000        -5.696983895601493E-012
   24.4150000000000        -5.498337742588922E-012
   24.6050000000000        -5.184515072018200E-012
   24.7950000000000        -4.936371103222752E-012
   24.9850000000000        -4.404920106928587E-012
   25.1750000000000        -4.168062488784597E-012
   25.3650000000000        -3.535953040933610E-012
   25.5550000000000        -3.305898815034379E-012
   25.7450000000000        -2.500582372057387E-012
   25.9350000000000        -2.225397769260742E-012
   26.1250000000000        -1.917504036514169E-012
   26.3150000000000        -1.641769191540353E-012
   26.5050000000000        -1.454615311069479E-012
   26.6950000000000        -1.434842063164507E-012
   26.8850000000000        -1.497160550704171E-012
   27.0750000000000        -1.693712777657156E-012
   27.2650000000000        -2.081619877805473E-012
   27.4550000000000        -2.332512471649178E-012
   27.6450000000000        -2.519355247639723E-012
   27.8350000000000        -2.574262779825370E-012
   28.0250000000000        -2.609831460280928E-012
   28.2150000000000        -2.550578746425238E-012
   28.4050000000000        -2.307647772304141E-012
   28.5950000000000        -1.550073552991544E-012
   28.7850000000000        -9.068818026853767E-013
   28.9750000000000        -5.149652699698933E-013
   29.1650000000000        -1.500340563866488E-013
   29.3550000000000         9.465691596146088E-013
   29.5450000000000         1.733829588893834E-012
   29.7350000000000         2.545836103058008E-012
   29.9250000000000         3.319533881934650E-012
   30.1150000000000         3.893602515779786E-012
   30.3050000000000         4.108089058603797E-012
   30.4950000000000         4.413754571262714E-012
   30.6850000000000         4.373130440070844E-012
   30.8750000000000         4.004199408027545E-012
   31.0650000000000         3.628551008520946E-012
   31.2550000000000         2.658035427282661E-012
   31.4450000000000         1.833827690440388E-012
   31.6350000000000         1.120058870683388E-012
   31.8250000000000        -7.222039908964986E-014
   32.0150000000000        -9.021730884530697E-013
   32.2050000000000        -1.463516195015644E-012
   32.3950000000000        -2.684051526324257E-012
   32.5850000000000        -3.145962148061377E-012
   32.7750000000000        -3.064873395521241E-012
   32.9650000000000        -3.252831580405311E-012
   33.1550000000000        -3.303698013734666E-012
   33.3450000000000        -3.340574921633074E-012
   33.5350000000000        -3.177762600467261E-012
   33.7250000000000        -2.720990322182792E-012
   33.9150000000000        -2.106845215308611E-012
   34.1050000000000        -1.469121865580366E-012
   34.2950000000000        -1.005298046165833E-012
   34.4850000000000        -7.179645235530566E-013
   34.6750000000000        -4.248578753776204E-013
   34.8650000000000        -4.002666613065510E-013
   35.0550000000000        -5.407117402102013E-013
   35.2450000000000        -9.617525336541230E-013
   35.4350000000000        -1.473770057593720E-012
   35.6250000000000        -1.927059298507425E-012
   35.8150000000000        -2.370745443939796E-012
   36.0050000000000        -2.646866418480897E-012
   36.1950000000000        -2.911924053127252E-012
   36.3850000000000        -3.014393074614980E-012
   36.5750000000000        -3.011985508750668E-012
   36.7650000000000        -3.068780776999180E-012
   36.9550000000000        -3.010686677862647E-012
   37.1450000000000        -2.860755737652361E-012
   37.3350000000000        -2.714660437693777E-012
   37.5250000000000        -2.563314585090765E-012
   37.7150000000000        -2.422131493377341E-012
   37.9050000000000        -2.335224944109030E-012
   38.0950000000000        -2.335100557647165E-012
   38.2850000000000        -2.543223163732312E-012
   38.4750000000000        -3.295929730875795E-012
   38.6650000000000        -3.507529503802756E-012
   38.8550000000000        -4.425795581291066E-012
   39.0450000000000        -5.186530792413995E-012
   39.2350000000000        -5.948073361202026E-012
   39.4250000000000        -6.392438313053714E-012
   39.6150000000000        -7.203161896365387E-012
   39.8050000000000        -8.028177417658955E-012
   39.9950000000000        -8.004541983280526E-012
   40.1850000000000        -8.189166034154730E-012
   40.3750000000000        -8.274364800667907E-012
   40.5650000000000        -8.278051625278684E-012
   40.7550000000000        -8.102761651792640E-012
   40.9450000000000        -7.582371669508955E-012
   41.1350000000000        -6.733499991837910E-012
   41.3250000000000        -5.721949253937089E-012
   41.5150000000000        -4.852092654817868E-012
   41.7050000000000        -4.053323993485104E-012
   41.8950000000000        -3.158396549738513E-012
   42.0850000000000        -2.415210142972203E-012
   42.2750000000000        -1.742742891029941E-012
   42.4650000000000        -1.012329794591693E-012
   42.6550000000000        -5.481916380406225E-013
   42.8450000000000         2.520939362760503E-014
   43.0350000000000         3.554766904046998E-013
   43.2250000000000         5.025898166890349E-013
   43.4150000000000         1.046348867381057E-012
   43.6050000000000         1.117064056609379E-012
   43.7950000000000         1.254364304793344E-012
   43.9850000000000         1.375776890596847E-012
   44.1750000000000         1.414917200488228E-012
   44.3650000000000         1.162387082918253E-012
   44.5550000000000         4.099654410557747E-013
   44.7450000000000        -8.330881301823227E-013
   44.9350000000000        -1.548352669678830E-012
   45.1250000000000        -1.993836654260964E-012
   45.3150000000000        -2.839477636473281E-012
   45.5050000000000        -3.560252840795003E-012
   45.6950000000000        -4.175770474388058E-012
   45.8850000000000        -4.958714375839180E-012
   46.0750000000000        -4.819173412434136E-012
   46.2650000000000        -4.968609996705151E-012
   46.4550000000000        -4.967297928319332E-012
   46.6450000000000        -4.710734072045884E-012
   46.8350000000000        -3.851177779733769E-012
   47.0250000000000        -2.935522153350272E-012
   47.2150000000000        -2.725746007969597E-012
   47.4050000000000        -2.011546487926413E-012
   47.5950000000000        -1.220286628137834E-012
   47.7850000000000        -3.580999524991231E-013
   47.9750000000000         5.329839209307725E-013
   48.1650000000000         1.219161761235413E-012
   48.3550000000000         1.582795100525201E-012
   48.5450000000000         1.529505497691619E-012
   48.7350000000000         1.671541309591073E-012
   48.9250000000000         1.727342004329542E-012
   49.1150000000000         1.613263244279363E-012
   49.3050000000000         1.065059734899138E-012
   49.4950000000000        -3.982298939797636E-015
   49.6850000000000        -1.243940962557997E-012
   49.8750000000000        -2.174619086546419E-012
   50.0650000000000        -3.158854226438533E-012
   50.2550000000000        -3.978700223363122E-012
   50.4450000000000        -4.554094617892470E-012
   50.6350000000000        -4.315880978690356E-012
   50.8250000000000        -5.135915495206320E-012
   51.0150000000000        -5.120624300274989E-012
   51.2050000000000        -5.168175877560130E-012
   51.3950000000000        -5.172224998267710E-012
   51.5850000000000        -4.371479048741198E-012
   51.7750000000000        -3.138744198238830E-012
   51.9650000000000        -2.326968397967666E-012
   52.1550000000000        -1.726086023376737E-012
   52.3450000000000        -7.879024166968713E-013
   52.5350000000000        -2.528226214763284E-013
   52.7250000000000        -8.545527290730380E-014
   52.9150000000000        -2.795398478963723E-013
   53.1050000000000        -2.636260302062516E-013
   53.2950000000000        -4.051708904549796E-013
   53.4850000000000        -8.684533310037360E-013
   53.6750000000000        -1.594208464320748E-012
   53.8650000000000        -2.075573021244292E-012
   54.0550000000000        -2.614051005409649E-012
   54.2450000000000        -3.172576445880423E-012
   54.4350000000000        -3.712370114226920E-012
   54.6250000000000        -4.148189812603779E-012
   54.8150000000000        -4.574562459357938E-012
   55.0050000000000        -4.828799813157126E-012
   55.1950000000000        -4.956904696320361E-012
   55.3850000000000        -5.225510832835590E-012
   55.5750000000000        -5.266552698516041E-012
   55.7650000000000        -5.240981155319120E-012
   55.9550000000000        -5.080009415636290E-012
   56.1450000000000        -4.369432908381510E-012
   56.3350000000000        -3.604779252889823E-012
   56.5250000000000        -3.021942196937882E-012
   56.7150000000000        -2.415353208612484E-012
   56.9050000000000        -1.885421384040139E-012
   57.0950000000000        -1.422189185608121E-012
   57.2850000000000        -1.431424952488120E-012
   57.4750000000000        -1.139600334636073E-012
   57.6650000000000        -1.034141804648875E-012
   57.8550000000000        -9.835563888247148E-013
   58.0450000000000        -8.971357568079459E-013
   58.2350000000000        -8.744805411333112E-013
   58.4250000000000        -9.519941462948107E-013
   58.6150000000000        -1.062257436471227E-012
   58.8050000000000        -1.172851259517092E-012
   58.9950000000000        -1.355213675208340E-012
   59.1850000000000        -1.528697237095741E-012
   59.3750000000000        -1.686215437087393E-012
   59.5650000000000        -1.841535310063837E-012
   59.7550000000000        -2.003877536159770E-012
   59.9450000000000        -2.125519338438764E-012
   60.1350000000000        -2.173997998801292E-012
   60.3250000000000        -2.062996075628918E-012
   60.5150000000000        -1.718053382014851E-012
   60.7050000000000        -1.349517318222029E-012
   60.8950000000000        -1.030621814386901E-012
   61.0850000000000        -5.456627672152307E-013
   61.2750000000000        -1.284751228679802E-013
   61.4650000000000         3.053584641673752E-013
   61.6550000000000         4.458704448720455E-013
   61.8450000000000         6.101564997454183E-013
   62.0350000000000         6.823679694719879E-013
   62.2250000000000         8.683728174422316E-013
   62.4150000000000         9.844689175047801E-013
   62.6050000000000         1.101541452690065E-012
   62.7950000000000         1.174244538479309E-012
   62.9850000000000         1.237835976075775E-012
   63.1750000000000         1.238479259391623E-012
   63.3650000000000         1.145654598719271E-012
   63.5550000000000         9.163485541450039E-013
   63.7450000000000         5.446874238105636E-013
   63.9350000000000         1.850720612665112E-013
   64.1250000000000        -1.437030159169382E-013
   64.3150000000000        -4.594697875087584E-013
   64.5050000000000        -7.321220324959899E-013
   64.6950000000000        -1.029557312260789E-012
   64.8850000000000        -1.136251936344884E-012
   65.0750000000000        -1.361326379545688E-012
   65.2650000000000        -1.507775344290336E-012
   65.4550000000000        -1.606181536079820E-012
   65.6450000000000        -1.724087692531760E-012
   65.8350000000000        -1.876001567916091E-012
   66.0250000000000        -1.964375604291298E-012
   66.2150000000000        -2.041136299775512E-012
   66.4050000000000        -2.134258238637974E-012
   66.5950000000000        -2.210742967645103E-012
   66.7850000000000        -2.236401821931693E-012
   66.9750000000000        -2.223112142935153E-012
   67.1650000000000        -2.208280471943385E-012
   67.3550000000000        -2.176847839492394E-012
   67.5450000000000        -2.133659938358134E-012
   67.7350000000000        -2.053819497405157E-012
   67.9250000000000        -1.969057608865445E-012
   68.1150000000000        -1.882894979891165E-012
   68.3050000000000        -1.879250584128220E-012
   68.4950000000000        -1.967797722207724E-012
   68.6850000000000        -2.089184382688092E-012
   68.8750000000000        -2.234942759584407E-012
   69.0650000000000        -2.380759603091108E-012
   69.2550000000000        -2.528127386826217E-012
   69.4450000000000        -2.656190576396695E-012
   69.6350000000000        -2.765970988344670E-012
   69.8250000000000        -2.869645620271838E-012
   70.0150000000000        -3.097485450139225E-012
   70.2050000000000        -3.313314587261475E-012
   70.3950000000000        -3.548852828176651E-012
   70.5850000000000        -3.831224141441989E-012
   70.7750000000000        -4.243926461412996E-012
   70.9650000000000        -4.603598179619876E-012
   71.1550000000000        -5.252611336897544E-012
   71.3450000000000        -5.364058427574381E-012
   71.5350000000000        -5.966441434594344E-012
   71.7250000000000        -5.948323111355613E-012
   71.9150000000000        -6.219185778391230E-012
   72.1050000000000        -6.361498255998260E-012
   72.2950000000000        -6.409104027265913E-012
   72.4850000000000        -6.465423007836527E-012
   72.6750000000000        -6.511940020283703E-012
   72.8650000000000        -6.493854706518126E-012
   73.0550000000000        -6.359957775086815E-012
   73.2450000000000        -6.135852793816692E-012
   73.4350000000000        -5.740668773075128E-012
   73.6250000000000        -5.118404960474082E-012
   73.8150000000000        -4.394737763768423E-012
   74.0050000000000        -3.628581189688747E-012
   74.1950000000000        -2.983536073227964E-012
   74.3850000000000        -2.225480177993252E-012
   74.5750000000000        -1.634479626109477E-012
   74.7650000000000        -1.127804233947048E-012
   74.9550000000000        -8.456906437954393E-013
   75.1450000000000        -7.028467612277289E-013
   75.3350000000000        -7.046417021128343E-013
   75.5250000000000        -4.230386084887445E-013
   75.7150000000000        -3.023486510509674E-013
   75.9050000000000        -2.644647829035556E-013
   76.0950000000000        -3.736390756980493E-013
   76.2850000000000        -6.665380464309668E-013
   76.4750000000000        -9.822527569935521E-013
   76.6650000000000        -1.200919080984722E-012
   76.8550000000000        -1.358229868723335E-012
   77.0450000000000        -1.384895341011389E-012
   77.2350000000000        -1.175652713271658E-012
   77.4250000000000        -5.481793275857316E-013
   77.6150000000000         2.582902193830467E-013
   77.8050000000000         9.038282710648802E-013
   77.9950000000000         1.544944822521039E-012
   78.1850000000000         2.132425643037599E-012
   78.3750000000000         2.594615139363342E-012
   78.5650000000000         2.790816371335082E-012
   78.7550000000000         2.991431164130971E-012
   78.9450000000000         3.035381083056470E-012
   79.1350000000000         3.119910451766336E-012
   79.3250000000000         3.129798874025516E-012
   79.5150000000000         3.098010416431606E-012
   79.7050000000000         2.761870401891483E-012
   79.8950000000000         1.995135370313210E-012
   80.0850000000000         9.381555667449441E-013
   80.2750000000000        -7.489964829324209E-014
   80.4650000000000        -7.077884875720691E-013
   80.6550000000000        -1.554973922514158E-012
   80.8450000000000        -2.533732950344518E-012
   81.0350000000000        -3.468561208979682E-012
   81.2250000000000        -4.545503552159758E-012
   81.4150000000000        -5.469174079244889E-012
   81.6050000000000        -6.008833445829669E-012
   81.7950000000000        -5.807821809512488E-012
   81.9850000000000        -6.036727154837166E-012
   82.1750000000000        -6.101933130810028E-012
   82.3650000000000        -5.933281050142549E-012
   82.5550000000000        -5.228795459070217E-012
   82.7450000000000        -4.269273146536688E-012
   82.9350000000000        -3.426964982873089E-012
   83.1250000000000        -2.803155870376822E-012
   83.3150000000000        -2.442898673206082E-012
   83.5050000000000        -2.120122396220431E-012
   83.6950000000000        -2.116324992070857E-012
   83.8850000000000        -1.401989430631375E-012
   84.0750000000000        -1.479125679409782E-012
   84.2650000000000        -1.489826850540527E-012
   84.4550000000000        -1.460405237886905E-012
   84.6450000000000        -1.491151322496101E-012
   84.8350000000000        -1.565096215803928E-012
   85.0250000000000        -1.663190755833986E-012
   85.2150000000000        -1.814114135618872E-012
   85.4050000000000        -2.111757068677915E-012
   85.5950000000000        -2.518958306719050E-012
   85.7850000000000        -2.816377845675587E-012
   85.9750000000000        -3.017493515945051E-012
   86.1650000000000        -3.164329004112234E-012
   86.3550000000000        -3.282319825224256E-012
   86.5450000000000        -3.358749249964823E-012
   86.7350000000000        -3.426917492654888E-012
   86.9250000000000        -3.486285676007863E-012
   87.1150000000000        -3.547355626118020E-012
   87.3050000000000        -3.689337932305415E-012
   87.4950000000000        -3.842931278793180E-012
   87.6850000000000        -3.895203509916870E-012
   87.8750000000000        -3.945486531012792E-012
   88.0650000000000        -4.003068575647028E-012
   88.2550000000000        -4.021764751812414E-012
   88.4450000000000        -4.018582749723334E-012
   88.6350000000000        -4.021563258059246E-012
   88.8250000000000        -4.102484822525015E-012
   89.0150000000000        -4.148471648915454E-012
   89.2050000000000        -3.830125907230015E-012
   89.3950000000000        -3.411381835654001E-012
   89.5850000000000        -2.937838583300765E-012
   89.7750000000000        -2.794234210435669E-012
   89.9650000000000        -2.522458434481369E-012
   90.1550000000000        -2.311463907121776E-012
   90.3450000000000        -2.202208623226791E-012
   90.5350000000000        -2.012269968461375E-012
   90.7250000000000        -1.809017938539926E-012
   90.9150000000000        -1.608411115345760E-012
   91.1050000000000        -1.402540873552418E-012
   91.2950000000000        -1.205765725731046E-012
   91.4850000000000        -8.987764124620350E-013
   91.6750000000000        -5.515611998234853E-013
   91.8650000000000        -2.522186036084543E-013
   92.0550000000000        -2.568186326323833E-014
   92.2450000000000         1.230259263624179E-013
   92.4350000000000         3.305063160733639E-013
   92.6250000000000         5.520115198542893E-013
   92.8150000000000         7.196070379256439E-013
   93.0050000000000         8.971049000986937E-013
   93.1950000000000         9.064476849569732E-013
   93.3850000000000         6.644707998719969E-013
   93.5750000000000         1.891923505843804E-013
   93.7650000000000        -4.559601582419589E-013
   93.9550000000000        -9.405145563104462E-013
   94.1450000000000        -1.357552000132950E-012
   94.3350000000000        -1.803495290011900E-012
   94.5250000000000        -2.076126948607720E-012
   94.7150000000000        -2.294491890186120E-012
   94.9050000000000        -2.635706660123561E-012
   95.0950000000000        -2.764674956748464E-012
   95.2850000000000        -3.011279957063902E-012
   95.4750000000000        -3.022263749332662E-012
   95.6650000000000        -3.097783422837151E-012
   95.8550000000000        -3.059962978783108E-012
   96.0450000000000        -2.999936658099221E-012
   96.2350000000000        -2.838503652017940E-012
   96.4250000000000        -2.623520689717687E-012
   96.6150000000000        -2.386905884172057E-012
   96.8050000000000        -2.094827748914657E-012
   96.9950000000000        -1.855715154658918E-012
   97.1850000000000        -1.712238050907498E-012
   97.3750000000000        -1.705773010232293E-012
   97.5650000000000        -1.694788303524444E-012
   97.7550000000000        -1.757915063320392E-012
   97.9450000000000        -1.889383692076729E-012
   98.1350000000000        -2.098395753207062E-012
   98.3250000000000        -2.310797864411365E-012
   98.5150000000000        -2.470968931160091E-012
   98.7050000000000        -2.533156041515762E-012
   98.8950000000000        -2.479655728052464E-012
   99.0850000000000        -2.339111660929714E-012
   99.2750000000000        -2.014092341646959E-012
   99.4650000000000        -1.302026594166343E-012
   99.6550000000000        -6.620051713954870E-013
   99.8450000000000         2.301429994324962E-013
   100.035000000000         9.701176740092654E-013
   100.225000000000         1.697211191543743E-012
   100.415000000000         2.539001079708854E-012
   100.605000000000         3.359513760265517E-012
   100.795000000000         4.193916721751478E-012
   100.985000000000         4.665006383324493E-012
   101.175000000000         4.491188914063966E-012
   101.365000000000         4.938681923136568E-012
   101.555000000000         5.007950754409734E-012
   101.745000000000         4.971347251186727E-012
   101.935000000000         4.155533842086297E-012
   102.125000000000         2.638575664938788E-012
   102.315000000000         1.974741212304369E-012
   102.505000000000         9.963219987231715E-013
   102.695000000000        -2.748741361183207E-013
   102.885000000000        -1.403061385178326E-012
   103.075000000000        -2.377335377988575E-012
   103.265000000000        -3.403539430016418E-012
   103.455000000000        -4.434708137120413E-012
   103.645000000000        -4.790408439502435E-012
   103.835000000000        -4.755688120508874E-012
   104.025000000000        -4.857467238325533E-012
   104.215000000000        -4.947151971517334E-012
   104.405000000000        -4.914256672081531E-012
   104.595000000000        -4.834146903526286E-012
   104.785000000000        -4.652073614725358E-012
   104.975000000000        -4.351787717941050E-012
   105.165000000000        -4.038288998545968E-012
   105.355000000000        -3.758714210983720E-012
   105.545000000000        -3.488571214773360E-012
   105.735000000000        -3.224577585559455E-012
   105.925000000000        -2.989154051640985E-012
   106.115000000000        -2.781660170246125E-012
   106.305000000000        -2.524232542291128E-012
   106.495000000000        -2.417862596509630E-012
   106.685000000000        -2.220798196890344E-012
   106.875000000000        -2.169046785825672E-012
   107.065000000000        -2.091035802686971E-012
   107.255000000000        -2.015737220268138E-012
   107.445000000000        -1.995489772843579E-012
   107.635000000000        -1.984367576789847E-012
   107.825000000000        -1.983619491707448E-012
   108.015000000000        -1.988327864853063E-012
   108.205000000000        -1.982986798429559E-012
   108.395000000000        -1.967226364454161E-012
   108.585000000000        -1.868206315154788E-012
   108.775000000000        -1.720436410062719E-012
   108.965000000000        -1.547687695475105E-012
   109.155000000000        -1.436446661942388E-012
   109.345000000000        -1.313476423013739E-012
   109.535000000000        -1.238362312855493E-012
   109.725000000000        -1.190078211755755E-012
   109.915000000000        -1.159177780442019E-012
   110.105000000000        -1.157057988740498E-012