  -1.42500000000000         0.000000000000000E+000
  -1.23500000000000         1.610213550350209E-020
  -1.04500000000000         4.175332091019218E-019
 -0.855000000000000         3.308005788780662E-018
 -0.665000000000000         8.125835552573400E-018
 -0.475000000000000         3.238631047425908E-017
 -0.285000000000000         2.050790791933964E-016
 -9.499999999999975E-002    9.321209638359043E-016
  9.500000000000020E-002    2.878786394823973E-015
  0.285000000000000         6.243807446381772E-015
  0.475000000000000         1.250042575390155E-014
  0.665000000000000         2.584331813420436E-014
  0.855000000000000         5.009349621603425E-014
   1.04500000000000         8.827781861588034E-014
   1.23500000000000         1.483253457861382E-013
   1.42500000000000         2.404011272157226E-013
   1.61500000000000         3.702954281817583E-013
   1.80500000000000         5.452102474693084E-013
   1.99500000000000         7.768265930183831E-013
   2.18500000000000         1.074281098634648E-012
   2.37500000000000         1.443780211334259E-012
   2.56500000000000         1.894039703066419E-012
   2.75500000000000         2.437402341939783E-012
   2.94500000000000         3.079568180289424E-012
   3.13500000000000         3.834948285814730E-012
   3.32500000000000         4.691025403859900E-012
   3.51500000000000         5.647931550376773E-012
   3.70500000000000         6.707459501496115E-012
   3.89500000000000         7.869845887910908E-012
   4.08500000000000         9.134262596934390E-012
   4.27500000000000         1.049939364866570E-011
   4.46500000000000         1.196377094724963E-011
   4.65500000000000         1.352524033016928E-011
   4.84500000000000         1.518128315729340E-011
   5.03500000000000         1.692872082904329E-011
   5.22500000000000         1.876573824285808E-011
   5.41500000000000         2.069159925936451E-011
   5.60500000000000         2.269684365343938E-011
   5.79500000000000         2.476904651604999E-011
   5.98500000000000         2.690557850924931E-011
   6.17500000000000         2.910076994757471E-011
   6.36500000000000         3.135300006429995E-011
   6.55500000000000         3.365996987278476E-011
   6.74500000000000         3.601449943888055E-011
   6.93500000000000         3.840641764522520E-011
   7.12500000000000         4.083337262420638E-011
   7.31500000000000         4.328654711363019E-011
   7.50500000000000         4.576921046189566E-011
   7.69500000000000         4.827520271379953E-011
   7.88500000000000         5.080630824514584E-011
   8.07500000000000         5.336179009761534E-011
   8.26500000000000         5.594701920878321E-011
   8.45500000000000         5.856332399979648E-011
   8.64500000000000         6.121834769977805E-011
   8.83500000000000         6.391945690287137E-011
   9.02500000000000         6.667051716853379E-011
   9.21500000000000         6.946247109772921E-011
   9.40500000000000         7.231252888039406E-011
   9.59500000000000         7.522759115844300E-011
   9.78500000000000         7.821335761414566E-011
   9.97500000000000         8.127009046179669E-011
   10.1650000000000         8.439683905472938E-011
   10.3550000000000         8.758874339774917E-011
   10.5450000000000         9.085301102794189E-011
   10.7350000000000         9.419008335611892E-011
   10.9250000000000         9.760010003835037E-011
   11.1150000000000         1.010834066981337E-010
   11.3050000000000         1.046402040130394E-010
   11.4950000000000         1.082720684444513E-010
   11.6850000000000         1.119823656075620E-010
   11.8750000000000         1.157741473060115E-010
   12.0650000000000         1.196493011094917E-010
   12.2550000000000         1.236087042896186E-010
   12.4450000000000         1.276509007418903E-010
   12.6350000000000         1.317719832954775E-010
   12.8250000000000         1.359709653221620E-010
   13.0150000000000         1.402376616739583E-010
   13.2050000000000         1.445683567268531E-010
   13.3950000000000         1.489570733958650E-010
   13.5850000000000         1.533809087318326E-010
   13.7750000000000         1.578452797386230E-010
   13.9650000000000         1.623434928553812E-010
   14.1550000000000         1.668735890428875E-010
   14.3450000000000         1.714356894010833E-010
   14.5350000000000         1.760263281672067E-010
   14.7250000000000         1.806470942509009E-010
   14.9150000000000         1.853024581365633E-010
   15.1050000000000         1.900018330457458E-010
   15.2950000000000         1.947448204178553E-010
   15.4850000000000         1.995323410518912E-010
   15.6750000000000         2.043697171315560E-010
   15.8650000000000         2.092628574558695E-010
   16.0550000000000         2.142172505101680E-010
   16.2450000000000         2.192311005936083E-010
   16.4350000000000         2.243163328414267E-010
   16.6250000000000         2.294805103084433E-010
   16.8150000000000         2.347335004598214E-010
   17.0050000000000         2.400704607796259E-010
   17.1950000000000         2.454898369596575E-010
   17.3850000000000         2.509981139542087E-010
   17.5750000000000         2.565951733682588E-010
   17.7650000000000         2.622846740076654E-010
   17.9550000000000         2.680669346312194E-010
   18.1450000000000         2.739423466187643E-010
   18.3350000000000         2.799117486484155E-010
   18.5250000000000         2.859758204627961E-010
   18.7150000000000         2.921345001320264E-010
   18.9050000000000         2.983843648726667E-010
   19.0950000000000         3.047195824713718E-010
   19.2850000000000         3.111361947672874E-010
   19.4750000000000         3.176295948738496E-010
   19.6650000000000         3.241845630781555E-010
   19.8550000000000         3.307780779549151E-010
   20.0450000000000         3.374185101449808E-010
   20.2350000000000         3.441041111692196E-010
   20.4250000000000         3.508265698869212E-010
   20.6150000000000         3.575773013159434E-010
   20.8050000000000         3.643488078435154E-010
   20.9950000000000         3.711366026732606E-010
   21.1850000000000         3.779363072348493E-010
   21.3750000000000         3.847506862909209E-010
   21.5650000000000         3.915734975620500E-010
   21.7550000000000         3.984049776067426E-010
   21.9450000000000         4.052446081987362E-010
   22.1350000000000         4.120990261745370E-010
   22.3250000000000         4.189702352299461E-010
   22.5150000000000         4.258608370964632E-010
   22.7050000000000         4.327708412771061E-010
   22.8950000000000         4.397085878050887E-010
   23.0850000000000         4.466784582061760E-010
   23.2750000000000         4.536833318484528E-010
   23.4650000000000         4.607246432229200E-010
   23.6550000000000         4.678192749739536E-010
   23.8450000000000         4.749703668057983E-010
   24.0350000000000         4.821837622252375E-010
   24.2250000000000         4.894721381544872E-010
   24.4150000000000         4.968407794839959E-010
   24.6050000000000         5.042974421008210E-010
   24.7950000000000         5.118407056874070E-010
   24.9850000000000         5.194910278540062E-010
   25.1750000000000         5.272408082689024E-010
   25.3650000000000         5.350986632027846E-010
   25.5550000000000         5.430678847973684E-010
   25.7450000000000         5.511419770808073E-010
   25.9350000000000         5.593232234947711E-010
   26.1250000000000         5.676060157751470E-010
   26.3150000000000         5.759861911770647E-010
   26.5050000000000         5.844603092335674E-010
   26.6950000000000         5.930240585406649E-010
   26.8850000000000         6.016757108678676E-010
   27.0750000000000         6.104136837663966E-010
   27.2650000000000         6.192346302544239E-010
   27.4550000000000         6.281154362509417E-010
   27.6450000000000         6.370505660412321E-010
   27.8350000000000         6.460353515629337E-010
   28.0250000000000         6.550839529960716E-010
   28.2150000000000         6.641787803207913E-010
   28.4050000000000         6.733205230444792E-010
   28.5950000000000         6.824978952857250E-010
   28.7850000000000         6.917078062181718E-010
   28.9750000000000         7.009387154472912E-010
   29.1650000000000         7.101890168489001E-010
   29.3550000000000         7.194568426861306E-010
   29.5450000000000         7.287387988314887E-010
   29.7350000000000         7.380266548268183E-010
   29.9250000000000         7.473173816838625E-010
   30.1150000000000         7.566113048007401E-010
   30.3050000000000         7.659102897436270E-010
   30.4950000000000         7.752186417297140E-010
   30.6850000000000         7.845337936210386E-010
   30.8750000000000         7.938678209670534E-010
   31.0650000000000         8.032203895625379E-010
   31.2550000000000         8.126016138470488E-010
   31.4450000000000         8.220230189326236E-010
   31.6350000000000         8.314948115593644E-010
   31.8250000000000         8.410275074212099E-010
   32.0150000000000         8.506310413898932E-010
   32.2050000000000         8.603149454250782E-010
   32.3950000000000         8.700972198553473E-010
   32.5850000000000         8.799847157079779E-010
   32.7750000000000         8.899862473846482E-010
   32.9650000000000         9.001086344496805E-010
   33.1550000000000         9.103552875170176E-010
   33.3450000000000         9.207240705891491E-010
   33.5350000000000         9.312167204024543E-010
   33.7250000000000         9.418283711177967E-010
   33.9150000000000         9.525515719037398E-010
   34.1050000000000         9.633804649068768E-010
   34.2950000000000         9.743053512179144E-010
   34.4850000000000         9.853214986052773E-010
   34.6750000000000         9.964227151303318E-010
   34.8650000000000         1.007600718006173E-009
   35.0550000000000         1.018842154670256E-009
   35.2450000000000         1.030155274303134E-009
   35.4350000000000         1.041533301501039E-009
   35.6250000000000         1.052976045591112E-009
   35.8150000000000         1.064477912692438E-009
   36.0050000000000         1.076032725126319E-009
   36.1950000000000         1.087636227147321E-009
   36.3850000000000         1.099281530950202E-009
   36.5750000000000         1.110972156193247E-009
   36.7650000000000         1.122695684171574E-009
   36.9550000000000         1.134451737398218E-009
   37.1450000000000         1.146233619435037E-009
   37.3350000000000         1.158040224496910E-009
   37.5250000000000         1.169869858493043E-009
   37.7150000000000         1.181721531432428E-009
   37.9050000000000         1.193595617270072E-009
   38.0950000000000         1.205494738630925E-009
   38.2850000000000         1.217422914777704E-009
   38.4750000000000         1.229390378725747E-009
   38.6650000000000         1.241398828089563E-009
   38.8550000000000         1.253454223240569E-009
   39.0450000000000         1.265562732604775E-009
   39.2350000000000         1.277730604506203E-009
   39.4250000000000         1.289964732757843E-009
   39.6150000000000         1.302270103249682E-009
   39.8050000000000         1.314655834242386E-009
   39.9950000000000         1.327134260881748E-009
   40.1850000000000         1.339705150737378E-009
   40.3750000000000         1.352370426819064E-009
   40.5650000000000         1.365132063725080E-009
   40.7550000000000         1.377992546018838E-009
   40.9450000000000         1.390947835063442E-009
   41.1350000000000         1.403992920801729E-009
   41.3250000000000         1.417124971064628E-009
   41.5150000000000         1.430335838277124E-009
   41.7050000000000         1.443617527800109E-009
   41.8950000000000         1.456967586071014E-009
   42.0850000000000         1.470389033535700E-009
   42.2750000000000         1.483874164878636E-009
   42.4650000000000         1.497412984448829E-009
   42.6550000000000         1.511006210234776E-009
   42.8450000000000         1.524654840692944E-009
   43.0350000000000         1.538350861751555E-009
   43.2250000000000         1.552098383520452E-009
   43.4150000000000         1.565896993051143E-009
   43.6050000000000         1.579744951652472E-009
   43.7950000000000         1.593640573558935E-009
   43.9850000000000         1.607579003523269E-009
   44.1750000000000         1.621560723920096E-009
   44.3650000000000         1.635586294965757E-009
   44.5550000000000         1.649659742484233E-009
   44.7450000000000         1.663779250364736E-009
   44.9350000000000         1.677948221979085E-009
   45.1250000000000         1.692164456301251E-009
   45.3150000000000         1.706428807058186E-009
   45.5050000000000         1.720747404897445E-009
   45.6950000000000         1.735126358403628E-009
   45.8850000000000         1.749577613494642E-009
   46.0750000000000         1.764111398219447E-009
   46.2650000000000         1.778731952494216E-009
   46.4550000000000         1.793444117267120E-009
   46.6450000000000         1.808248637179971E-009
   46.8350000000000         1.823144880871405E-009
   47.0250000000000         1.838127792975048E-009
   47.2150000000000         1.853197407356956E-009
   47.4050000000000         1.868351921612858E-009
   47.5950000000000         1.883587813038251E-009
   47.7850000000000         1.898903090434147E-009
   47.9750000000000         1.914293585057261E-009
   48.1650000000000         1.929756999149807E-009
   48.3550000000000         1.945280605305534E-009
   48.5450000000000         1.960856680435873E-009
   48.7350000000000         1.976480899079209E-009
   48.9250000000000         1.992148000919136E-009
   49.1150000000000         2.007853938097176E-009
   49.3050000000000         2.023596042029453E-009
   49.4950000000000         2.039371704432688E-009
   49.6850000000000         2.055182154732146E-009
   49.8750000000000         2.071025952172001E-009
   50.0650000000000         2.086898142864546E-009
   50.2550000000000         2.102795616824814E-009
   50.4450000000000         2.118720003196594E-009
   50.6350000000000         2.134680097547032E-009
   50.8250000000000         2.150669426041306E-009
   51.0150000000000         2.166689602907343E-009
   51.2050000000000         2.182740016101035E-009
   51.3950000000000         2.198826082120381E-009
   51.5850000000000         2.214954468988172E-009
   51.7750000000000         2.231114705728437E-009
   51.9650000000000         2.247307798929342E-009
   52.1550000000000         2.263552583813282E-009
   52.3450000000000         2.279851400444046E-009
   52.5350000000000         2.296219086892280E-009
   52.7250000000000         2.312662847216139E-009
   52.9150000000000         2.329185184971832E-009
   53.1050000000000         2.345794659595924E-009
   53.2950000000000         2.362505425023038E-009
   53.4850000000000         2.379325036842546E-009
   53.6750000000000         2.396260386074319E-009
   53.8650000000000         2.413318315490837E-009
   54.0550000000000         2.430504850144918E-009
   54.2450000000000         2.447824244302255E-009
   54.4350000000000         2.465276838803580E-009
   54.6250000000000         2.482863475569614E-009
   54.8150000000000         2.500583950844103E-009
   55.0050000000000         2.518440271872220E-009
   55.1950000000000         2.536428970296123E-009
   55.3850000000000         2.554543961451040E-009
   55.5750000000000         2.572782262772173E-009
   55.7650000000000         2.591141107992657E-009
   55.9550000000000         2.609615025432299E-009
   56.1450000000000         2.628186603747767E-009
   56.3350000000000         2.646857016308295E-009
   56.5250000000000         2.665611989700098E-009
   56.7150000000000         2.684444321066490E-009
   56.9050000000000         2.703341662648759E-009
   57.0950000000000         2.722282748594125E-009
   57.2850000000000         2.741267031064379E-009
   57.4750000000000         2.760278553280660E-009
   57.6650000000000         2.779306123797116E-009
   57.8550000000000         2.798344328565587E-009
   58.0450000000000         2.817381270510490E-009
   58.2350000000000         2.836422607138796E-009
   58.4250000000000         2.855466650575098E-009
   58.6150000000000         2.874510968481161E-009
   58.8050000000000         2.893555949474935E-009
   58.9950000000000         2.912601119449432E-009
   59.1850000000000         2.931648634106126E-009
   59.3750000000000         2.950700623905840E-009
   59.5650000000000         2.969757828672579E-009
   59.7550000000000         2.988820532150205E-009
   59.9450000000000         3.007890667307688E-009
   60.1350000000000         3.026971662669863E-009
   60.3250000000000         3.046068111730040E-009
   60.5150000000000         3.065190482753854E-009
   60.7050000000000         3.084339683003149E-009
   60.8950000000000         3.103522318474969E-009
   61.0850000000000         3.122736850923002E-009
   61.2750000000000         3.141976882232747E-009
   61.4650000000000         3.161273913762350E-009
   61.6550000000000         3.180628579430620E-009
   61.8450000000000         3.200056712944629E-009
   62.0350000000000         3.219565110095026E-009
   62.2250000000000         3.239163486246731E-009
   62.4150000000000         3.258857340773692E-009
   62.6050000000000         3.278658526631243E-009
   62.7950000000000         3.298576471550115E-009
   62.9850000000000         3.318608621486818E-009
   63.1750000000000         3.338758456735103E-009
   63.3650000000000         3.359025162240121E-009
   63.5550000000000         3.379409336802547E-009
   63.7450000000000         3.399904124841663E-009
   63.9350000000000         3.420510187728536E-009
   64.1250000000000         3.441223274806077E-009
   64.3150000000000         3.462035761816481E-009
   64.5050000000000         3.482938232254361E-009
   64.6950000000000         3.503921926439524E-009
   64.8850000000000         3.524990606853742E-009
   65.0750000000000         3.546125491667028E-009
   65.2650000000000         3.567322806381721E-009
   65.4550000000000         3.588572736873737E-009
   65.6450000000000         3.609864058812174E-009
   65.8350000000000         3.631191148230163E-009
   66.0250000000000         3.652549333188690E-009
   66.2150000000000         3.673928660371167E-009
   66.4050000000000         3.695331830788602E-009
   66.5950000000000         3.716754188574770E-009
   66.7850000000000         3.738194969459930E-009
   66.9750000000000         3.759649817916874E-009
   67.1650000000000         3.781119768406449E-009
   67.3550000000000         3.802607789608957E-009
   67.5450000000000         3.824117773796831E-009
   67.7350000000000         3.845653943979847E-009
   67.9250000000000         3.867218389120917E-009
   68.1150000000000         3.888823699217148E-009
   68.3050000000000         3.910479334198105E-009
   68.4950000000000         3.932191324231406E-009
   68.6850000000000         3.953968940005894E-009
   68.8750000000000         3.975817672808457E-009
   69.0650000000000         3.997741721559152E-009
   69.2550000000000         4.019745074159489E-009
   69.4450000000000         4.041832385466792E-009
   69.6350000000000         4.064008397513801E-009
   69.8250000000000         4.086276585142377E-009
   70.0150000000000         4.108637607559261E-009
   70.2050000000000         4.131093523491897E-009
   70.3950000000000         4.153641987491065E-009
   70.5850000000000         4.176284758999235E-009
   70.7750000000000         4.199020051945793E-009
   70.9650000000000         4.221851277448274E-009
   71.1550000000000         4.244779829970238E-009
   71.3450000000000         4.267809318140543E-009
   71.5350000000000         4.290932586723028E-009
   71.7250000000000         4.314151167846797E-009
   71.9150000000000         4.337465353862689E-009
   72.1050000000000         4.360875913012101E-009
   72.2950000000000         4.384386746326721E-009
   72.4850000000000         4.407996125926568E-009
   72.6750000000000         4.431701664464973E-009
   72.8650000000000         4.455500446724567E-009
   73.0550000000000         4.479387361231062E-009
   73.2450000000000         4.503359771289848E-009
   73.4350000000000         4.527414783466092E-009
   73.6250000000000         4.551544950685154E-009
   73.8150000000000         4.575752462568063E-009
   74.0050000000000         4.600033468130027E-009
   74.1950000000000         4.624383313811054E-009
   74.3850000000000         4.648800030332749E-009
   74.5750000000000         4.673286893115616E-009
   74.7650000000000         4.697840220007774E-009
   74.9550000000000         4.722455324004653E-009
   75.1450000000000         4.747132119102721E-009
   75.3350000000000         4.771871313679082E-009
   75.5250000000000         4.796679338244227E-009
   75.7150000000000         4.821557500411108E-009
   75.9050000000000         4.846504190938404E-009
   76.0950000000000         4.871519587326178E-009
   76.2850000000000         4.896605073608782E-009
   76.4750000000000         4.921761467603768E-009
   76.6650000000000         4.946987956325974E-009
   76.8550000000000         4.972281967413782E-009
   77.0450000000000         4.997642672230370E-009
   77.2350000000000         5.023064960162545E-009
   77.4250000000000         5.048544033211892E-009
   77.6150000000000         5.074075455544962E-009
   77.8050000000000         5.099657672056464E-009
   77.9950000000000         5.125288304198998E-009
   78.1850000000000         5.150962997526557E-009
   78.3750000000000         5.176678428023032E-009
   78.5650000000000         5.202425121516509E-009
   78.7550000000000         5.228203093358344E-009
   78.9450000000000         5.254013349927359E-009
   79.1350000000000         5.279851106549371E-009
   79.3250000000000         5.305711819881372E-009
   79.5150000000000         5.331594752377441E-009
   79.7050000000000         5.357501183023115E-009
   79.8950000000000         5.383439608407358E-009
   80.0850000000000         5.409415209983293E-009
   80.2750000000000         5.435440186147473E-009
   80.4650000000000         5.461517285829077E-009
   80.6550000000000         5.487638597370550E-009
   80.8450000000000         5.513802346374255E-009
   81.0350000000000         5.540011803466522E-009
   81.2250000000000         5.566274275923634E-009
   81.4150000000000         5.592602052747164E-009
   81.6050000000000         5.619005986038292E-009
   81.7950000000000         5.645485626453867E-009
   81.9850000000000         5.672039737095069E-009
   82.1750000000000         5.698683902874871E-009
   82.3650000000000         5.725413398847939E-009
   82.5550000000000         5.752238431290767E-009
   82.7450000000000         5.779149034109295E-009
   82.9350000000000         5.806142394069541E-009
   83.1250000000000         5.833223126756315E-009
   83.3150000000000         5.860397232993914E-009
   83.5050000000000         5.887668318986916E-009
   83.6950000000000         5.915042376767438E-009
   83.8850000000000         5.942528583764159E-009
   84.0750000000000         5.970129549792826E-009
   84.2650000000000         5.997843753314230E-009
   84.4550000000000         6.025672562990612E-009
   84.6450000000000         6.053615453816003E-009
   84.8350000000000         6.081672830990916E-009
   85.0250000000000         6.109843844513268E-009
   85.2150000000000         6.138126170518976E-009
   85.4050000000000         6.166519438771647E-009
   85.5950000000000         6.195015465144670E-009
   85.7850000000000         6.223617520776646E-009
   85.9750000000000         6.252331760780127E-009
   86.1650000000000         6.281144833410428E-009
   86.3550000000000         6.310047806865139E-009
   86.5450000000000         6.339031986738547E-009
   86.7350000000000         6.368088164054256E-009
   86.9250000000000         6.397208220592589E-009
   87.1150000000000         6.426376056413090E-009
   87.3050000000000         6.455588538815564E-009
   87.4950000000000         6.484836522740281E-009
   87.6850000000000         6.514106496813549E-009
   87.8750000000000         6.543387759537103E-009
   88.0650000000000         6.572680541955466E-009
   88.2550000000000         6.601987096491229E-009
   88.4450000000000         6.631304123990956E-009
   88.6350000000000         6.660627602079488E-009
   88.8250000000000         6.689955090828987E-009
   89.0150000000000         6.719291424157043E-009
   89.2050000000000         6.748640937532369E-009
   89.3950000000000         6.778016542029606E-009
   89.5850000000000         6.807411956939131E-009
   89.7750000000000         6.836832640949500E-009
   89.9650000000000         6.866292293775096E-009
   90.1550000000000         6.895794161575187E-009
   90.3450000000000         6.925349957077667E-009
   90.5350000000000         6.954979562786479E-009
   90.7250000000000         6.984694609622370E-009
   90.9150000000000         7.014501664363147E-009
   91.1050000000000         7.044412462601346E-009
   91.2950000000000         7.074440382053498E-009
   91.4850000000000         7.104592438204488E-009
   91.6750000000000         7.134876174712051E-009
   91.8650000000000         7.165292587455267E-009
   92.0550000000000         7.195843277085080E-009
   92.2450000000000         7.226530466020535E-009
   92.4350000000000         7.257354889514565E-009
   92.6250000000000         7.288312576796897E-009
   92.8150000000000         7.319403151462945E-009
   93.0050000000000         7.350624989798494E-009
   93.1950000000000         7.381975586307720E-009
   93.3850000000000         7.413440144332728E-009
   93.5750000000000         7.445019322300805E-009
   93.7650000000000         7.476721769705455E-009
   93.9550000000000         7.508529249681583E-009
   94.1450000000000         7.540418885139093E-009
   94.3350000000000         7.572385061473929E-009
   94.5250000000000         7.604415921103338E-009
   94.7150000000000         7.636495930366125E-009
   94.9050000000000         7.668617950598090E-009
   95.0950000000000         7.700781211716643E-009
   95.2850000000000         7.732973493021299E-009
   95.4750000000000         7.765193196788843E-009
   95.6650000000000         7.797440739934904E-009
   95.8550000000000         7.829706667100584E-009
   96.0450000000000         7.861993336010849E-009
   96.2350000000000         7.894297117262450E-009
   96.4250000000000         7.926613202147847E-009
   96.6150000000000         7.958936569211782E-009
   96.8050000000000         7.991263102173672E-009
   96.9950000000000         8.023592654432865E-009
   97.1850000000000         8.055929688901189E-009
   97.3750000000000         8.088281003614496E-009
   97.5650000000000         8.120649073821639E-009
   97.7550000000000         8.153047555718288E-009
   97.9450000000000         8.185482511647395E-009
   98.1350000000000         8.217958195683536E-009
   98.3250000000000         8.250476337725528E-009
   98.5150000000000         8.283046722938007E-009
   98.7050000000000         8.315677761697893E-009
   98.8950000000000         8.348377536952616E-009
   99.0850000000000         8.381151826131580E-009
   99.2750000000000         8.414004998305583E-009
   99.4650000000000         8.446938937223295E-009
   99.6550000000000         8.479953947307310E-009
   99.8450000000000         8.513052568857006E-009
   100.035000000000         8.546252553661705E-009
   100.225000000000         8.579550540673712E-009
   100.415000000000         8.612948740766788E-009
   100.605000000000         8.646446602509287E-009
   100.795000000000         8.680043178045478E-009
   100.985000000000         8.713730988293905E-009
   101.175000000000         8.747505862658896E-009
   101.365000000000         8.781372352771048E-009
   101.555000000000         8.815322793683111E-009
   101.745000000000         8.849357904875441E-009
   101.935000000000         8.883477992771874E-009
   102.125000000000         8.917686337983872E-009
   102.315000000000         8.951986046308532E-009
   102.505000000000         8.986370152394180E-009
   102.695000000000         9.020836918605401E-009
   102.885000000000         9.055385146179157E-009
   103.075000000000         9.090018182757374E-009
   103.265000000000         9.124739803360422E-009
   103.455000000000         9.159548107844740E-009
   103.645000000000         9.194442387699291E-009
   103.835000000000         9.229419937741364E-009
   104.025000000000         9.264470828550113E-009
   104.215000000000         9.299587160976252E-009
   104.405000000000         9.334770320006066E-009
   104.595000000000         9.370016530211098E-009
   104.785000000000         9.405321143920212E-009
   104.975000000000         9.440681349691750E-009
   105.165000000000         9.476099512027282E-009
   105.355000000000         9.511576987377340E-009
   105.545000000000         9.547118790571050E-009
   105.735000000000         9.582728065259504E-009
   105.925000000000         9.618404296178929E-009
   106.115000000000         9.654143423688318E-009
   106.305000000000         9.689941029385719E-009
   106.495000000000         9.725793832663783E-009
   106.685000000000         9.761703177459000E-009
   106.875000000000         9.797665737927603E-009
   107.065000000000         9.833682130714427E-009
   107.255000000000         9.869747911794650E-009
   107.445000000000         9.905861508522715E-009
   107.635000000000         9.942023158014678E-009
   107.825000000000         9.978234877445884E-009
   108.015000000000         1.001449826209985E-008
   108.205000000000         1.005081365506009E-008
   108.395000000000         1.008718080611727E-008
   108.585000000000         1.012360238504729E-008
   108.775000000000         1.016007735784773E-008
   108.965000000000         1.019660768667918E-008
   109.155000000000         1.023319572016100E-008
   109.345000000000         1.026984013288336E-008
   109.535000000000         1.030654222373228E-008
   109.725000000000         1.034330079488104E-008
   109.915000000000         1.038011683416359E-008
   110.105000000000         1.041699457694401E-008