  -1.42500000000000         0.000000000000000E+000
  -1.23500000000000         1.083227423203748E-020
  -1.04500000000000         2.654117110415080E-019
 -0.855000000000000         4.923520335112915E-018
 -0.665000000000000         7.101664060962811E-019
 -0.475000000000000         6.276943143552616E-017
 -0.285000000000000         2.679753441391651E-016
 -9.499999999999975E-002    5.549083454562932E-016
  9.500000000000020E-002    1.868238091664320E-015
  0.285000000000000         4.932489534425080E-015
  0.475000000000000         1.020817158422694E-014
  0.665000000000000         2.590229849322306E-014
  0.855000000000000         5.155790366062428E-014
   1.04500000000000         1.009562591153148E-013
   1.23500000000000         1.755153570187936E-013
   1.42500000000000         2.895364564266544E-013
   1.61500000000000         4.566075027933826E-013
   1.80500000000000         6.834853007760484E-013
   1.99500000000000         9.813450335236243E-013
   2.18500000000000         1.374193244160545E-012
   2.37500000000000         1.876048466180800E-012
   2.56500000000000         2.500909711707600E-012
   2.75500000000000         3.259821893173490E-012
   2.94500000000000         4.173415102248755E-012
   3.13500000000000         5.262763058058579E-012
   3.32500000000000         6.534145004550810E-012
   3.51500000000000         7.972006250687052E-012
   3.70500000000000         9.579004278884557E-012
   3.89500000000000         1.135830891283653E-011
   4.08500000000000         1.331051520697130E-011
   4.27500000000000         1.543332519103707E-011
   4.46500000000000         1.772321023865598E-011
   4.65500000000000         2.017383304961661E-011
   4.84500000000000         2.277837390514158E-011
   5.03500000000000         2.553704113063344E-011
   5.22500000000000         2.844371796033372E-011
   5.41500000000000         3.149788859568299E-011
   5.60500000000000         3.468247993290692E-011
   5.79500000000000         3.797509472093141E-011
   5.98500000000000         4.137408780548610E-011
   6.17500000000000         4.488271349471210E-011
   6.36500000000000         4.848374262078116E-011
   6.55500000000000         5.216538856254810E-011
   6.74500000000000         5.591979223117130E-011
   6.93500000000000         5.973556042147988E-011
   7.12500000000000         6.360377130716872E-011
   7.31500000000000         6.751023678820022E-011
   7.50500000000000         7.145291899827707E-011
   7.69500000000000         7.542416046110081E-011
   7.88500000000000         7.942172253869020E-011
   8.07500000000000         8.344959625213630E-011
   8.26500000000000         8.750882826573405E-011
   8.45500000000000         9.160854504565702E-011
   8.64500000000000         9.576096031341201E-011
   8.83500000000000         9.996961765837327E-011
   9.02500000000000         1.042433222391980E-010
   9.21500000000000         1.085854717664325E-010
   9.40500000000000         1.130167007277801E-010
   9.59500000000000         1.175487129389172E-010
   9.78500000000000         1.221910206974562E-010
   9.97500000000000         1.269540569150921E-010
   10.1650000000000         1.318358248331847E-010
   10.3550000000000         1.368314793066785E-010
   10.5450000000000         1.419414276119297E-010
   10.7350000000000         1.471681177340125E-010
   10.9250000000000         1.525143745123932E-010
   11.1150000000000         1.579811621983038E-010
   11.3050000000000         1.635692611573787E-010
   11.4950000000000         1.692840429116724E-010
   11.6850000000000         1.751304645678863E-010
   11.8750000000000         1.811104447737732E-010
   12.0650000000000         1.872270329172846E-010
   12.2550000000000         1.934786461426603E-010
   12.4450000000000         1.998613244759483E-010
   12.6350000000000         2.063697092724322E-010
   12.8250000000000         2.130055976377298E-010
   13.0150000000000         2.197383348304748E-010
   13.2050000000000         2.265635164216755E-010
   13.3950000000000         2.334664906220639E-010
   13.5850000000000         2.404397996165634E-010
   13.7750000000000         2.474841130929333E-010
   13.9650000000000         2.545861810456565E-010
   14.1550000000000         2.617362887437308E-010
   14.3450000000000         2.689366306587719E-010
   14.5350000000000         2.761828035190501E-010
   14.7250000000000         2.834800330100843E-010
   14.9150000000000         2.908349390605182E-010
   15.1050000000000         2.982542740942369E-010
   15.2950000000000         3.057403081251853E-010
   15.4850000000000         3.132987004392255E-010
   15.6750000000000         3.209386368718813E-010
   15.8650000000000         3.286672313738698E-010
   16.0550000000000         3.364880388340613E-010
   16.2450000000000         3.444065064851410E-010
   16.4350000000000         3.524248380468727E-010
   16.6250000000000         3.605576041261217E-010
   16.8150000000000         3.688218345836121E-010
   17.0050000000000         3.772210742982857E-010
   17.1950000000000         3.857524120455297E-010
   17.3850000000000         3.944256408229926E-010
   17.5750000000000         4.032397563905069E-010
   17.7650000000000         4.122023245474978E-010
   17.9550000000000         4.213180173453123E-010
   18.1450000000000         4.305911197421906E-010
   18.3350000000000         4.400231095749842E-010
   18.5250000000000         4.496124793223438E-010
   18.7150000000000         4.593561209465273E-010
   18.9050000000000         4.692434242483550E-010
   19.0950000000000         4.792726012606991E-010
   19.2850000000000         4.894228570860457E-010
   19.4750000000000         4.996954564908757E-010
   19.6650000000000         5.100606022129785E-010
   19.8550000000000         5.205020499872150E-010
   20.0450000000000         5.310251916523209E-010
   20.2350000000000         5.416143217412599E-010
   20.4250000000000         5.522606182376007E-010
   20.6150000000000         5.629557218156641E-010
   20.8050000000000         5.736898562562490E-010
   20.9950000000000         5.844464706657856E-010
   21.1850000000000         5.952235456926182E-010
   21.3750000000000         6.060198221744399E-010
   21.5650000000000         6.168289711308901E-010
   21.7550000000000         6.276502458161332E-010
   21.9450000000000         6.384797830077886E-010
   22.1350000000000         6.493245678385650E-010
   22.3250000000000         6.601806962863629E-010
   22.5150000000000         6.710430689227976E-010
   22.7050000000000         6.819224254431991E-010
   22.8950000000000         6.928276635607848E-010
   23.0850000000000         7.037624528261312E-010
   23.2750000000000         7.147356436170340E-010
   23.4650000000000         7.257600625869962E-010
   23.6550000000000         7.368341401879746E-010
   23.8450000000000         7.479810969261570E-010
   24.0350000000000         7.592127480897247E-010
   24.2250000000000         7.705341091678264E-010
   24.4150000000000         7.819649879914922E-010
   24.6050000000000         7.935253270009946E-010
   24.7950000000000         8.052321718973896E-010
   24.9850000000000         8.170914951289019E-010
   25.1750000000000         8.291217133111651E-010
   25.3650000000000         8.413269819159287E-010
   25.5550000000000         8.537038185128709E-010
   25.7450000000000         8.662580129520376E-010
   25.9350000000000         8.789912590949044E-010
   26.1250000000000         8.918946861663948E-010
   26.3150000000000         9.049625247445951E-010
   26.5050000000000         9.181789563292727E-010
   26.6950000000000         9.315374895699747E-010
   26.8850000000000         9.450357095581011E-010
   27.0750000000000         9.586627285847989E-010
   27.2650000000000         9.724144047913508E-010
   27.4550000000000         9.862678907084523E-010
   27.6450000000000         1.000212437166922E-009
   27.8350000000000         1.014235837599175E-009
   28.0250000000000         1.028349201059887E-009
   28.2150000000000         1.042530605665269E-009
   28.4050000000000         1.056775501554080E-009
   28.5950000000000         1.071075000010398E-009
   28.7850000000000         1.085421665820580E-009
   28.9750000000000         1.099797468692546E-009
   29.1650000000000         1.114200244673972E-009
   29.3550000000000         1.128622576472439E-009
   29.5450000000000         1.143069185744852E-009
   29.7350000000000         1.157539525057636E-009
   29.9250000000000         1.172031511606347E-009
   30.1150000000000         1.186543019036254E-009
   30.3050000000000         1.201077702227565E-009
   30.4950000000000         1.215640291467225E-009
   30.6850000000000         1.230237538723762E-009
   30.8750000000000         1.244883694211402E-009
   31.0650000000000         1.259586608532799E-009
   31.2550000000000         1.274353326037507E-009
   31.4450000000000         1.289188513405645E-009
   31.6350000000000         1.304105789601378E-009
   31.8250000000000         1.319128585066263E-009
   32.0150000000000         1.334264096032995E-009
   32.2050000000000         1.349531229916295E-009
   32.3950000000000         1.364939958453173E-009
   32.5850000000000         1.380507107712653E-009
   32.7750000000000         1.396247517189988E-009
   32.9650000000000         1.412182566115251E-009
   33.1550000000000         1.428312628170884E-009
   33.3450000000000         1.444646949957233E-009
   33.5350000000000         1.461185020571114E-009
   33.7250000000000         1.477916390130000E-009
   33.9150000000000         1.494840150882808E-009
   34.1050000000000         1.511949988767250E-009
   34.2950000000000         1.529237257161414E-009
   34.4850000000000         1.546696034454590E-009
   34.6750000000000         1.564305064429589E-009
   34.8650000000000         1.582058131453387E-009
   35.0550000000000         1.599936287848835E-009
   35.2450000000000         1.617936711456002E-009
   35.4350000000000         1.636064152471121E-009
   35.6250000000000         1.654299139385936E-009
   35.8150000000000         1.672626584205031E-009
   36.0050000000000         1.691031286702301E-009
   36.1950000000000         1.709498079273227E-009
   36.3850000000000         1.728019695691686E-009
   36.5750000000000         1.746594505673104E-009
   36.7650000000000         1.765198249134263E-009
   36.9550000000000         1.783835763599685E-009
   37.1450000000000         1.802490928618452E-009
   37.3350000000000         1.821161901140273E-009
   37.5250000000000         1.839847192726043E-009
   37.7150000000000         1.858550975595365E-009
   37.9050000000000         1.877279027746654E-009
   38.0950000000000         1.896040244503464E-009
   38.2850000000000         1.914841407271241E-009
   38.4750000000000         1.933694173657319E-009
   38.6650000000000         1.952606042999793E-009
   38.8550000000000         1.971596411511829E-009
   39.0450000000000         1.990672124371340E-009
   39.2350000000000         2.009841001788702E-009
   39.4250000000000         2.029116488744058E-009
   39.6150000000000         2.048512865442027E-009
   39.8050000000000         2.068030477999867E-009
   39.9950000000000         2.087681824187906E-009
   40.1850000000000         2.107474832488865E-009
   40.3750000000000         2.127415892103248E-009
   40.5650000000000         2.147506634859377E-009
   40.7550000000000         2.167743550803640E-009
   40.9450000000000         2.188116161560058E-009
   41.1350000000000         2.208615630760719E-009
   41.3250000000000         2.229243176374142E-009
   41.5150000000000         2.249989329821312E-009
   41.7050000000000         2.270848591958862E-009
   41.8950000000000         2.291813639230799E-009
   42.0850000000000         2.312889009929177E-009
   42.2750000000000         2.334067765702509E-009
   42.4650000000000         2.355342150360093E-009
   42.6550000000000         2.376708873508460E-009
   42.8450000000000         2.398172222333739E-009
   43.0350000000000         2.419728365450077E-009
   43.2250000000000         2.441367950650797E-009
   43.4150000000000         2.463091427946178E-009
   43.6050000000000         2.484900638179034E-009
   43.7950000000000         2.506793052766321E-009
   43.9850000000000         2.528763103724554E-009
   44.1750000000000         2.550813498236114E-009
   44.3650000000000         2.572948085622747E-009
   44.5550000000000         2.595171216824371E-009
   44.7450000000000         2.617487226267424E-009
   44.9350000000000         2.639895302366078E-009
   45.1250000000000         2.662389233964869E-009
   45.3150000000000         2.684983895133088E-009
   45.5050000000000         2.707682651707463E-009
   45.6950000000000         2.730494636452772E-009
   45.8850000000000         2.753426001752277E-009
   46.0750000000000         2.776486711469163E-009
   46.2650000000000         2.799689037107879E-009
   46.4550000000000         2.823036775344014E-009
   46.6450000000000         2.846529941771852E-009
   46.8350000000000         2.870165821981164E-009
   47.0250000000000         2.893942097922517E-009
   47.2150000000000         2.917861950254986E-009
   47.4050000000000         2.941918087793351E-009
   47.5950000000000         2.966105325320214E-009
   47.7850000000000         2.990416612455421E-009
   47.9750000000000         3.014846442103385E-009
   48.1650000000000         3.039392888386174E-009
   48.3550000000000         3.064041060437961E-009
   48.5450000000000         3.088788580118096E-009
   48.7350000000000         3.113626103818679E-009
   48.9250000000000         3.138539994037772E-009
   49.1150000000000         3.163520776195763E-009
   49.3050000000000         3.188571699875291E-009
   49.4950000000000         3.213692615249266E-009
   49.6850000000000         3.238884488710111E-009
   49.8750000000000         3.264125365438078E-009
   50.0650000000000         3.289399597527139E-009
   50.2550000000000         3.314705488265039E-009
   50.4450000000000         3.340044684065901E-009
   50.6350000000000         3.365423298049550E-009
   50.8250000000000         3.390834541282243E-009
   51.0150000000000         3.416275960429252E-009
   51.2050000000000         3.441741157964417E-009
   51.3950000000000         3.467241782826459E-009
   51.5850000000000         3.492789787669542E-009
   51.7750000000000         3.518375555944079E-009
   51.9650000000000         3.544020823922423E-009
   52.1550000000000         3.569753547724533E-009
   52.3450000000000         3.595595096674432E-009
   52.5350000000000         3.621561470720162E-009
   52.7250000000000         3.647666447736861E-009
   52.9150000000000         3.673923381040765E-009
   53.1050000000000         3.700336698033014E-009
   53.2950000000000         3.726915993621751E-009
   53.4850000000000         3.753678910057202E-009
   53.6750000000000         3.780630932954834E-009
   53.8650000000000         3.807778996229983E-009
   54.0550000000000         3.835130103095138E-009
   54.2450000000000         3.862685521813186E-009
   54.4350000000000         3.890445929848086E-009
   54.6250000000000         3.918410331759124E-009
   54.8150000000000         3.946578777008391E-009
   55.0050000000000         3.974948738521754E-009
   55.1950000000000         4.003519229313496E-009
   55.3850000000000         4.032284894118389E-009
   55.5750000000000         4.061241651583929E-009
   55.7650000000000         4.090376396809607E-009
   55.9550000000000         4.119679618773828E-009
   56.1450000000000         4.149138820411689E-009
   56.3350000000000         4.178744135946882E-009
   56.5250000000000         4.208478959584032E-009
   56.7150000000000         4.238334526900776E-009
   56.9050000000000         4.268284038179173E-009
   57.0950000000000         4.298306626010531E-009
   57.2850000000000         4.328390373043006E-009
   57.4750000000000         4.358519997369192E-009
   57.6650000000000         4.388700815660495E-009
   57.8550000000000         4.418900832779090E-009
   58.0450000000000         4.449104250355262E-009
   58.2350000000000         4.479299074529345E-009
   58.4250000000000         4.509483761553501E-009
   58.6150000000000         4.539652267928336E-009
   58.8050000000000         4.569807079601364E-009
   58.9950000000000         4.599946049461663E-009
   59.1850000000000         4.630071193464353E-009
   59.3750000000000         4.660185441237885E-009
   59.5650000000000         4.690290267889794E-009
   59.7550000000000         4.720387512088939E-009
   59.9450000000000         4.750479112495518E-009
   60.1350000000000         4.780573461743565E-009
   60.3250000000000         4.810678692439449E-009
   60.5150000000000         4.840813942014335E-009
   60.7050000000000         4.870985289340260E-009
   60.8950000000000         4.901189304095082E-009
   61.0850000000000         4.931437680793631E-009
   61.2750000000000         4.961758384230700E-009
   61.4650000000000         4.992178457502569E-009
   61.6550000000000         5.022714559726208E-009
   61.8450000000000         5.053396636763259E-009
   62.0350000000000         5.084245278649923E-009
   62.2250000000000         5.115255944630433E-009
   62.4150000000000         5.146450270695385E-009
   62.6050000000000         5.177837579261101E-009
   62.7950000000000         5.209446753006432E-009
   62.9850000000000         5.241269472378275E-009
   63.1750000000000         5.273305575918939E-009
   63.3650000000000         5.305549768083507E-009
   63.5550000000000         5.337989570014386E-009
   63.7450000000000         5.370617344291073E-009
   63.9350000000000         5.403428931796685E-009
   64.1250000000000         5.436406908385818E-009
   64.3150000000000         5.469554456945032E-009
   64.5050000000000         5.502856353917912E-009
   64.6950000000000         5.536297777415961E-009
   64.8850000000000         5.569860790371256E-009
   65.0750000000000         5.603536462225913E-009
   65.2650000000000         5.637316860510428E-009
   65.4550000000000         5.671191903737109E-009
   65.6450000000000         5.705155740678640E-009
   65.8350000000000         5.739183254316028E-009
   66.0250000000000         5.773257273043415E-009
   66.2150000000000         5.807367122026391E-009
   66.4050000000000         5.841513610206475E-009
   66.5950000000000         5.875674785830518E-009
   66.7850000000000         5.909859845951824E-009
   66.9750000000000         5.944056097360032E-009
   67.1650000000000         5.978264716540039E-009
   67.3550000000000         6.012490308016672E-009
   67.5450000000000         6.046742853794676E-009
   67.7350000000000         6.081027038252566E-009
   67.9250000000000         6.115363320340032E-009
   68.1150000000000         6.149756878293451E-009
   68.3050000000000         6.184211789154243E-009
   68.4950000000000         6.218737504878016E-009
   68.6850000000000         6.253339132596422E-009
   68.8750000000000         6.288029825241874E-009
   69.0650000000000         6.322824132921245E-009
   69.2550000000000         6.357733272382037E-009
   69.4450000000000         6.392768193308021E-009
   69.6350000000000         6.427941517084668E-009
   69.8250000000000         6.463272764694811E-009
   70.0150000000000         6.498776545303096E-009
   70.2050000000000         6.534452514793893E-009
   70.3950000000000         6.570296910943164E-009
   70.5850000000000         6.606310973715467E-009
   70.7750000000000         6.642492100082661E-009
   70.9650000000000         6.678852706649121E-009
   71.1550000000000         6.715389488316244E-009
   71.3450000000000         6.752094775329913E-009
   71.5350000000000         6.788956765663694E-009
   71.7250000000000         6.825964784772148E-009
   71.9150000000000         6.863113100335678E-009
   72.1050000000000         6.900399370328784E-009
   72.2950000000000         6.937821704786331E-009
   72.4850000000000         6.975374968117717E-009
   72.6750000000000         7.013053997242455E-009
   72.8650000000000         7.050855876034856E-009
   73.0550000000000         7.088770782775142E-009
   73.2450000000000         7.126794288339646E-009
   73.4350000000000         7.164922764671192E-009
   73.6250000000000         7.203156096682870E-009
   73.8150000000000         7.241481026416072E-009
   74.0050000000000         7.279888450976222E-009
   74.1950000000000         7.318377331070776E-009
   74.3850000000000         7.356953512838419E-009
   74.5750000000000         7.395629517662315E-009
   74.7650000000000         7.434410119006455E-009
   74.9550000000000         7.473297359021331E-009
   75.1450000000000         7.512290795422066E-009
   75.3350000000000         7.551395650184812E-009
   75.5250000000000         7.590622052056423E-009
   75.7150000000000         7.629976848171659E-009
   75.9050000000000         7.669461148346176E-009
   76.0950000000000         7.709070409281472E-009
   76.2850000000000         7.748799580135513E-009
   76.4750000000000         7.788640685140917E-009
   76.6650000000000         7.828591161568312E-009
   76.8550000000000         7.868647466816319E-009
   77.0450000000000         7.908803220370729E-009
   77.2350000000000         7.949050747694817E-009
   77.4250000000000         7.989394942187394E-009
   77.6150000000000         8.029832266876953E-009
   77.8050000000000         8.070365189121408E-009
   77.9950000000000         8.110999069639062E-009
   78.1850000000000         8.151729813369125E-009
   78.3750000000000         8.192548908251700E-009
   78.5650000000000         8.233448591473496E-009
   78.7550000000000         8.274413930209622E-009
   78.9450000000000         8.315440274357593E-009
   79.1350000000000         8.356525331173887E-009
   79.3250000000000         8.397659245691191E-009
   79.5150000000000         8.438837581854478E-009
   79.7050000000000         8.480059776929534E-009
   79.8950000000000         8.521333119128331E-009
   80.0850000000000         8.562657750965066E-009
   80.2750000000000         8.604043922371735E-009
   80.4650000000000         8.645487612987517E-009
   80.6550000000000         8.686983931790379E-009
   80.8450000000000         8.728544813130032E-009
   81.0350000000000         8.770172309685505E-009
   81.2250000000000         8.811874992577099E-009
   81.4150000000000         8.853662633447415E-009
   81.6050000000000         8.895551534315280E-009
   81.7950000000000         8.937549716434695E-009
   81.9850000000000         8.979663116279712E-009
   82.1750000000000         9.021896874834838E-009
   82.3650000000000         9.064271214507758E-009
   82.5550000000000         9.106798787136601E-009
   82.7450000000000         9.149478486382840E-009
   82.9350000000000         9.192331686042466E-009
   83.1250000000000         9.235365972986877E-009
   83.3150000000000         9.278592057042165E-009
   83.5050000000000         9.322017802923354E-009
   83.6950000000000         9.365646021250499E-009
   83.8850000000000         9.409477419115239E-009
   84.0750000000000         9.453510897211272E-009
   84.2650000000000         9.497742063742762E-009
   84.4550000000000         9.542167014602872E-009
   84.6450000000000         9.586789611308829E-009
   84.8350000000000         9.631613965499942E-009
   85.0250000000000         9.676643349055549E-009
   85.2150000000000         9.721878460901388E-009
   85.4050000000000         9.767314383264674E-009
   85.5950000000000         9.812944537990376E-009
   85.7850000000000         9.858770142160074E-009
   85.9750000000000         9.904776652401984E-009
   86.1650000000000         9.950953813026069E-009
   86.3550000000000         9.997284140651463E-009
   86.5450000000000         1.004373322053506E-008
   86.7350000000000         1.009027907203727E-008
   86.9250000000000         1.013690233837882E-008
   87.1150000000000         1.018358796210391E-008
   87.3050000000000         1.023032368401592E-008
   87.4950000000000         1.027709503556148E-008
   87.6850000000000         1.032388523738321E-008
   87.8750000000000         1.037068339214199E-008
   88.0650000000000         1.041747559737759E-008
   88.2550000000000         1.046427526919931E-008
   88.4450000000000         1.051107751714081E-008
   88.6350000000000         1.055788204091844E-008
   88.8250000000000         1.060468815417260E-008
   89.0150000000000         1.065150404593574E-008
   89.2050000000000         1.069834143551041E-008
   89.3950000000000         1.074519821928054E-008
   89.5850000000000         1.079208429414406E-008
   89.7750000000000         1.083901436584510E-008
   89.9650000000000         1.088598931394775E-008
   90.1550000000000         1.093303217680000E-008
   90.3450000000000         1.098016121183736E-008
   90.5350000000000         1.102739796938991E-008
   90.7250000000000         1.107476127364056E-008
   90.9150000000000         1.112227056184892E-008
   91.1050000000000         1.116994427246336E-008
   91.2950000000000         1.121779950777557E-008
   91.4850000000000         1.126584263152584E-008
   91.6750000000000         1.131409615908354E-008
   91.8650000000000         1.136256639699607E-008
   92.0550000000000         1.141126911594084E-008
   92.2450000000000         1.146020869179659E-008
   92.4350000000000         1.150939610724375E-008
   92.6250000000000         1.155883494436343E-008
   92.8150000000000         1.160852022894495E-008
   93.0050000000000         1.165844263655196E-008
   93.1950000000000         1.170859312067427E-008
   93.3850000000000         1.175896200889483E-008
   93.5750000000000         1.180954702544396E-008
   93.7650000000000         1.186030806175940E-008
   93.9550000000000         1.191122370612144E-008
   94.1450000000000         1.196224932594024E-008
   94.3350000000000         1.201336824335567E-008
   94.5250000000000         1.206455719785001E-008
   94.7150000000000         1.211579887972402E-008
   94.9050000000000         1.216708783696206E-008
   95.0950000000000         1.221841148398774E-008
   95.2850000000000         1.226975073283564E-008
   95.4750000000000         1.232109867850594E-008
   95.6650000000000         1.237245124445278E-008
   95.8550000000000         1.242380315742679E-008
   96.0450000000000         1.247515372131111E-008
   96.2350000000000         1.252649504633221E-008
   96.4250000000000         1.257782320700726E-008
   96.6150000000000         1.262913583600147E-008
   96.8050000000000         1.268043527967436E-008
   96.9950000000000         1.273172129134212E-008
   97.1850000000000         1.278299455289350E-008
   97.3750000000000         1.283426268737761E-008
   97.5650000000000         1.288553605247599E-008
   97.7550000000000         1.293683205009247E-008
   97.9450000000000         1.298816526593673E-008
   98.1350000000000         1.303954621943919E-008
   98.3250000000000         1.309098543760747E-008
   98.5150000000000         1.314248939831702E-008
   98.7050000000000         1.319407762736977E-008
   98.8950000000000         1.324576459663944E-008
   99.0850000000000         1.329756627899491E-008
   99.2750000000000         1.334949473971261E-008
   99.4650000000000         1.340154440853416E-008
   99.6550000000000         1.345373161628840E-008
   99.8450000000000         1.350606931512399E-008
   100.035000000000         1.355856754364861E-008
   100.225000000000         1.361123227175599E-008
   100.415000000000         1.366406879675708E-008
   100.605000000000         1.371707870274339E-008
   100.795000000000         1.377026290769137E-008
   100.985000000000         1.382361486827416E-008
   101.175000000000         1.387713930328244E-008
   101.365000000000         1.393083753409843E-008
   101.555000000000         1.398470423851447E-008
   101.745000000000         1.403874441938724E-008
   101.935000000000         1.409296092740422E-008
   102.125000000000         1.414736276870487E-008
   102.315000000000         1.420193580430233E-008
   102.505000000000         1.425666677378358E-008
   102.695000000000         1.431156113126352E-008
   102.885000000000         1.436660522900724E-008
   103.075000000000         1.442178520057973E-008
   103.265000000000         1.447708510258374E-008
   103.455000000000         1.453248419616045E-008
   103.645000000000         1.458796726628816E-008
   103.835000000000         1.464352885642936E-008
   104.025000000000         1.469916461228522E-008
   104.215000000000         1.475485974941231E-008
   104.405000000000         1.481060902000712E-008
   104.595000000000         1.486641001382071E-008
   104.785000000000         1.492226195442993E-008
   104.975000000000         1.497816803609459E-008
   105.165000000000         1.503412577251703E-008
   105.355000000000         1.509013426152374E-008
   105.545000000000         1.514619757265373E-008
   105.735000000000         1.520232319251999E-008
   105.925000000000         1.525851960045196E-008
   106.115000000000         1.531479191262019E-008
   106.305000000000         1.537114000191773E-008
   106.495000000000         1.542756332051214E-008
   106.685000000000         1.548406398606971E-008
   106.875000000000         1.554064045530069E-008
   107.065000000000         1.559730215681887E-008
   107.255000000000         1.565404840288797E-008
   107.445000000000         1.571087924736207E-008
   107.635000000000         1.576779162685243E-008
   107.825000000000         1.582478351086497E-008
   108.015000000000         1.588185588448433E-008
   108.205000000000         1.593901274951988E-008
   108.395000000000         1.599625763047264E-008
   108.585000000000         1.605359010267881E-008
   108.775000000000         1.611101434223756E-008
   108.965000000000         1.616853128548496E-008
   109.155000000000         1.622614345572122E-008
   109.345000000000         1.628385103873040E-008
   109.535000000000         1.634166581441889E-008
   109.725000000000         1.639958592654743E-008
   109.915000000000         1.645761056491401E-008
   110.105000000000         1.651574017804130E-008