  -1.42500000000000         2.850598482115127E-020
  -1.23500000000000         6.984518711618632E-019
  -1.04500000000000         1.292812647600232E-017
 -0.855000000000000         1.170407092249430E-018
 -0.665000000000000         1.522260818431931E-016
 -0.475000000000000         7.033294150870249E-016
 -0.285000000000000         1.295102405317807E-015
 -9.499999999999975E-002    4.211217756645135E-015
  9.500000000000020E-002    1.151995049728630E-014
  0.285000000000000         2.194719340148060E-014
  0.475000000000000         5.518370778631053E-014
  0.665000000000000         1.088150844115721E-013
  0.855000000000000         1.975104226897150E-013
   1.04500000000000         3.262038246267616E-013
   1.23500000000000         4.962636771351042E-013
   1.42500000000000         7.397161730910226E-013
   1.61500000000000         1.036707485129984E-012
   1.80500000000000         1.380888238763791E-012
   1.99500000000000         1.817652482590782E-012
   2.18500000000000         2.354482717518888E-012
   2.37500000000000         2.965043335650145E-012
   2.56500000000000         3.641509018401811E-012
   2.75500000000000         4.401329975108300E-012
   2.94500000000000         5.270897802329184E-012
   3.13500000000000         6.212447111321204E-012
   3.32500000000000         7.129587349022299E-012
   3.51500000000000         8.012787564036177E-012
   3.70500000000000         8.911322795130224E-012
   3.89500000000000         9.819765600228279E-012
   4.08500000000000         1.072372704789614E-011
   4.27500000000000         1.161235534653861E-011
   4.46500000000000         1.247502068047249E-011
   4.65500000000000         1.330306228022528E-011
   4.84500000000000         1.411370547636011E-011
   5.03500000000000         1.490880014524247E-011
   5.22500000000000         1.568644069749880E-011
   5.41500000000000         1.641779466466633E-011
   5.60500000000000         1.704527927696950E-011
   5.79500000000000         1.760949440152414E-011
   5.98500000000000         1.817794414152813E-011
   6.17500000000000         1.870961793498701E-011
   6.36500000000000         1.916493438904210E-011
   6.55500000000000         1.956855160628990E-011
   6.74500000000000         1.992150489192581E-011
   6.93500000000000         2.022099756841420E-011
   7.12500000000000         2.045967464926401E-011
   7.31500000000000         2.065565181870619E-011
   7.50500000000000         2.082611492868578E-011
   7.69500000000000         2.097053563266614E-011
   7.88500000000000         2.111956787114601E-011
   8.07500000000000         2.128185717643113E-011
   8.26500000000000         2.147091787768610E-011
   8.45500000000000         2.171613696757361E-011
   8.64500000000000         2.200282266504269E-011
   8.83500000000000         2.232200506785798E-011
   9.02500000000000         2.267330028436637E-011
   9.21500000000000         2.308783812784750E-011
   9.40500000000000         2.358747676969647E-011
   9.59500000000000         2.414294728862124E-011
   9.78500000000000         2.475090520046039E-011
   9.97500000000000         2.538106351507509E-011
   10.1650000000000         2.599321681996440E-011
   10.3550000000000         2.659369152301334E-011
   10.5450000000000         2.720168007193140E-011
   10.7350000000000         2.782354447490391E-011
   10.9250000000000         2.845538016918777E-011
   11.1150000000000         2.909180696048817E-011
   11.3050000000000         2.974442292991721E-011
   11.4950000000000         3.042421950133574E-011
   11.6850000000000         3.112211016342332E-011
   11.8750000000000         3.183307460367973E-011
   12.0650000000000         3.254789833917660E-011
   12.2550000000000         3.324813568069379E-011
   12.4450000000000         3.392385034150484E-011
   12.6350000000000         3.459019253100394E-011
   12.8250000000000         3.518059357379623E-011
   13.0150000000000         3.567873364196221E-011
   13.2050000000000         3.612672576733977E-011
   13.3950000000000         3.651653472338930E-011
   13.5850000000000         3.688848018649860E-011
   13.7750000000000         3.722731955024522E-011
   13.9650000000000         3.750572539683520E-011
   14.1550000000000         3.776434108714590E-011
   14.3450000000000         3.801714414557731E-011
   14.5350000000000         3.827211145082204E-011
   14.7250000000000         3.855825142491632E-011
   14.9150000000000         3.887958180040170E-011
   15.1050000000000         3.922465543333442E-011
   15.2950000000000         3.959059564470677E-011
   15.4850000000000         3.999560196498939E-011
   15.6750000000000         4.044350245959045E-011
   15.8650000000000         4.091947884784220E-011
   16.0550000000000         4.141914502966102E-011
   16.2450000000000         4.193894529687190E-011
   16.4350000000000         4.250288852889623E-011
   16.6250000000000         4.314999088615659E-011
   16.8150000000000         4.385123729516898E-011
   17.0050000000000         4.455415121557252E-011
   17.1950000000000         4.527517506501759E-011
   17.3850000000000         4.601932722362430E-011
   17.5750000000000         4.678074664343489E-011
   17.7650000000000         4.757437093369821E-011
   17.9550000000000         4.839156630182310E-011
   18.1450000000000         4.922392692018919E-011
   18.3350000000000         5.005620942145578E-011
   18.5250000000000         5.087634571458702E-011
   18.7150000000000         5.166038138424006E-011
   18.9050000000000         5.241179030045215E-011
   19.0950000000000         5.310377062550183E-011
   19.2850000000000         5.374435586888579E-011
   19.4750000000000         5.430985559719124E-011
   19.6650000000000         5.475419341141963E-011
   19.8550000000000         5.516997220879625E-011
   20.0450000000000         5.555860987906520E-011
   20.2350000000000         5.588270154020952E-011
   20.4250000000000         5.616157914316850E-011
   20.6150000000000         5.639273162802205E-011
   20.8050000000000         5.655460223716193E-011
   20.9950000000000         5.666760377991909E-011
   21.1850000000000         5.677197765435390E-011
   21.3750000000000         5.685638273229440E-011
   21.5650000000000         5.692216747814017E-011
   21.7550000000000         5.697582072868017E-011
   21.9450000000000         5.703768953271529E-011
   22.1350000000000         5.710766652256411E-011
   22.3250000000000         5.715395022166415E-011
   22.5150000000000         5.721507672851613E-011
   22.7050000000000         5.732788062628274E-011
   22.8950000000000         5.747375627087388E-011
   23.0850000000000         5.765257909539290E-011
   23.2750000000000         5.788844673911874E-011
   23.4650000000000         5.815393834458029E-011
   23.6550000000000         5.847640615568682E-011
   23.8450000000000         5.889107342565808E-011
   24.0350000000000         5.935003221491904E-011
   24.2250000000000         5.987431553096650E-011
   24.4150000000000         6.050320482412627E-011
   24.6050000000000         6.122943133130929E-011
   24.7950000000000         6.201623191554602E-011
   24.9850000000000         6.286721424677733E-011
   25.1750000000000         6.377759680796459E-011
   25.3650000000000         6.468975053080517E-011
   25.5550000000000         6.560797641081322E-011
   25.7450000000000         6.654589626850906E-011
   25.9350000000000         6.746492951146608E-011
   26.1250000000000         6.834543592023909E-011
   26.3150000000000         6.916913200757382E-011
   26.5050000000000         6.993411796152449E-011
   26.6950000000000         7.067566639165437E-011
   26.8850000000000         7.138220793374870E-011
   27.0750000000000         7.204919798223506E-011
   27.2650000000000         7.264516348329872E-011
   27.4550000000000         7.315271677782006E-011
   27.6450000000000         7.359986023874270E-011
   27.8350000000000         7.404411550780325E-011
   28.0250000000000         7.445991596340628E-011
   28.2150000000000         7.480605393208631E-011
   28.4050000000000         7.511682722402287E-011
   28.5950000000000         7.538464280657900E-011
   28.7850000000000         7.558544390039008E-011
   28.9750000000000         7.573310224576742E-011
   29.1650000000000         7.585554678919275E-011
   29.3550000000000         7.597089755494938E-011
   29.5450000000000         7.609723311893907E-011
   29.7350000000000         7.621664700393375E-011
   29.9250000000000         7.632498415425741E-011
   30.1150000000000         7.643734374004680E-011
   30.3050000000000         7.657176955518740E-011
   30.4950000000000         7.673641183209663E-011
   30.6850000000000         7.695632301099361E-011
   30.8750000000000         7.723439423430752E-011
   31.0650000000000         7.755166270027513E-011
   31.2550000000000         7.789974966538587E-011
   31.4450000000000         7.829595674703044E-011
   31.6350000000000         7.878966226478288E-011
   31.8250000000000         7.936396429372847E-011
   32.0150000000000         8.000696013166479E-011
   32.2050000000000         8.072595373730917E-011
   32.3950000000000         8.151546788515236E-011
   32.5850000000000         8.238831246530428E-011
   32.7750000000000         8.335646948052174E-011
   32.9650000000000         8.438187100235621E-011
   33.1550000000000         8.543258905784602E-011
   33.3450000000000         8.650629579007918E-011
   33.5350000000000         8.755115834938855E-011
   33.7250000000000         8.856613239919440E-011
   33.9150000000000         8.956210167697160E-011
   34.1050000000000         9.051870073317404E-011
   34.2950000000000         9.143696233510675E-011
   34.4850000000000         9.228370333730303E-011
   34.6750000000000         9.305814999683362E-011
   34.8650000000000         9.376637741906939E-011
   35.0550000000000         9.441731579635573E-011
   35.2450000000000         9.507332795338395E-011
   35.4350000000000         9.569059981561476E-011
   35.6250000000000         9.621692561555368E-011
   35.8150000000000         9.666354556938242E-011
   36.0050000000000         9.703025017946113E-011
   36.1950000000000         9.733791839311938E-011
   36.3850000000000         9.762217473651980E-011
   36.5750000000000         9.783829853309571E-011
   36.7650000000000         9.800331033310603E-011
   36.9550000000000         9.813863022155014E-011
   37.1450000000000         9.822667773839039E-011
   37.3350000000000         9.830595817786982E-011
   37.5250000000000         9.839230119760801E-011
   37.7150000000000         9.850482900160537E-011
   37.9050000000000         9.865597081078761E-011
   38.0950000000000         9.884836716996932E-011
   38.2850000000000         9.908928724698659E-011
   38.4750000000000         9.938062033829481E-011
   38.6650000000000         9.974273119607926E-011
   38.8550000000000         1.001738983461758E-010
   39.0450000000000         1.006436586233496E-010
   39.2350000000000         1.011693799282039E-010
   39.4250000000000         1.017680622455921E-010
   39.6150000000000         1.024052348837067E-010
   39.8050000000000         1.030762072259987E-010
   39.9950000000000         1.038009328657873E-010
   40.1850000000000         1.045633366193184E-010
   40.3750000000000         1.053468483434516E-010
   40.5650000000000         1.061254176326117E-010
   40.7550000000000         1.068671755281088E-010
   40.9450000000000         1.075581051502071E-010
   41.1350000000000         1.082289863528473E-010
   41.3250000000000         1.088781554226131E-010
   41.5150000000000         1.094879357492639E-010
   41.7050000000000         1.100639721302277E-010
   41.8950000000000         1.106326788692513E-010
   42.0850000000000         1.111950696623973E-010
   42.2750000000000         1.117187906076732E-010
   42.4650000000000         1.122134415946048E-010
   42.6550000000000         1.127107157201220E-010
   42.8450000000000         1.132091893200473E-010
   43.0350000000000         1.136729692554124E-010
   43.2250000000000         1.141133223581600E-010
   43.4150000000000         1.145597040216806E-010
   43.6050000000000         1.150042758424809E-010
   43.7950000000000         1.154275409092616E-010
   43.9850000000000         1.158432775520877E-010
   44.1750000000000         1.162762681531404E-010
   44.3650000000000         1.167308383901500E-010
   44.5550000000000         1.172082648544149E-010
   44.7450000000000         1.176949619518609E-010
   44.9350000000000         1.181631781511693E-010
   45.1250000000000         1.186541914921326E-010
   45.3150000000000         1.191932045857730E-010
   45.5050000000000         1.197651087360074E-010
   45.6950000000000         1.203772369600366E-010
   45.8850000000000         1.210317763589216E-010
   46.0750000000000         1.217448298831623E-010
   46.2650000000000         1.225001680917148E-010
   46.4550000000000         1.232655385894032E-010
   46.6450000000000         1.240238069398675E-010
   46.8350000000000         1.247688319754330E-010
   47.0250000000000         1.255161270363731E-010
   47.2150000000000         1.262526049232505E-010
   47.4050000000000         1.269562501716554E-010
   47.5950000000000         1.276276964791294E-010
   47.7850000000000         1.282660967978180E-010
   47.9750000000000         1.288849366598772E-010
   48.1650000000000         1.294595219330940E-010
   48.3550000000000         1.299886624524258E-010
   48.5450000000000         1.304869562650495E-010
   48.7350000000000         1.309247734728312E-010
   48.9250000000000         1.313017694133768E-010
   49.1150000000000         1.316623837829413E-010
   49.3050000000000         1.320311554039540E-010
   49.4950000000000         1.324020758811087E-010
   49.6850000000000         1.327177636547674E-010
   49.8750000000000         1.329344968869140E-010
   50.0650000000000         1.331055863867371E-010
   50.2550000000000         1.332765435230570E-010
   50.4450000000000         1.334679204855575E-010
   50.6350000000000         1.336575189903742E-010
   50.8250000000000         1.338227957360585E-010
   51.0150000000000         1.339647807425634E-010
   51.2050000000000         1.341205852558038E-010
   51.3950000000000         1.343384992240114E-010
   51.5850000000000         1.345625608358415E-010
   51.7750000000000         1.348185164549466E-010
   51.9650000000000         1.352052415275123E-010
   52.1550000000000         1.357217704000249E-010
   52.3450000000000         1.363366394621849E-010
   52.5350000000000         1.370298712169192E-010
   52.7250000000000         1.377945008436898E-010
   52.9150000000000         1.386059218319806E-010
   53.1050000000000         1.394542436341767E-010
   53.2950000000000         1.403742421689206E-010
   53.4850000000000         1.413551035081091E-010
   53.6750000000000         1.423686478231031E-010
   53.8650000000000         1.434188687902755E-010
   54.0550000000000         1.444908567979042E-010
   54.2450000000000         1.455679651393368E-010
   54.4350000000000         1.466442366998388E-010
   54.6250000000000         1.477180188429085E-010
   54.8150000000000         1.487852809542894E-010
   55.0050000000000         1.498432955397525E-010
   55.1950000000000         1.508846199911460E-010
   55.3850000000000         1.519011112379832E-010
   55.5750000000000         1.528723755032082E-010
   55.7650000000000         1.537841241839449E-010
   55.9550000000000         1.546379568475819E-010
   56.1450000000000         1.554329399290867E-010
   56.3350000000000         1.561582609798548E-010
   56.5250000000000         1.568168182997231E-010
   56.7150000000000         1.573817857766858E-010
   56.9050000000000         1.578213134467256E-010
   57.0950000000000         1.581745654311370E-010
   57.2850000000000         1.584562404175242E-010
   57.4750000000000         1.587116910986542E-010
   57.6650000000000         1.588969352892083E-010
   57.8550000000000         1.589564070914960E-010
   58.0450000000000         1.589427414480358E-010
   58.2350000000000         1.588934505216776E-010
   58.4250000000000         1.588241931552408E-010
   58.6150000000000         1.587455738101674E-010
   58.8050000000000         1.586678461403373E-010
   58.9950000000000         1.585897733236530E-010
   59.1850000000000         1.585247152005822E-010
   59.3750000000000         1.584712484880013E-010
   59.5650000000000         1.584265022396130E-010
   59.7550000000000         1.583916963308561E-010
   59.9450000000000         1.583840780384909E-010
   60.1350000000000         1.584199472208757E-010
   60.3250000000000         1.585275796599213E-010
   60.5150000000000         1.587015707916073E-010
   60.7050000000000         1.588825317914420E-010
   60.8950000000000         1.590852406667668E-010
   61.0850000000000         1.593923161463632E-010
   61.2750000000000         1.598441492340475E-010
   61.4650000000000         1.604109881460756E-010
   61.6550000000000         1.611004717386553E-010
   61.8450000000000         1.619229445360884E-010
   62.0350000000000         1.627876522820383E-010
   62.2250000000000         1.636973474880598E-010
   62.4150000000000         1.646885121859642E-010
   62.6050000000000         1.657802166080201E-010
   62.7950000000000         1.669260345188765E-010
   62.9850000000000         1.680495339802791E-010
   63.1750000000000         1.691586729085082E-010
   63.3650000000000         1.702210370932848E-010
   63.5550000000000         1.712304637041181E-010
   63.7450000000000         1.722088467955246E-010
   63.9350000000000         1.731304318282817E-010
   64.1250000000000         1.740145398640710E-010
   64.3150000000000         1.748669619265623E-010
   64.5050000000000         1.756403170287597E-010
   64.6950000000000         1.763274643509109E-010
   64.8850000000000         1.769439073946144E-010
   65.0750000000000         1.775159740504440E-010
   65.2650000000000         1.780406355557746E-010
   65.4550000000000         1.785233688637197E-010
   65.6450000000000         1.789246067866269E-010
   65.8350000000000         1.792145588546750E-010
   66.0250000000000         1.794312308167519E-010
   66.2150000000000         1.796219399027842E-010
   66.4050000000000         1.797570100108613E-010
   66.5950000000000         1.798585151193438E-010
   66.7850000000000         1.799508198145096E-010
   66.9750000000000         1.800128173374122E-010
   67.1650000000000         1.800900280437921E-010
   67.3550000000000         1.802056243543103E-010
   67.5450000000000         1.803598164102419E-010
   67.7350000000000         1.805801751193495E-010
   67.9250000000000         1.808680001075936E-010
   68.1150000000000         1.811801810900329E-010
   68.3050000000000         1.815279646962264E-010
   68.4950000000000         1.819140616899413E-010
   68.6850000000000         1.823482114838343E-010
   68.8750000000000         1.828552640126946E-010
   69.0650000000000         1.834301240530648E-010
   69.2550000000000         1.840633168073037E-010
   69.4450000000000         1.847585386911314E-010
   69.6350000000000         1.855383457547105E-010
   69.8250000000000         1.864079689958603E-010
   70.0150000000000         1.873151318396919E-010
   70.2050000000000         1.882114885264917E-010
   70.3950000000000         1.891012076883469E-010
   70.5850000000000         1.899873398407845E-010
   70.7750000000000         1.908992971938294E-010
   70.9650000000000         1.918352321936458E-010
   71.1550000000000         1.927422860020896E-010
   71.3450000000000         1.935980982827574E-010
   71.5350000000000         1.943947616900877E-010
   71.7250000000000         1.951482491368016E-010
   71.9150000000000         1.958804883069312E-010
   72.1050000000000         1.966015906596142E-010
   72.2950000000000         1.973042047077286E-010
   72.4850000000000         1.979797169898020E-010
   72.6750000000000         1.986339682029946E-010
   72.8650000000000         1.992546987702259E-010
   73.0550000000000         1.998379271178685E-010
   73.2450000000000         2.003999523580246E-010
   73.4350000000000         2.009521272190108E-010
   73.6250000000000         2.014691098549495E-010
   73.8150000000000         2.019272481403973E-010
   74.0050000000000         2.023586964597461E-010
   74.1950000000000         2.028027943741984E-010
   74.3850000000000         2.032952278724713E-010
   74.5750000000000         2.038331741264168E-010
   74.7650000000000         2.043890562079410E-010
   74.9550000000000         2.049491484621313E-010
   75.1450000000000         2.055218188512591E-010
   75.3350000000000         2.061348858798899E-010
   75.5250000000000         2.067926262811797E-010
   75.7150000000000         2.074713060256583E-010
   75.9050000000000         2.081409502889759E-010
   76.0950000000000         2.087853468140462E-010
   76.2850000000000         2.093954627880121E-010
   76.4750000000000         2.099778458757865E-010
   76.6650000000000         2.105441623036898E-010
   76.8550000000000         2.110843652695208E-010
   77.0450000000000         2.115875812592065E-010
   77.2350000000000         2.120834784649059E-010
   77.4250000000000         2.125829452161481E-010
   77.6150000000000         2.130795971947701E-010
   77.8050000000000         2.135968493739666E-010
   77.9950000000000         2.141174322308274E-010
   78.1850000000000         2.146048384543037E-010
   78.3750000000000         2.150494160641321E-010
   78.5650000000000         2.154342683103172E-010
   78.7550000000000         2.157675865370999E-010
   78.9450000000000         2.160826341164915E-010
   79.1350000000000         2.163657140357812E-010
   79.3250000000000         2.166111860015517E-010
   79.5150000000000         2.168435032587978E-010
   79.7050000000000         2.170935191417147E-010
   79.8950000000000         2.173630895671931E-010
   80.0850000000000         2.176600085352739E-010
   80.2750000000000         2.179733211117062E-010
   80.4650000000000         2.182631826806484E-010
   80.6550000000000         2.185715793224115E-010
   80.8450000000000         2.189167839345369E-010
   81.0350000000000         2.192899459133299E-010
   81.2250000000000         2.197113783208165E-010
   81.4150000000000         2.202014256267993E-010
   81.6050000000000         2.207554815454739E-010
   81.7950000000000         2.213462683274445E-010
   81.9850000000000         2.219662063161680E-010
   82.1750000000000         2.226528900738111E-010
   82.3650000000000         2.234260850046380E-010
   82.5550000000000         2.242296628291680E-010
   82.7450000000000         2.250865760680703E-010
   82.9350000000000         2.260197015895623E-010
   83.1250000000000         2.270009763149913E-010
   83.3150000000000         2.280311314117869E-010
   83.5050000000000         2.290893794956255E-010
   83.6950000000000         2.301568847154828E-010
   83.8850000000000         2.312233577915103E-010
   84.0750000000000         2.322753805987493E-010
   84.2650000000000         2.333055720831621E-010
   84.4550000000000         2.343356514896536E-010
   84.6450000000000         2.353867128870159E-010
   84.8350000000000         2.364572045966320E-010
   85.0250000000000         2.375381457932797E-010
   85.2150000000000         2.386079847608484E-010
   85.4050000000000         2.396475712868064E-010
   85.5950000000000         2.406730497247247E-010
   85.7850000000000         2.416634589779167E-010
   85.9750000000000         2.425886075421001E-010
   86.1650000000000         2.434407585512590E-010
   86.3550000000000         2.441563355499745E-010
   86.5450000000000         2.447235036468594E-010
   86.7350000000000         2.451818890625265E-010
   86.9250000000000         2.455497107016843E-010
   87.1150000000000         2.458456464134395E-010
   87.3050000000000         2.460712459409777E-010
   87.4950000000000         2.462146141244435E-010
   87.6850000000000         2.462851488960953E-010
   87.8750000000000         2.462904210378267E-010
   88.0650000000000         2.462944133087316E-010
   88.2550000000000         2.463208414821572E-010
   88.4450000000000         2.463336097871806E-010
   88.6350000000000         2.463437816626273E-010
   88.8250000000000         2.463736974139472E-010
   89.0150000000000         2.464560035205302E-010
   89.2050000000000         2.465636140652413E-010
   89.3950000000000         2.466917332464485E-010
   89.5850000000000         2.468845962225321E-010
   89.7750000000000         2.471184731676284E-010
   89.9650000000000         2.474152919865882E-010
   90.1550000000000         2.478207839200161E-010
   90.3450000000000         2.483310331313464E-010
   90.5350000000000         2.489475310610485E-010
   90.7250000000000         2.496647169973983E-010
   90.9150000000000         2.504815758494796E-010
   91.1050000000000         2.513919629648775E-010
   91.2950000000000         2.523641027959983E-010
   91.4850000000000         2.534122402841089E-010
   91.6750000000000         2.545362249216538E-010
   91.8650000000000         2.557183075192268E-010
   92.0550000000000         2.569534073697684E-010
   92.2450000000000         2.582289244813379E-010
   92.4350000000000         2.595427699127542E-010
   92.6250000000000         2.608529518452511E-010
   92.8150000000000         2.621255057592902E-010
   93.0050000000000         2.633497150771690E-010
   93.1950000000000         2.645246640601788E-010
   93.3850000000000         2.656681704465484E-010
   93.5750000000000         2.667001391172889E-010
   93.7650000000000         2.675702123091540E-010
   93.9550000000000         2.682664846864405E-010
   94.1450000000000         2.688014137742888E-010
   94.3350000000000         2.692312418677948E-010
   94.5250000000000         2.695543062325078E-010
   94.7150000000000         2.698174713475101E-010
   94.9050000000000         2.700331691150555E-010
   95.0950000000000         2.701655154567955E-010
   95.2850000000000         2.702294592584090E-010
   95.4750000000000         2.702645042556154E-010
   95.6650000000000         2.702749445285400E-010
   95.8550000000000         2.702696759429775E-010
   96.0450000000000         2.702418129090133E-010
   96.2350000000000         2.701828570951391E-010
   96.4250000000000         2.701073412348979E-010
   96.6150000000000         2.700317701765823E-010
   96.8050000000000         2.699617245806575E-010
   96.9950000000000         2.698928242608941E-010
   97.1850000000000         2.698457790407515E-010
   97.3750000000000         2.698460515328673E-010
   97.5650000000000         2.699193755654158E-010
   97.7550000000000         2.700768775282388E-010
   97.9450000000000         2.703004456492651E-010
   98.1350000000000         2.705793991335303E-010
   98.3250000000000         2.709031023100736E-010
   98.5150000000000         2.712952362165659E-010
   98.7050000000000         2.717768376906048E-010
   98.8950000000000         2.723385569082921E-010
   99.0850000000000         2.729740607188662E-010
   99.2750000000000         2.736266566822199E-010
   99.4650000000000         2.743075699362853E-010
   99.6550000000000         2.750655436574711E-010
   99.8450000000000         2.758840193689828E-010
   100.035000000000         2.767446227157767E-010
   100.225000000000         2.776348766012228E-010
   100.415000000000         2.785432394405340E-010
   100.605000000000         2.794581866691817E-010
   100.795000000000         2.803583303441271E-010
   100.985000000000         2.812536726080829E-010
   101.175000000000         2.821649100638703E-010
   101.365000000000         2.830656190316629E-010
   101.555000000000         2.839654876021536E-010
   101.745000000000         2.848860233940777E-010
   101.935000000000         2.858377613621655E-010
   102.125000000000         2.867759918371339E-010
   102.315000000000         2.876421186281828E-010
   102.505000000000         2.884877025294549E-010
   102.695000000000         2.893117242727687E-010
   102.885000000000         2.900633403058146E-010
   103.075000000000         2.907365094118508E-010
   103.265000000000         2.913131462650522E-010
   103.455000000000         2.917951676432221E-010
   103.645000000000         2.922227901813330E-010
   103.835000000000         2.926245947291203E-010
   104.025000000000         2.929760341656680E-010
   104.215000000000         2.932747571628740E-010
   104.405000000000         2.935533273905301E-010
   104.595000000000         2.938235116389867E-010
   104.785000000000         2.941000586154639E-010
   104.975000000000         2.943784686502635E-010
   105.165000000000         2.946479616556715E-010
   105.355000000000         2.949257898334012E-010
   105.545000000000         2.952340289374842E-010
   105.735000000000         2.955842836795524E-010
   105.925000000000         2.959703160531522E-010
   106.115000000000         2.963694775415229E-010
   106.305000000000         2.967668628735507E-010
   106.495000000000         2.971683793472905E-010
   106.685000000000         2.975714073383097E-010
   106.875000000000         2.979951861820090E-010
   107.065000000000         2.984419673349399E-010
   107.255000000000         2.988870803768401E-010
   107.445000000000         2.993242735906663E-010
   107.635000000000         2.997480618497519E-010
   107.825000000000         3.001690990313277E-010
   108.015000000000         3.006032596181863E-010
   108.205000000000         3.010572262850435E-010
   108.395000000000         3.015193504182502E-010
   108.585000000000         3.019913467497645E-010
   108.775000000000         3.024767968582618E-010
   108.965000000000         3.029713512727977E-010
   109.155000000000         3.034730348564320E-010
   109.345000000000         3.040062070991500E-010
   109.535000000000         3.045654942553398E-010
   109.725000000000         3.051177644608153E-010
   109.915000000000         3.056690828786001E-010
   110.105000000000         3.062250936833217E-010