  -1.42500000000000         0.000000000000000E+000
  -1.23500000000000         2.023700914264017E-020
  -1.04500000000000         2.068118198673770E-019
 -0.855000000000000         1.473378500480368E-018
 -0.665000000000000         7.868712501918616E-018
 -0.475000000000000         3.389649939227190E-017
 -0.285000000000000         1.229934590027106E-016
 -9.499999999999975E-002    3.847234517878140E-016
  9.500000000000020E-002    1.058607542962956E-015
  0.285000000000000         2.587245713012863E-015
  0.475000000000000         5.697490980086634E-015
  0.665000000000000         1.147563016740980E-014
  0.855000000000000         2.126935416854173E-014
   1.04500000000000         3.681038411003977E-014
   1.23500000000000         5.975383799518558E-014
   1.42500000000000         9.196323433005190E-014
   1.61500000000000         1.342933680593207E-013
   1.80500000000000         1.885482564542281E-013
   1.99500000000000         2.563366584102714E-013
   2.18500000000000         3.390321831559582E-013
   2.37500000000000         4.381009759085882E-013
   2.56500000000000         5.547814368307628E-013
   2.75500000000000         6.900082774272394E-013
   2.94500000000000         8.444646846253213E-013
   3.13500000000000         1.018573477576007E-012
   3.32500000000000         1.212471921876221E-012
   3.51500000000000         1.426139365878602E-012
   3.70500000000000         1.659446013070172E-012
   3.89500000000000         1.912217384947476E-012
   4.08500000000000         2.184268145112751E-012
   4.27500000000000         2.475403506768831E-012
   4.46500000000000         2.785353159916954E-012
   4.65500000000000         3.113639362491978E-012
   4.84500000000000         3.459588999454996E-012
   5.03500000000000         3.822484779463296E-012
   5.22500000000000         4.201775593811962E-012
   5.41500000000000         4.597383633200299E-012
   5.60500000000000         5.009040992838844E-012
   5.79500000000000         5.436768238232092E-012
   5.98500000000000         5.880879435027555E-012
   6.17500000000000         6.342055528746512E-012
   6.36500000000000         6.821292711495996E-012
   6.55500000000000         7.319970967854672E-012
   6.74500000000000         7.839123690708936E-012
   6.93500000000000         8.379827216845415E-012
   7.12500000000000         8.943361714929843E-012
   7.31500000000000         9.531049806068614E-012
   7.50500000000000         1.014343735165564E-011
   7.69500000000000         1.078073355564076E-011
   7.88500000000000         1.144279309042819E-011
   8.07500000000000         1.212894706030373E-011
   8.26500000000000         1.283814543596451E-011
   8.45500000000000         1.356972023398266E-011
   8.64500000000000         1.432247689922326E-011
   8.83500000000000         1.509480065584297E-011
   9.02500000000000         1.588505363404948E-011
   9.21500000000000         1.668969820620791E-011
   9.40500000000000         1.750581297878848E-011
   9.59500000000000         1.833077920110330E-011
   9.78500000000000         1.916227110441161E-011
   9.97500000000000         1.999867219370946E-011
   10.1650000000000         2.083849232387611E-011
   10.3550000000000         2.168099592160159E-011
   10.5450000000000         2.252600210443584E-011
   10.7350000000000         2.337336769335974E-011
   10.9250000000000         2.422313310821521E-011
   11.1150000000000         2.507532417402318E-011
   11.3050000000000         2.593005834773928E-011
   11.4950000000000         2.678789100526666E-011
   11.6850000000000         2.765016001743905E-011
   11.8750000000000         2.851858056263243E-011
   12.0650000000000         2.939483459742236E-011
   12.2550000000000         3.028042319474288E-011
   12.4450000000000         3.117661138341245E-011
   12.6350000000000         3.208465295915754E-011
   12.8250000000000         3.300479933424372E-011
   13.0150000000000         3.393773983139028E-011
   13.2050000000000         3.488388974345709E-011
   13.3950000000000         3.584338848238254E-011
   13.5850000000000         3.681614802224902E-011
   13.7750000000000         3.780196093216076E-011
   13.9650000000000         3.880065932169223E-011
   14.1550000000000         3.981219213896236E-011
   14.3450000000000         4.083656751604656E-011
   14.5350000000000         4.187401547654129E-011
   14.7250000000000         4.292486893488361E-011
   14.9150000000000         4.398964103824070E-011
   15.1050000000000         4.506999238566370E-011
   15.2950000000000         4.616830032229749E-011
   15.4850000000000         4.728689297365022E-011
   15.6750000000000         4.842799069365185E-011
   15.8650000000000         4.959295226063567E-011
   16.0550000000000         5.078305998269306E-011
   16.2450000000000         5.199923517115070E-011
   16.4350000000000         5.324184987285257E-011
   16.6250000000000         5.451091462254779E-011
   16.8150000000000         5.580615873524754E-011
   17.0050000000000         5.712695962989011E-011
   17.1950000000000         5.847301456305916E-011
   17.3850000000000         5.984338594082029E-011
   17.5750000000000         6.123753164971433E-011
   17.7650000000000         6.265400129157080E-011
   17.9550000000000         6.409216590815081E-011
   18.1450000000000         6.555124527460139E-011
   18.3350000000000         6.703065356009143E-011
   18.5250000000000         6.852973677885157E-011
   18.7150000000000         7.004763263565765E-011
   18.9050000000000         7.158265761158621E-011
   19.0950000000000         7.313300671147070E-011
   19.2850000000000         7.469737297039306E-011
   19.4750000000000         7.627490889095437E-011
   19.6650000000000         7.786502104245433E-011
   19.8550000000000         7.946718716783273E-011
   20.0450000000000         8.108070199810783E-011
   20.2350000000000         8.270472848404389E-011
   20.4250000000000         8.433831610907157E-011
   20.6150000000000         8.598034787398169E-011
   20.8050000000000         8.762938329841472E-011
   20.9950000000000         8.928400060339943E-011
   21.1850000000000         9.094281565374717E-011
   21.3750000000000         9.260539472031161E-011
   21.5650000000000         9.426951394470544E-011
   21.7550000000000         9.593477297880783E-011
   21.9450000000000         9.760072461663198E-011
   22.1350000000000         9.926646415615961E-011
   22.3250000000000         1.009317126492390E-010
   22.5150000000000         1.025976225328123E-010
   22.7050000000000         1.042660015353289E-010
   22.8950000000000         1.059391889275144E-010
   23.0850000000000         1.076198777577652E-010
   23.2750000000000         1.093109656592892E-010
   23.4650000000000         1.110150427226039E-010
   23.6550000000000         1.127339932609628E-010
   23.8450000000000         1.144709206335275E-010
   24.0350000000000         1.162284788255831E-010
   24.2250000000000         1.180086613817970E-010
   24.4150000000000         1.198131551006186E-010
   24.6050000000000         1.216431502143169E-010
   24.7950000000000         1.234994354175859E-010
   24.9850000000000         1.253820215214924E-010
   25.1750000000000         1.272904054456280E-010
   25.3650000000000         1.292242195421249E-010
   25.5550000000000         1.311821668154520E-010
   25.7450000000000         1.331636073167170E-010
   25.9350000000000         1.351665208501864E-010
   26.1250000000000         1.371898020049707E-010
   26.3150000000000         1.392325445974513E-010
   26.5050000000000         1.412939134577254E-010
   26.6950000000000         1.433730962408452E-010
   26.8850000000000         1.454695533069481E-010
   27.0750000000000         1.475829710652257E-010
   27.2650000000000         1.497133274126189E-010
   27.4550000000000         1.518610845398933E-010
   27.6450000000000         1.540268804420841E-010
   27.8350000000000         1.562114450438061E-010
   28.0250000000000         1.584149922707725E-010
   28.2150000000000         1.606384370858905E-010
   28.4050000000000         1.628821787952284E-010
   28.5950000000000         1.651463598320441E-010
   28.7850000000000         1.674304503428114E-010
   28.9750000000000         1.697334552279468E-010
   29.1650000000000         1.720538614466499E-010
   29.3550000000000         1.743894133918955E-010
   29.5450000000000         1.767376337319822E-010
   29.7350000000000         1.790957457034872E-010
   29.9250000000000         1.814607885756617E-010
   30.1150000000000         1.838297529587240E-010
   30.3050000000000         1.861998825151093E-010
   30.4950000000000         1.885687722693487E-010
   30.6850000000000         1.909349152713835E-010
   30.8750000000000         1.932978745493874E-010
   31.0650000000000         1.956563214043984E-010
   31.2550000000000         1.980096867980807E-010
   31.4450000000000         2.003582750040502E-010
   31.6350000000000         2.027028507406609E-010
   31.8250000000000         2.050445443714407E-010
   32.0150000000000         2.073847815802085E-010
   32.2050000000000         2.097253000729974E-010
   32.3950000000000         2.120677736277074E-010
   32.5850000000000         2.144141721285577E-010
   32.7750000000000         2.167662372440145E-010
   32.9650000000000         2.191247959411731E-010
   33.1550000000000         2.214910441326391E-010
   33.3450000000000         2.238657919012296E-010
   33.5350000000000         2.262500511955821E-010
   33.7250000000000         2.286455388637387E-010
   33.9150000000000         2.310541876705087E-010
   34.1050000000000         2.334780093639580E-010
   34.2950000000000         2.359186139790717E-010
   34.4850000000000         2.383771639400139E-010
   34.6750000000000         2.408542780485954E-010
   34.8650000000000         2.433506476791525E-010
   35.0550000000000         2.458668827138089E-010
   35.2450000000000         2.484035263289768E-010
   35.4350000000000         2.509610113188085E-010
   35.6250000000000         2.535394611988529E-010
   35.8150000000000         2.561387019631013E-010
   36.0050000000000         2.587582652070620E-010
   36.1950000000000         2.613976248652687E-010
   36.3850000000000         2.640560309930243E-010
   36.5750000000000         2.667332367766151E-010
   36.7650000000000         2.694285718748645E-010
   36.9550000000000         2.721416458024484E-010
   37.1450000000000         2.748718210743677E-010
   37.3350000000000         2.776184089907519E-010
   37.5250000000000         2.803809701312048E-010
   37.7150000000000         2.831592084267890E-010
   37.9050000000000         2.859528943012648E-010
   38.0950000000000         2.887618511767295E-010
   38.2850000000000         2.915859511263980E-010
   38.4750000000000         2.944250328662394E-010
   38.6650000000000         2.972788864305426E-010
   38.8550000000000         3.001473218882845E-010
   39.0450000000000         3.030301099677132E-010
   39.2350000000000         3.059269949445913E-010
   39.4250000000000         3.088375196165902E-010
   39.6150000000000         3.117610219469409E-010
   39.8050000000000         3.146965320695423E-010
   39.9950000000000         3.176426924573461E-010
   40.1850000000000         3.205987660000294E-010
   40.3750000000000         3.235633431838620E-010
   40.5650000000000         3.265359154584292E-010
   40.7550000000000         3.295159286550099E-010
   40.9450000000000         3.325017104358850E-010
   41.1350000000000         3.354904277277886E-010
   41.3250000000000         3.384794740175795E-010
   41.5150000000000         3.414670885166341E-010
   41.7050000000000         3.444527160655701E-010
   41.8950000000000         3.474363899132439E-010
   42.0850000000000         3.504186170602356E-010
   42.2750000000000         3.534004363535859E-010
   42.4650000000000         3.563831184385271E-010
   42.6550000000000         3.593683384010147E-010
   42.8450000000000         3.623578239072171E-010
   43.0350000000000         3.653536174529532E-010
   43.2250000000000         3.683575023698397E-010
   43.4150000000000         3.713706585886665E-010
   43.6050000000000         3.743956963204455E-010
   43.7950000000000         3.774330903219076E-010
   43.9850000000000         3.804836884168065E-010
   44.1750000000000         3.835484823771808E-010
   44.3650000000000         3.866286349453397E-010
   44.5550000000000         3.897254499737251E-010
   44.7450000000000         3.928397720646432E-010
   44.9350000000000         3.959716143049143E-010
   45.1250000000000         3.991205033324646E-010
   45.3150000000000         4.022855485522630E-010
   45.5050000000000         4.054660424830861E-010
   45.6950000000000         4.086612541235498E-010
   45.8850000000000         4.118705923489379E-010
   46.0750000000000         4.150936838911975E-010
   46.2650000000000         4.183303319169042E-010
   46.4550000000000         4.215803873652318E-010
   46.6450000000000         4.248437695885969E-010
   46.8350000000000         4.281205854604796E-010
   47.0250000000000         4.314115200726698E-010
   47.2150000000000         4.347173010665571E-010
   47.4050000000000         4.380385302759042E-010
   47.5950000000000         4.413755204604960E-010
   47.7850000000000         4.447282190306296E-010
   47.9750000000000         4.480961758174214E-010
   48.1650000000000         4.514785600378896E-010
   48.3550000000000         4.548741000565398E-010
   48.5450000000000         4.582814539992271E-010
   48.7350000000000         4.616999056333949E-010
   48.9250000000000         4.651283580514493E-010
   49.1150000000000         4.685660088065097E-010
   49.3050000000000         4.720121299312225E-010
   49.4950000000000         4.754655696494817E-010
   49.6850000000000         4.789257973581269E-010
   49.8750000000000         4.823933545867429E-010
   50.0650000000000         4.858690739081824E-010
   50.2550000000000         4.893541711253806E-010
   50.4450000000000         4.928500058157780E-010
   50.6350000000000         4.963579688076998E-010
   50.8250000000000         4.998782531442664E-010
   51.0150000000000         5.034125242056138E-010
   51.2050000000000         5.069609272058342E-010
   51.3950000000000         5.105236435190755E-010
   51.5850000000000         5.141009073572011E-010
   51.7750000000000         5.176916488712159E-010
   51.9650000000000         5.212936310756708E-010
   52.1550000000000         5.249041483825243E-010
   52.3450000000000         5.285198821754698E-010
   52.5350000000000         5.321375481924842E-010
   52.7250000000000         5.357538139686867E-010
   52.9150000000000         5.393655153559949E-010
   53.1050000000000         5.429712739507527E-010
   53.2950000000000         5.465692190107211E-010
   53.4850000000000         5.501584910586570E-010
   53.6750000000000         5.537385636418162E-010
   53.8650000000000         5.573103595034613E-010
   54.0550000000000         5.608756361202746E-010
   54.2450000000000         5.644369540675692E-010
   54.4350000000000         5.679974875110795E-010
   54.6250000000000         5.715608567335863E-010
   54.8150000000000         5.751308224271076E-010
   55.0050000000000         5.787110657319547E-010
   55.1950000000000         5.823047796048891E-010
   55.3850000000000         5.859137249183080E-010
   55.5750000000000         5.895407534369959E-010
   55.7650000000000         5.931870135754147E-010
   55.9550000000000         5.968536850388893E-010
   56.1450000000000         6.005416142465585E-010
   56.3350000000000         6.042506704660540E-010
   56.5250000000000         6.079797055539688E-010
   56.7150000000000         6.117272196778972E-010
   56.9050000000000         6.154914071211160E-010
   57.0950000000000         6.192704109315523E-010
   57.2850000000000         6.230625171649422E-010
   57.4750000000000         6.268667944536667E-010
   57.6650000000000         6.306818562461247E-010
   57.8550000000000         6.345064513394364E-010
   58.0450000000000         6.383398379392691E-010
   58.2350000000000         6.421815294615759E-010
   58.4250000000000         6.460310653581948E-010
   58.6150000000000         6.498881031579801E-010
   58.8050000000000         6.537525610962368E-010
   58.9950000000000         6.576245243722808E-010
   59.1850000000000         6.615042001141017E-010
   59.3750000000000         6.653917972782225E-010
   59.5650000000000         6.692874433013730E-010
   59.7550000000000         6.731911759756776E-010
   59.9450000000000         6.771029843724423E-010
   60.1350000000000         6.810227925889043E-010
   60.3250000000000         6.849503920368199E-010
   60.5150000000000         6.888852425140795E-010
   60.7050000000000         6.928265405802456E-010
   60.8950000000000         6.967734060357428E-010
   61.0850000000000         7.007247825919953E-010
   61.2750000000000         7.046797926343237E-010
   61.4650000000000         7.086375509612916E-010
   61.6550000000000         7.125970004690608E-010
   61.8450000000000         7.165570282785357E-010
   62.0350000000000         7.205162731266694E-010
   62.2250000000000         7.244735054014307E-010
   62.4150000000000         7.284278003297048E-010
   62.6050000000000         7.323780945559426E-010
   62.7950000000000         7.363236852905599E-010
   62.9850000000000         7.402642732818195E-010
   63.1750000000000         7.441995642721662E-010
   63.3650000000000         7.481288239023653E-010
   63.5550000000000         7.520510853556957E-010
   63.7450000000000         7.559653382023794E-010
   63.9350000000000         7.598708146529665E-010
   64.1250000000000         7.637671534209597E-010
   64.3150000000000         7.676544446681693E-010
   64.5050000000000         7.715332244015385E-010
   64.6950000000000         7.754044231393117E-010
   64.8850000000000         7.792699907394997E-010
   65.0750000000000         7.831307176278613E-010
   65.2650000000000         7.869889852917564E-010
   65.4550000000000         7.908470817673484E-010
   65.6450000000000         7.947070646006594E-010
   65.8350000000000         7.985711654808314E-010
   66.0250000000000         8.024417101478858E-010
   66.2150000000000         8.063205364098896E-010
   66.4050000000000         8.102094516934793E-010
   66.5950000000000         8.141102777073833E-010
   66.7850000000000         8.180236976741155E-010
   66.9750000000000         8.219509208942381E-010
   67.1650000000000         8.258926202546517E-010
   67.3550000000000         8.298494013020423E-010
   67.5450000000000         8.338217228279335E-010
   67.7350000000000         8.378097693260323E-010
   67.9250000000000         8.418132214153549E-010
   68.1150000000000         8.458311379215193E-010
   68.3050000000000         8.498622347760501E-010
   68.4950000000000         8.539048413322902E-010
   68.6850000000000         8.579573918111030E-010
   68.8750000000000         8.620186428830685E-010
   69.0650000000000         8.660875247544780E-010
   69.2550000000000         8.701631550302722E-010
   69.4450000000000         8.742448323880073E-010
   69.6350000000000         8.783320721988712E-010
   69.8250000000000         8.824246118552796E-010
   70.0150000000000         8.865223074230901E-010
   70.2050000000000         8.906251746876533E-010
   70.3950000000000         8.947334311411972E-010
   70.5850000000000         8.988473607623961E-010
   70.7750000000000         9.029671871821666E-010
   70.9650000000000         9.070928793520482E-010
   71.1550000000000         9.112241749360714E-010
   71.3450000000000         9.153601512649999E-010
   71.5350000000000         9.195002502400306E-010
   71.7250000000000         9.236427706783118E-010
   71.9150000000000         9.277875556721394E-010
   72.1050000000000         9.319328417071977E-010
   72.2950000000000         9.360783276028618E-010
   72.4850000000000         9.402237624026982E-010
   72.6750000000000         9.443687730255469E-010
   72.8650000000000         9.485130740365226E-010
   73.0550000000000         9.526553485683440E-010
   73.2450000000000         9.567936605720946E-010
   73.4350000000000         9.609260047131087E-010
   73.6250000000000         9.650502320749090E-010
   73.8150000000000         9.691646136987460E-010
   74.0050000000000         9.732682155613373E-010
   74.1950000000000         9.773607773627462E-010
   74.3850000000000         9.814424201274252E-010
   74.5750000000000         9.855136752271326E-010
   74.7650000000000         9.895753054086050E-010
   74.9550000000000         9.936283209149186E-010
   75.1450000000000         9.976738831623849E-010
   75.3350000000000         1.001713125638873E-009
   75.5250000000000         1.005745877763391E-009
   75.7150000000000         1.009775090847029E-009
   75.9050000000000         1.013801011418922E-009
   76.0950000000000         1.017824177789884E-009
   76.2850000000000         1.021846940806630E-009
   76.4750000000000         1.025872617323272E-009
   76.6650000000000         1.029903990324580E-009
   76.8550000000000         1.033942951744413E-009
   77.0450000000000         1.037990419573402E-009
   77.2350000000000         1.042047167145038E-009
   77.4250000000000         1.046114343287944E-009
   77.6150000000000         1.050192937131299E-009
   77.8050000000000         1.054283198688063E-009
   77.9950000000000         1.058384681593545E-009
   78.1850000000000         1.062496670427754E-009
   78.3750000000000         1.066618158656984E-009
   78.5650000000000         1.070748044306748E-009
   78.7550000000000         1.074885569988872E-009
   78.9450000000000         1.079029591409597E-009
   79.1350000000000         1.083179708570413E-009
   79.3250000000000         1.087334908324615E-009
   79.5150000000000         1.091494353378101E-009
   79.7050000000000         1.095656956426855E-009
   79.8950000000000         1.099821131770936E-009
   80.0850000000000         1.103985302570172E-009
   80.2750000000000         1.108148385337799E-009
   80.4650000000000         1.112309684617270E-009
   80.6550000000000         1.116468669019966E-009
   80.8450000000000         1.120624823749674E-009
   81.0350000000000         1.124777535973917E-009
   81.2250000000000         1.128926179079615E-009
   81.4150000000000         1.133070097001470E-009
   81.6050000000000         1.137208770157193E-009
   81.7950000000000         1.141341717300231E-009
   81.9850000000000         1.145468868372953E-009
   82.1750000000000         1.149589908416120E-009
   82.3650000000000         1.153704702241877E-009
   82.5550000000000         1.157812910833758E-009
   82.7450000000000         1.161913737844920E-009
   82.9350000000000         1.166006500909286E-009
   83.1250000000000         1.170090596263618E-009
   83.3150000000000         1.174165599901710E-009
   83.5050000000000         1.178231316638024E-009
   83.6950000000000         1.182287778250093E-009
   83.8850000000000         1.186335055532929E-009
   84.0750000000000         1.190373795648566E-009
   84.2650000000000         1.194404031285122E-009
   84.4550000000000         1.198425916682426E-009
   84.6450000000000         1.202439561484696E-009
   84.8350000000000         1.206444997786130E-009
   85.0250000000000         1.210442264815330E-009
   85.2150000000000         1.214431842819108E-009
   85.4050000000000         1.218414694583304E-009
   85.5950000000000         1.222391963209258E-009
   85.7850000000000         1.226364885396840E-009
   85.9750000000000         1.230334494051654E-009
   86.1650000000000         1.234301733685991E-009
   86.3550000000000         1.238267416985142E-009
   86.5450000000000         1.242232262440707E-009
   86.7350000000000         1.246197131585324E-009
   86.9250000000000         1.250162944770906E-009
   87.1150000000000         1.254130612923483E-009
   87.3050000000000         1.258101084889297E-009
   87.4950000000000         1.262075634242962E-009
   87.6850000000000         1.266055570139730E-009
   87.8750000000000         1.270042095392200E-009
   88.0650000000000         1.274036071048341E-009
   88.2550000000000         1.278038380421514E-009
   88.4450000000000         1.282049426650221E-009
   88.6350000000000         1.286069390308660E-009
   88.8250000000000         1.290098259281446E-009
   89.0150000000000         1.294135845450820E-009
   89.2050000000000         1.298181410989727E-009
   89.3950000000000         1.302233300188733E-009
   89.5850000000000         1.306289021447279E-009
   89.7750000000000         1.310346121659334E-009
   89.9650000000000         1.314402933246764E-009
   90.1550000000000         1.318457808233309E-009
   90.3450000000000         1.322508975484315E-009
   90.5350000000000         1.326555117329475E-009
   90.7250000000000         1.330594742637452E-009
   90.9150000000000         1.334626679528637E-009
   91.1050000000000         1.338650086455181E-009
   91.2950000000000         1.342664484785596E-009
   91.4850000000000         1.346669742431223E-009
   91.6750000000000         1.350666181124451E-009
   91.8650000000000         1.354654517355780E-009
   92.0550000000000         1.358635527576604E-009
   92.2450000000000         1.362609916998570E-009
   92.4350000000000         1.366578163380862E-009
   92.6250000000000         1.370540534367007E-009
   92.8150000000000         1.374497054279029E-009
   93.0050000000000         1.378447462717965E-009
   93.1950000000000         1.382391206112372E-009
   93.3850000000000         1.386327169151992E-009
   93.5750000000000         1.390253435835008E-009
   93.7650000000000         1.394167535253238E-009
   93.9550000000000         1.398067490407497E-009
   94.1450000000000         1.401951361090378E-009
   94.3350000000000         1.405817423437158E-009
   94.5250000000000         1.409664104028440E-009
   94.7150000000000         1.413490195043238E-009
   94.9050000000000         1.417294966589817E-009
   95.0950000000000         1.421078050712594E-009
   95.2850000000000         1.424839477537798E-009
   95.4750000000000         1.428579578677566E-009
   95.6650000000000         1.432298482093709E-009
   95.8550000000000         1.435998028860247E-009
   96.0450000000000         1.439678528712138E-009
   96.2350000000000         1.443340245196391E-009
   96.4250000000000         1.446984769200999E-009
   96.6150000000000         1.450614523592073E-009
   96.8050000000000         1.454232101475200E-009
   96.9950000000000         1.457840255094080E-009
   97.1850000000000         1.461441399183771E-009
   97.3750000000000         1.465037438595831E-009
   97.5650000000000         1.468629518251454E-009
   97.7550000000000         1.472218995703808E-009
   97.9450000000000         1.475806934290011E-009
   98.1350000000000         1.479394071693158E-009
   98.3250000000000         1.482980759120977E-009
   98.5150000000000         1.486566799566890E-009
   98.7050000000000         1.490151654114756E-009
   98.8950000000000         1.493734466806259E-009
   99.0850000000000         1.497314266369079E-009
   99.2750000000000         1.500889986027040E-009
   99.4650000000000         1.504460065144513E-009
   99.6550000000000         1.508022595734132E-009
   99.8450000000000         1.511576049451826E-009
   100.035000000000         1.515118968357569E-009
   100.225000000000         1.518649830439702E-009
   100.415000000000         1.522167294110275E-009
   100.605000000000         1.525670167811725E-009
   100.795000000000         1.529157472293354E-009
   100.985000000000         1.532628492760862E-009
   101.175000000000         1.536082751287556E-009
   101.365000000000         1.539520376934922E-009
   101.555000000000         1.542941069582692E-009
   101.745000000000         1.546344812262407E-009
   101.935000000000         1.549731509396555E-009
   102.125000000000         1.553101086685872E-009
   102.315000000000         1.556453701641329E-009
   102.505000000000         1.559789653342504E-009
   102.695000000000         1.563109212101677E-009
   102.885000000000         1.566412375828587E-009
   103.075000000000         1.569699327759890E-009
   103.265000000000         1.572970388294181E-009
   103.455000000000         1.576225552584491E-009
   103.645000000000         1.579464632560460E-009
   103.835000000000         1.582687162260552E-009
   104.025000000000         1.585892708847411E-009
   104.215000000000         1.589080651071182E-009
   104.405000000000         1.592250671304083E-009
   104.595000000000         1.595402454984482E-009
   104.785000000000         1.598535332743656E-009
   104.975000000000         1.601648246166746E-009
   105.165000000000         1.604739956468981E-009
   105.355000000000         1.607809387661205E-009
   105.545000000000         1.610855721359203E-009
   105.735000000000         1.613878306651714E-009
   105.925000000000         1.616876698521844E-009
   106.115000000000         1.619850736612857E-009
   106.305000000000         1.622800433215887E-009
   106.495000000000         1.625726170735878E-009
   106.685000000000         1.628628280000847E-009
   106.875000000000         1.631507637890010E-009
   107.065000000000         1.634364867807055E-009
   107.255000000000         1.637201046781650E-009
   107.445000000000         1.640017735829397E-009
   107.635000000000         1.642816450510685E-009
   107.825000000000         1.645598692974900E-009
   108.015000000000         1.648365825301448E-009
   108.205000000000         1.651119034592850E-009
   108.395000000000         1.653859644260459E-009
   108.585000000000         1.656589690751084E-009
   108.775000000000         1.659311501155414E-009
   108.965000000000         1.662026677663013E-009
   109.155000000000         1.664736457078816E-009
   109.345000000000         1.667441231919376E-009
   109.535000000000         1.670141310934349E-009
   109.725000000000         1.672836585114553E-009
   109.915000000000         1.675526808998538E-009
   110.105000000000         1.678211537691973E-009