  -1.42500000000000         3.000629981173817E-019
  -1.23500000000000         6.751998963363775E-018
  -1.04500000000000         1.219814179296936E-016
 -0.855000000000000        -2.457468851270920E-016
 -0.665000000000000         1.835806619347552E-015
 -0.475000000000000         3.965281099008561E-015
 -0.285000000000000         2.263908271841773E-015
 -9.499999999999975E-002    2.843204279476175E-014
  9.500000000000020E-002    4.850198605409262E-014
  0.285000000000000         6.125846556900531E-014
  0.475000000000000         2.885995805870991E-013
  0.665000000000000         2.759412259946019E-013
  0.855000000000000         6.576939137753211E-013
   1.04500000000000         6.969734750356941E-013
   1.23500000000000         1.093130235578441E-012
   1.42500000000000         1.469527616589119E-012
   1.61500000000000         1.656696720663096E-012
   1.80500000000000         1.966258580745405E-012
   1.99500000000000         2.631259775328184E-012
   2.18500000000000         3.019584802862400E-012
   2.37500000000000         3.407369072203471E-012
   2.56500000000000         3.713322325182455E-012
   2.75500000000000         4.284793008570065E-012
   2.94500000000000         4.868552541123446E-012
   3.13500000000000         5.042492816687273E-012
   3.32500000000000         4.611614948587407E-012
   3.51500000000000         4.685229419979761E-012
   3.70500000000000         4.773036170483871E-012
   3.89500000000000         4.789519672653527E-012
   4.08500000000000         4.725863987008127E-012
   4.27500000000000         4.628118103965253E-012
   4.46500000000000         4.452569621654498E-012
   4.65500000000000         4.263657744164385E-012
   4.84500000000000         4.269428530939061E-012
   5.03500000000000         4.099989036243768E-012
   5.22500000000000         4.085700987507008E-012
   5.41500000000000         3.612761824782863E-012
   5.60500000000000         2.992339357355690E-012
   5.79500000000000         2.946767216903721E-012
   5.98500000000000         3.036914256822478E-012
   6.17500000000000         2.559651990113071E-012
   6.36500000000000         2.233152789414148E-012
   6.55500000000000         2.015449497404896E-012
   6.74500000000000         1.699848246130964E-012
   6.93500000000000         1.452706243220572E-012
   7.12500000000000         1.059684081514272E-012
   7.31500000000000         1.003233491561206E-012
   7.50500000000000         7.911150345397966E-013
   7.69500000000000         7.291029020955347E-013
   7.88500000000000         8.396575029556997E-013
   8.07500000000000         8.686509737297524E-013
   8.26500000000000         1.121461671059459E-012
   8.45500000000000         1.459791906703720E-012
   8.64500000000000         1.557952277181406E-012
   8.83500000000000         1.801862489295252E-012
   9.02500000000000         1.895981895003636E-012
   9.21500000000000         2.467574352166065E-012
   9.40500000000000         2.791779772559953E-012
   9.59500000000000         3.055278321384931E-012
   9.78500000000000         3.344278645343032E-012
   9.97500000000000         3.288966771653729E-012
   10.1650000000000         3.154752227181211E-012
   10.3550000000000         3.166034120702302E-012
   10.5450000000000         3.233845341593099E-012
   10.7350000000000         3.312095742328023E-012
   10.9250000000000         3.338806302765325E-012
   11.1150000000000         3.360423079344160E-012
   11.3050000000000         3.509218704119346E-012
   11.4950000000000         3.646534679233663E-012
   11.6850000000000         3.699682816425132E-012
   11.8750000000000         3.784153396800199E-012
   12.0650000000000         3.740306976850922E-012
   12.2550000000000         3.630612407540703E-012
   12.4450000000000         3.482173495733505E-012
   12.6350000000000         3.531954814783296E-012
   12.8250000000000         2.682793004082989E-012
   13.0150000000000         2.560786660821963E-012
   13.2050000000000         2.154919922099952E-012
   13.3950000000000         1.948332246842368E-012
   13.5850000000000         1.966883154308012E-012
   13.7750000000000         1.599846990393239E-012
   13.9650000000000         1.330740868448634E-012
   14.1550000000000         1.391529555874667E-012
   14.3450000000000         1.269555269719191E-012
   14.5350000000000         1.414311101277830E-012
   14.7250000000000         1.597688626030390E-012
   14.9150000000000         1.784736379078761E-012
   15.1050000000000         1.847617651792033E-012
   15.2950000000000         2.004384573180144E-012
   15.4850000000000         2.258839850847501E-012
   15.6750000000000         2.455902197584806E-012
   15.8650000000000         2.554375573486287E-012
   16.0550000000000         2.705268445659279E-012
   16.2450000000000         2.766313314455210E-012
   16.4350000000000         3.169931233169221E-012
   16.6250000000000         3.641672527466287E-012
   16.8150000000000         3.739868620032682E-012
   17.0050000000000         3.659225278951777E-012
   17.1950000000000         3.930499452048864E-012
   17.3850000000000         3.902681164863833E-012
   17.5750000000000         4.112260096300361E-012
   17.7650000000000         4.241679801208187E-012
   17.9550000000000         4.360376705369676E-012
   18.1450000000000         4.401314014273340E-012
   18.3350000000000         4.359554420111845E-012
   18.5250000000000         4.273459191796013E-012
   18.7150000000000         3.979547857183306E-012
   18.9050000000000         3.930019681891308E-012
   19.0950000000000         3.353983739684260E-012
   19.2850000000000         3.389018822252012E-012
   19.4750000000000         2.563609896752770E-012
   19.6650000000000         2.113630253019797E-012
   19.8550000000000         2.262988666734367E-012
   20.0450000000000         1.827934178202021E-012
   20.2350000000000         1.583556991738185E-012
   20.4250000000000         1.351996723619670E-012
   20.6150000000000         1.081187327470277E-012
   20.8050000000000         6.227138213705387E-013
   20.9950000000000         5.667761023891649E-013
   21.1850000000000         5.318962600825453E-013
   21.3750000000000         3.565782445543534E-013
   21.5650000000000         3.358927643483933E-013
   21.7550000000000         2.288782939673107E-013
   21.9450000000000         4.223722748235146E-013
   22.1350000000000         3.142276183219662E-013
   22.3250000000000         1.729692143101014E-013
   22.5150000000000         4.704676999211723E-013
   22.7050000000000         7.169417502536429E-013
   22.8950000000000         8.185913507057073E-013
   23.0850000000000         1.063754170547350E-012
   23.2750000000000         1.419063131829803E-012
   23.4650000000000         1.375585346712832E-012
   23.6550000000000         2.018812664934640E-012
   23.8450000000000         2.346105966341838E-012
   24.0350000000000         2.485039183773519E-012
   24.2250000000000         3.033732564094677E-012
   24.4150000000000         3.586154732324139E-012
   24.6050000000000         4.058334816970612E-012
   24.7950000000000         4.223776596047364E-012
   24.9850000000000         4.733932153756171E-012
   25.1750000000000         4.849042174530656E-012
   25.3650000000000         4.752575960633418E-012
   25.5550000000000         4.912959618398755E-012
   25.7450000000000         4.959880988925703E-012
   25.9350000000000         4.714153147464140E-012
   26.1250000000000         4.554335365935901E-012
   26.3150000000000         4.116149763903432E-012
   26.5050000000000         3.936333961893170E-012
   26.6950000000000         3.869438986842272E-012
   26.8850000000000         3.567840403624216E-012
   27.0750000000000         3.453107475179648E-012
   27.2650000000000         2.820213588648257E-012
   27.4550000000000         2.522452669471312E-012
   27.6450000000000         2.184320603398508E-012
   27.8350000000000         2.492050649870178E-012
   28.0250000000000         1.884796251214449E-012
   28.2150000000000         1.758761313838286E-012
   28.4050000000000         1.512536496020368E-012
   28.5950000000000         1.306574899307221E-012
   28.7850000000000         8.071208250198346E-013
   28.9750000000000         7.471775473734223E-013
   29.1650000000000         5.417123834194919E-013
   29.3550000000000         6.725062034924782E-013
   29.5450000000000         6.573418385039782E-013
   29.7350000000000         5.996464245979839E-013
   29.9250000000000         5.407446314404726E-013
   30.1150000000000         6.419878505532678E-013
   30.3050000000000         7.730207298739420E-013
   30.4950000000000         9.600558691704130E-013
   30.6850000000000         1.354798645534583E-012
   30.8750000000000         1.572266863032791E-012
   31.0650000000000         1.767401199784423E-012
   31.2550000000000         1.896672117170899E-012
   31.4450000000000         2.273928742245477E-012
   31.6350000000000         2.922971444622381E-012
   31.8250000000000         3.122313070594281E-012
   32.0150000000000         3.646064170840820E-012
   32.2050000000000         3.922289572784194E-012
   32.3950000000000         4.388385667670433E-012
   32.5850000000000         4.799452018139182E-012
   32.7750000000000         5.391674457834058E-012
   32.9650000000000         5.402025772002502E-012
   33.1550000000000         5.658164285785105E-012
   33.3450000000000         5.644011842984745E-012
   33.5350000000000         5.354541412903286E-012
   33.7250000000000         5.329395953474259E-012
   33.9150000000000         5.154491181022207E-012
   34.1050000000000         4.914972568477393E-012
   34.2950000000000         4.750939030814636E-012
   34.4850000000000         4.162124150198653E-012
   34.6750000000000         3.989945950123394E-012
   34.8650000000000         3.465079547095238E-012
   35.0550000000000         3.386903371708306E-012
   35.2450000000000         3.518487754904277E-012
   35.4350000000000         2.979110794894064E-012
   35.6250000000000         2.561160783410342E-012
   35.8150000000000         2.140101888471012E-012
   36.0050000000000         1.719946638673173E-012
   36.1950000000000         1.518666136677124E-012
   36.3850000000000         1.473505899116638E-012
   36.5750000000000         8.014814332610424E-013
   36.7650000000000         9.354848826372140E-013
   36.9550000000000         4.889349957220013E-013
   37.1450000000000         4.378809710172439E-013
   37.3350000000000         3.966499708712430E-013
   37.5250000000000         5.122239211100440E-013
   37.7150000000000         6.722792788620596E-013
   37.9050000000000         9.186871335827777E-013
   38.0950000000000         1.106537699908703E-012
   38.2850000000000         1.429463110799216E-012
   38.4750000000000         1.637201008234896E-012
   38.6650000000000         2.174492231601162E-012
   38.8550000000000         2.364109348362180E-012
   39.0450000000000         2.580735674520441E-012
   39.2350000000000         2.953172797629877E-012
   39.4250000000000         3.348746332771776E-012
   39.6150000000000         3.358334068434585E-012
   39.8050000000000         3.704532692534127E-012
   39.9950000000000         3.924158252609169E-012
   40.1850000000000         4.101144416139170E-012
   40.3750000000000         4.146347416841339E-012
   40.5650000000000         4.049118784844191E-012
   40.7550000000000         3.758859062494115E-012
   40.9450000000000         3.514084328013552E-012
   41.1350000000000         3.547823068199860E-012
   41.3250000000000         3.285535560913299E-012
   41.5150000000000         3.133204719622276E-012
   41.7050000000000         2.930336132627579E-012
   41.8950000000000         3.056050593936652E-012
   42.0850000000000         2.863852491810563E-012
   42.2750000000000         2.648999563725451E-012
   42.4650000000000         2.557852930290577E-012
   42.6550000000000         2.676611548838297E-012
   42.8450000000000         2.570478976690882E-012
   43.0350000000000         2.311415079783534E-012
   43.2250000000000         2.323880738612666E-012
   43.4150000000000         2.374873614235383E-012
   43.6050000000000         2.304829762610831E-012
   43.7950000000000         2.150591992974812E-012
   43.9850000000000         2.225583194668422E-012
   44.1750000000000         2.332212605886704E-012
   44.3650000000000         2.452737257372044E-012
   44.5550000000000         2.572804471731939E-012
   44.7450000000000         2.550322869805140E-012
   44.9350000000000         2.378268701861496E-012
   45.1250000000000         2.790292781963166E-012
   45.3150000000000         2.883529256356750E-012
   45.5050000000000         3.136514430321510E-012
   45.6950000000000         3.306940559459702E-012
   45.8850000000000         3.582947849855504E-012
   46.0750000000000         3.922878721099286E-012
   46.2650000000000         4.028049789980180E-012
   46.4550000000000         4.028481764633847E-012
   46.6450000000000         3.953290345517695E-012
   46.8350000000000         3.889078449908044E-012
   47.0250000000000         3.977185349461200E-012
   47.2150000000000         3.775213459775095E-012
   47.4050000000000         3.631578628697528E-012
   47.5950000000000         3.436277239450107E-012
   47.7850000000000         3.283726115165719E-012
   47.9750000000000         3.230377695983928E-012
   48.1650000000000         2.817888337877133E-012
   48.3550000000000         2.752011865615757E-012
   48.5450000000000         2.493186162001931E-012
   48.7350000000000         2.115416025173341E-012
   48.9250000000000         1.852962296359540E-012
   49.1150000000000         1.942978435898648E-012
   49.3050000000000         1.938828101076589E-012
   49.4950000000000         1.965597974235958E-012
   49.6850000000000         1.357431222172180E-012
   49.8750000000000         9.239712214752956E-013
   50.0650000000000         8.769708819262202E-013
   50.2550000000000         9.225779214406690E-013
   50.4450000000000         1.091916420669969E-012
   50.6350000000000         9.038573142429247E-013
   50.8250000000000         8.358979034866757E-013
   51.0150000000000         6.586811123545690E-013
   51.2050000000000         9.813663954391780E-013
   51.3950000000000         1.312464848851308E-012
   51.5850000000000         1.046078433570510E-012
   51.7750000000000         1.648191241219748E-012
   51.9650000000000         2.422598996313997E-012
   52.1550000000000         3.014547030134721E-012
   52.3450000000000         3.457758887338486E-012
   52.5350000000000         3.839417478285420E-012
   52.7250000000000         4.209315435090695E-012
   52.9150000000000         4.331958125865520E-012
   53.1050000000000         4.597745055145840E-012
   53.2950000000000         5.086450047421396E-012
   53.4850000000000         5.238406154562351E-012
   53.6750000000000         5.430481371690309E-012
   53.8650000000000         5.624476177492873E-012
   54.0550000000000         5.659608113334957E-012
   54.2450000000000         5.678374428060821E-012
   54.4350000000000         5.650799893013045E-012
   54.6250000000000         5.652170034036145E-012
   54.8150000000000         5.582167980499905E-012
   55.0050000000000         5.554827655953121E-012
   55.1950000000000         5.406482358714954E-012
   55.3850000000000         5.293425502730023E-012
   55.5750000000000         4.930408868058659E-012
   55.7650000000000         4.666945666013087E-012
   55.9550000000000         4.320766582796630E-012
   56.1450000000000         4.047476380410755E-012
   56.3350000000000         3.587482048728318E-012
   56.5250000000000         3.344700265674646E-012
   56.7150000000000         2.602325807616952E-012
   56.9050000000000         2.024281245433844E-012
   57.0950000000000         1.694160695737973E-012
   57.2850000000000         1.270839160970326E-012
   57.4750000000000         1.418115377240204E-012
   57.6650000000000         5.318234706975912E-013
   57.8550000000000         9.419550075201259E-014
   58.0450000000000        -2.380443792810281E-013
   58.2350000000000        -2.808074771206872E-013
   58.4250000000000        -4.482174327408108E-013
   58.6150000000000        -3.793546206641482E-013
   58.8050000000000        -4.388313775471216E-013
   58.9950000000000        -3.829877454457520E-013
   59.1850000000000        -3.018346026668514E-013
   59.3750000000000        -2.609728981853723E-013
   59.5650000000000        -2.100402427443075E-013
   59.7550000000000        -1.563377441699313E-013
   59.9450000000000         7.614519295765952E-014
   60.1350000000000         3.014251479346138E-013
   60.3250000000000         8.315478946507806E-013
   60.5150000000000         9.999377020443365E-013
   60.7050000000000         9.049149277943764E-013
   60.8950000000000         1.228862707204185E-012
   61.0850000000000         2.003510762231601E-012
   61.2750000000000         2.752627002866884E-012
   61.4650000000000         3.214098386902387E-012
   61.6550000000000         4.043623640252215E-012
   61.8450000000000         4.613984753780377E-012
   62.0350000000000         4.488202045693164E-012
   62.2250000000000         5.087536965059567E-012
   62.4150000000000         5.345775644459911E-012
   62.6050000000000         6.145849850865091E-012
   62.7950000000000         5.915391316044462E-012
   62.9850000000000         5.910918803982467E-012
   63.1750000000000         5.764227808954930E-012
   63.3650000000000         5.418553083430753E-012
   63.5550000000000         5.206990188499140E-012
   63.7450000000000         5.091779194727091E-012
   63.9350000000000         4.609115886926468E-012
   64.1250000000000         4.697284489803399E-012
   64.3150000000000         4.275579325894208E-012
   64.5050000000000         3.865000697236001E-012
   64.6950000000000         3.368129009619141E-012
   64.8850000000000         3.120745134627726E-012
   65.0750000000000         2.901009137262854E-012
   65.2650000000000         2.621743550427539E-012
   65.4550000000000         2.459659691099877E-012
   65.6450000000000         1.763897392133637E-012
   65.8350000000000         1.288229639952277E-012
   66.0250000000000         9.925278555937335E-013
   66.2150000000000         1.014936207904496E-012
   66.4050000000000         4.068544034331053E-013
   66.5950000000000         6.616204226983680E-013
   66.7850000000000         3.100079474677645E-013
   66.9750000000000         3.425975567707244E-013
   67.1650000000000         4.701467209124592E-013
   67.3550000000000         7.466565476999973E-013
   67.5450000000000         8.764177252634264E-013
   67.7350000000000         1.443147633764331E-012
   67.9250000000000         1.586589084594363E-012
   68.1150000000000         1.699526520029613E-012
   68.3050000000000         1.961353545164596E-012
   68.4950000000000         2.102825336044005E-012
   68.6850000000000         2.467172494408491E-012
   68.8750000000000         2.870222546226679E-012
   69.0650000000000         3.180935773459228E-012
   69.2550000000000         3.484251113267141E-012
   69.4450000000000         3.833873979656089E-012
   69.6350000000000         4.374621426440034E-012
   69.8250000000000         4.779307427768319E-012
   70.0150000000000         4.769775138881046E-012
   70.2050000000000         4.665558406379584E-012
   70.3950000000000         4.699906455253583E-012
   70.5850000000000         4.627800412510664E-012
   70.7750000000000         4.971750672172649E-012
   70.9650000000000         4.880196694314503E-012
   71.1550000000000         4.667738131409497E-012
   71.3450000000000         4.340812191409735E-012
   71.5350000000000         4.045118412067468E-012
   71.7250000000000         3.886328395446589E-012
   71.9150000000000         3.821452342759986E-012
   72.1050000000000         3.769098738113681E-012
   72.2950000000000         3.626838610458475E-012
   72.4850000000000         3.483816990315255E-012
   72.6750000000000         3.403037885396515E-012
   72.8650000000000         3.130968085459343E-012
   73.0550000000000         3.008277679199358E-012
   73.2450000000000         2.907777480337933E-012
   73.4350000000000         2.904589477411897E-012
   73.6250000000000         2.537333006153176E-012
   73.8150000000000         2.285175261717846E-012
   74.0050000000000         2.256385994586096E-012
   74.1950000000000         2.418328894384700E-012
   74.3850000000000         2.765181613751715E-012
   74.5750000000000         2.897410533043386E-012
   74.7650000000000         2.953979798789537E-012
   74.9550000000000         2.941728140055760E-012
   75.1450000000000         3.086381219184284E-012
   75.3350000000000         3.366955924297703E-012
   75.5250000000000         3.556627247173903E-012
   75.7150000000000         3.587370063127447E-012
   75.9050000000000         3.461516919162171E-012
   76.0950000000000         3.321604397368006E-012
   76.2850000000000         3.100669012798802E-012
   76.4750000000000         3.029679279564463E-012
   76.6650000000000         2.931546277311553E-012
   76.8550000000000         2.754800731435355E-012
   77.0450000000000         2.542209686308952E-012
   77.2350000000000         2.677760900001996E-012
   77.4250000000000         2.579783849915717E-012
   77.6150000000000         2.648131714525855E-012
   77.8050000000000         2.796628066490440E-012
   77.9950000000000         2.683191479412179E-012
   78.1850000000000         2.447400346654458E-012
   78.3750000000000         2.232363967329298E-012
   78.5650000000000         1.818712308303165E-012
   78.7550000000000         1.689900605197947E-012
   78.9450000000000         1.626389704187835E-012
   79.1350000000000         1.353398919914807E-012
   79.3250000000000         1.230516509247259E-012
   79.5150000000000         1.214928303870635E-012
   79.7050000000000         1.416817832096438E-012
   79.8950000000000         1.420765593991830E-012
   80.0850000000000         1.704697227910554E-012
   80.2750000000000         1.593329892430149E-012
   80.4650000000000         1.457844517487100E-012
   80.6550000000000         1.788435922124967E-012
   80.8450000000000         1.845296837088844E-012
   81.0350000000000         2.082723992312520E-012
   81.2250000000000         2.353406612810083E-012
   81.4150000000000         2.804986081745146E-012
   81.6050000000000         3.027181483250003E-012
   81.7950000000000         3.191626748020392E-012
   81.9850000000000         3.334036291174627E-012
   82.1750000000000         3.894213789279138E-012
   82.3650000000000         4.244680219424845E-012
   82.5550000000000         4.214033722996289E-012
   82.7450000000000         4.806105633869745E-012
   82.9350000000000         5.016268276572598E-012
   83.1250000000000         5.312939359522722E-012
   83.3150000000000         5.530798501483505E-012
   83.5050000000000         5.608655012605802E-012
   83.6950000000000         5.628242038524270E-012
   83.8850000000000         5.597790340712365E-012
   84.0750000000000         5.476133946013799E-012
   84.2650000000000         5.367986942542550E-012
   84.4550000000000         5.474954178421172E-012
   84.6450000000000         5.588850004340136E-012
   84.8350000000000         5.679483781092791E-012
   85.0250000000000         5.698844604672485E-012
   85.2150000000000         5.562618211839131E-012
   85.4050000000000         5.380397850877826E-012
   85.5950000000000         5.414112021946526E-012
   85.7850000000000         5.011248537968627E-012
   85.9750000000000         4.727157400804154E-012
   86.1650000000000         4.242853221921624E-012
   86.3550000000000         3.289536238241252E-012
   86.5450000000000         2.680654255285046E-012
   86.7350000000000         2.144455383314566E-012
   86.9250000000000         1.727351344663172E-012
   87.1150000000000         1.387761410654403E-012
   87.3050000000000         9.869704581690926E-013
   87.4950000000000         5.221683151561408E-013
   87.6850000000000         2.203029653882237E-013
   87.8750000000000        -1.648067366364340E-013
   88.0650000000000         2.068306408976467E-013
   88.2550000000000         7.136065831997558E-014
   88.4450000000000         6.304255245243164E-014
   88.6350000000000         4.402982067020693E-014
   88.8250000000000         2.708728248037696E-013
   89.0150000000000         5.955072444901200E-013
   89.2050000000000         5.372353314172305E-013
   89.3950000000000         8.113876286577090E-013
   89.5850000000000         1.218748961696490E-012
   89.7750000000000         1.243113618264596E-012
   89.9650000000000         1.881295002364957E-012
   90.1550000000000         2.387041138981673E-012
   90.3450000000000         2.984003190810651E-012
   90.5350000000000         3.505448700790152E-012
   90.7250000000000         4.043876944997339E-012
   90.9150000000000         4.554637287437630E-012
   91.1050000000000         5.028384979907960E-012
   91.2950000000000         5.204665873995383E-012
   91.4850000000000         5.828360316642672E-012
   91.6750000000000         6.003056920670823E-012
   91.8650000000000         6.439917790624087E-012
   92.0550000000000         6.561133267709103E-012
   92.2450000000000         6.865362643548972E-012
   92.4350000000000         6.964589266096313E-012
   92.6250000000000         6.826799497028585E-012
   92.8150000000000         6.568504861277323E-012
   93.0050000000000         6.317909011132642E-012
   93.1950000000000         6.049975020547648E-012
   93.3850000000000         5.986934309659308E-012
   93.5750000000000         4.875893803398494E-012
   93.7650000000000         4.282771374129056E-012
   93.9550000000000         3.046411544675672E-012
   94.1450000000000         2.584420958990909E-012
   94.3350000000000         1.940085288440279E-012
   94.5250000000000         1.460592234853194E-012
   94.7150000000000         1.309566870434102E-012
   94.9050000000000         9.609359458335517E-013
   95.0950000000000         4.321834409039689E-013
   95.2850000000000         2.409092076589063E-013
   95.4750000000000         1.279854997766601E-013
   95.6650000000000        -1.808789004307231E-014
   95.8550000000000        -3.737090535359962E-014
   96.0450000000000        -2.559241890065241E-013
   96.2350000000000        -3.646633254573279E-013
   96.4250000000000        -4.302404665552775E-013
   96.6150000000000        -3.652443578188100E-013
   96.8050000000000        -3.720777045477421E-013
   96.9950000000000        -3.531888192765664E-013
   97.1850000000000        -1.420240243304905E-013
   97.3750000000000         1.448923623917162E-013
   97.5650000000000         6.269395591702975E-013
   97.7550000000000         1.030975838968002E-012
   97.9450000000000         1.322372803413872E-012
   98.1350000000000         1.613979662536219E-012
   98.3250000000000         1.793422195814506E-012
   98.5150000000000         2.334303135682786E-012
   98.7050000000000         2.735186064727617E-012
   98.8950000000000         3.177647805664742E-012
   99.0850000000000         3.511865989851732E-012
   99.2750000000000         3.357565203344746E-012
   99.4650000000000         3.809942734185430E-012
   99.6550000000000         4.168728015139287E-012
   99.8450000000000         4.446805790246968E-012
   100.035000000000         4.612176807583676E-012
   100.225000000000         4.758916723427974E-012
   100.415000000000         4.802797374584996E-012
   100.605000000000         4.828226084863561E-012
   100.795000000000         4.646970493509328E-012
   100.985000000000         4.777684916552433E-012
   101.175000000000         4.814288302261310E-012
   101.365000000000         4.666858727135529E-012
   101.555000000000         4.805442014871367E-012
   101.745000000000         4.884408426434214E-012
   101.935000000000         5.133885974490595E-012
   102.125000000000         4.742224288334511E-012
   102.315000000000         4.374899827969768E-012
   102.505000000000         4.525983343313964E-012
   102.695000000000         4.147929744200810E-012
   102.885000000000         3.763817972071591E-012
   103.075000000000         3.322172617783029E-012
   103.265000000000         2.747688994863707E-012
   103.455000000000         2.326220249029753E-012
   103.645000000000         2.175069625822286E-012
   103.835000000000         2.054451929834207E-012
   104.025000000000         1.644910560140960E-012
   104.215000000000         1.499542042026089E-012
   104.405000000000         1.432776143828570E-012
   104.595000000000         1.411268576767283E-012
   104.785000000000         1.499752228256436E-012
   104.975000000000         1.430879717002331E-012
   105.165000000000         1.405888760976736E-012
   105.355000000000         1.518618373020019E-012
   105.545000000000         1.726003775221889E-012
   105.735000000000         1.960888246549479E-012
   105.925000000000         2.102610422921699E-012
   106.115000000000         2.099089454664143E-012
   106.305000000000         2.083914040364851E-012
   106.495000000000         2.142575156897225E-012
   106.685000000000         2.099824748567914E-012
   106.875000000000         2.361005185109844E-012
   107.065000000000         2.341954319426311E-012
   107.255000000000         2.343446121628003E-012
   107.445000000000         2.258587708122534E-012
   107.635000000000         2.202341334882698E-012
   107.825000000000         2.229628997495382E-012
   108.015000000000         2.340482443121091E-012
   108.205000000000         2.438114050113288E-012
   108.395000000000         2.426350509956959E-012
   108.585000000000         2.542031927035248E-012
   108.775000000000         2.567969215041559E-012
   108.965000000000         2.637866727440976E-012
   109.155000000000         2.643013100289707E-012
   109.345000000000         2.969326296742801E-012
   109.535000000000         2.917906926308103E-012
   109.725000000000         2.895463657644293E-012
   109.915000000000         2.907888108511378E-012
   110.105000000000         2.944857204347505E-012