  -1.42500000000000         0.000000000000000E+000
  -1.23500000000000         4.173227011006548E-010
  -1.04500000000000         2.853390178994637E-009
 -0.855000000000000         1.324000303913725E-008
 -0.665000000000000         5.023045937193489E-008
 -0.475000000000000         1.584511893553781E-007
 -0.285000000000000         4.238131288529252E-007
 -9.499999999999975E-002    9.863247073607489E-007
  9.500000000000020E-002    1.979222933629988E-006
  0.285000000000000         3.514032700760740E-006
  0.475000000000000         5.634332495587874E-006
  0.665000000000000         8.068410600006086E-006
  0.855000000000000         1.094897529750585E-005
   1.04500000000000         1.351717946154651E-005
   1.23500000000000         1.609145697680854E-005
   1.42500000000000         1.725117253551951E-005
   1.61500000000000         1.921026006577298E-005
   1.80500000000000         2.060937653082626E-005
   1.99500000000000         2.153316482239325E-005
   2.18500000000000         2.214372523158238E-005
   2.37500000000000         2.237644104086497E-005
   2.56500000000000         2.236536939322284E-005
   2.75500000000000         2.217724584258724E-005
   2.94500000000000         2.182116903841302E-005
   3.13500000000000         2.142857314937419E-005
   3.32500000000000         2.113733471341281E-005
   3.51500000000000         2.065931947654854E-005
   3.70500000000000         2.029289504318779E-005
   3.89500000000000         1.991240452905605E-005
   4.08500000000000         1.954648012839987E-005
   4.27500000000000         1.913642140389639E-005
   4.46500000000000         1.860276536014144E-005
   4.65500000000000         1.818823040417202E-005
   4.84500000000000         1.804353470811526E-005
   5.03500000000000         1.808462281629494E-005
   5.22500000000000         1.815075413106377E-005
   5.41500000000000         1.776309021767197E-005
   5.60500000000000         1.697411631595386E-005
   5.79500000000000         1.567278380832216E-005
   5.98500000000000         1.402109770449616E-005
   6.17500000000000         1.232469093621127E-005
   6.36500000000000         1.076631375226764E-005
   6.55500000000000         1.007498327464969E-005
   6.74500000000000         9.761120561495027E-006
   6.93500000000000         1.002993107944767E-005
   7.12500000000000         1.136373787303973E-005
   7.31500000000000         1.282832381149784E-005
   7.50500000000000         1.470796131751885E-005
   7.69500000000000         1.687049440828999E-005
   7.88500000000000         1.910713576351568E-005
   8.07500000000000         2.133805919401680E-005
   8.26500000000000         2.238699905697389E-005
   8.45500000000000         2.381696612102264E-005
   8.64500000000000         2.492973326267360E-005
   8.83500000000000         2.536323707365966E-005
   9.02500000000000         2.433246501647279E-005
   9.21500000000000         2.230627345635475E-005
   9.40500000000000         1.976020194495242E-005
   9.59500000000000         1.685783744520412E-005
   9.78500000000000         1.444594535991567E-005
   9.97500000000000         1.170947992308797E-005
   10.1650000000000         9.611714294066725E-006
   10.3550000000000         8.906164124312588E-006
   10.5450000000000         7.685476301431808E-006
   10.7350000000000         7.303885818701263E-006
   10.9250000000000         7.164767844598195E-006
   11.1150000000000         6.945286585531386E-006
   11.3050000000000         6.778694763319108E-006
   11.4950000000000         7.110017514218201E-006
   11.6850000000000         7.960431674115219E-006
   11.8750000000000         9.064438885126849E-006
   12.0650000000000         1.022307376161560E-005
   12.2550000000000         1.129768611043668E-005
   12.4450000000000         1.239536247930837E-005
   12.6350000000000         1.268979860990675E-005
   12.8250000000000         1.295944447282600E-005
   13.0150000000000         1.294043503898088E-005
   13.2050000000000         1.247916406759494E-005
   13.3950000000000         1.132583755701616E-005
   13.5850000000000         9.837354100500580E-006
   13.7750000000000         8.525949846156058E-006
   13.9650000000000         7.457989362707688E-006
   14.1550000000000         7.236005420959599E-006
   14.3450000000000         6.507418176443304E-006
   14.5350000000000         6.402620335103015E-006
   14.7250000000000         6.512095743632974E-006
   14.9150000000000         7.523654916712439E-006
   15.1050000000000         9.244690982143102E-006
   15.2950000000000         1.109979454539860E-005
   15.4850000000000         1.295713214834504E-005
   15.6750000000000         1.417411588558046E-005
   15.8650000000000         1.556485938820079E-005
   16.0550000000000         1.697828348509580E-005
   16.2450000000000         1.795416831672715E-005
   16.4350000000000         1.875439815406233E-005
   16.6250000000000         1.947706914348543E-005
   16.8150000000000         2.012673435503526E-005
   17.0050000000000         2.023680818465708E-005
   17.1950000000000         2.073520180643634E-005
   17.3850000000000         2.079108674763811E-005
   17.5750000000000         2.106493977614671E-005
   17.7650000000000         2.108611582948876E-005
   17.9550000000000         2.111006939468096E-005
   18.1450000000000         2.111591682105379E-005
   18.3350000000000         2.109773456915709E-005
   18.5250000000000         2.104746637619724E-005
   18.7150000000000         2.090928452024623E-005
   18.9050000000000         2.077907893341502E-005
   19.0950000000000         2.067451928966175E-005
   19.2850000000000         2.049264162497567E-005
   19.4750000000000         2.012253875294250E-005
   19.6650000000000         1.945799713070633E-005
   19.8550000000000         1.842726313737308E-005
   20.0450000000000         1.719622598103961E-005
   20.2350000000000         1.589929903934228E-005
   20.4250000000000         1.449770161536602E-005
   20.6150000000000         1.289303397547997E-005
   20.8050000000000         1.151430123751254E-005
   20.9950000000000         1.038569441306856E-005
   21.1850000000000         1.013964696221521E-005
   21.3750000000000         9.022267141056523E-006
   21.5650000000000         8.981488870778207E-006
   21.7550000000000         8.936198871918606E-006
   21.9450000000000         9.345038109026832E-006
   22.1350000000000         1.048573237335346E-005
   22.3250000000000         1.306798205517748E-005
   22.5150000000000         1.555812814666836E-005
   22.7050000000000         1.815369140651416E-005
   22.8950000000000         2.077462149896531E-005
   23.0850000000000         2.321293255283904E-005
   23.2750000000000         2.528053201724137E-005
   23.4650000000000         2.673115522050999E-005
   23.6550000000000         2.877773974074894E-005
   23.8450000000000         3.030268212191405E-005
   24.0350000000000         3.130288894869912E-005
   24.2250000000000         3.192169757998874E-005
   24.4150000000000         3.203499519809901E-005
   24.6050000000000         3.134670204568617E-005
   24.7950000000000         3.094076283501058E-005
   24.9850000000000         2.928912078919292E-005
   25.1750000000000         2.840057059578598E-005
   25.3650000000000         2.611437935635077E-005
   25.5550000000000         2.490873236177820E-005
   25.7450000000000         2.181543875329306E-005
   25.9350000000000         2.004598173345256E-005
   26.1250000000000         1.861564900643897E-005
   26.3150000000000         1.740618676281483E-005
   26.5050000000000         1.633678161135570E-005
   26.6950000000000         1.578730151182769E-005
   26.8850000000000         1.552676374474947E-005
   27.0750000000000         1.566702409288216E-005
   27.2650000000000         1.626606543347810E-005
   27.4550000000000         1.682419269013788E-005
   27.6450000000000         1.725818279900649E-005
   27.8350000000000         1.744487278958467E-005
   28.0250000000000         1.721965434426406E-005
   28.2150000000000         1.686509269135513E-005
   28.4050000000000         1.556235449383990E-005
   28.5950000000000         1.242931581421073E-005
   28.7850000000000         9.387827493311086E-006
   28.9750000000000         6.053794616177922E-006
   29.1650000000000         1.968116982626994E-006
   29.3550000000000        -1.996649179587982E-006
   29.5450000000000        -6.126492700166543E-006
   29.7350000000000        -1.016813198070108E-005
   29.9250000000000        -1.383238816960639E-005
   30.1150000000000        -1.684190150381315E-005
   30.3050000000000        -1.885540572674348E-005
   30.4950000000000        -1.940221518755858E-005
   30.6850000000000        -1.921891555565653E-005
   30.8750000000000        -1.794328834235748E-005
   31.0650000000000        -1.473900774885077E-005
   31.2550000000000        -1.100867987967263E-005
   31.4450000000000        -6.451547631949791E-006
   31.6350000000000        -1.244341706452271E-006
   31.8250000000000         3.896125138679836E-006
   32.0150000000000         9.144098181295726E-006
   32.2050000000000         1.363862496022679E-005
   32.3950000000000         1.735557466577180E-005
   32.5850000000000         2.025461795905541E-005
   32.7750000000000         2.141363106442720E-005
   32.9650000000000         2.258875418550330E-005
   33.1550000000000         2.301244412501753E-005
   33.3450000000000         2.349587557248180E-005
   33.5350000000000         2.340819685463625E-005
   33.7250000000000         2.229409934398351E-005
   33.9150000000000         2.003879670330540E-005
   34.1050000000000         1.732986924564822E-005
   34.2950000000000         1.499676131436935E-005
   34.4850000000000         1.356621673008985E-005
   34.6750000000000         1.197960712144544E-005
   34.8650000000000         1.092668744844564E-005
   35.0550000000000         1.050457659103284E-005
   35.2450000000000         1.096767443484213E-005
   35.4350000000000         1.202915808054969E-005
   35.6250000000000         1.319280958879060E-005
   35.8150000000000         1.444618767093683E-005
   36.0050000000000         1.528798079590763E-005
   36.1950000000000         1.610249767133324E-005
   36.3850000000000         1.640565916739673E-005
   36.5750000000000         1.646364604309230E-005
   36.7650000000000         1.656662682751084E-005
   36.9550000000000         1.635356512633098E-005
   37.1450000000000         1.582061376081369E-005
   37.3350000000000         1.522342871317601E-005
   37.5250000000000         1.459809532271082E-005
   37.7150000000000         1.397107662840373E-005
   37.9050000000000         1.349967799244829E-005
   38.0950000000000         1.336159676561001E-005
   38.2850000000000         1.402030862740675E-005
   38.4750000000000         1.676951012244366E-005
   38.6650000000000         2.004835754467494E-005
   38.8550000000000         2.359344133528000E-005
   39.0450000000000         2.760250973726190E-005
   39.2350000000000         3.174684923869782E-005
   39.4250000000000         3.581667391640276E-005
   39.6150000000000         3.908817851120110E-005
   39.8050000000000         4.191307092306152E-005
   39.9950000000000         4.290253397710128E-005
   40.1850000000000         4.410980153580650E-005
   40.3750000000000         4.438552197482301E-005
   40.5650000000000         4.454241093470150E-005
   40.7550000000000         4.423804503326337E-005
   40.9450000000000         4.255743670712248E-005
   41.1350000000000         3.937180219341699E-005
   41.3250000000000         3.516794718850440E-005
   41.5150000000000         3.144589682818280E-005
   41.7050000000000         2.765218053252202E-005
   41.8950000000000         2.356380818781926E-005
   42.0850000000000         1.958718655953939E-005
   42.2750000000000         1.577034199138956E-005
   42.4650000000000         1.215874938764489E-005
   42.6550000000000         9.118804420311324E-006
   42.8450000000000         6.147325406447706E-006
   43.0350000000000         4.050557553743395E-006
   43.2250000000000         2.757702014986935E-006
   43.4150000000000         3.557823721069050E-007
   43.6050000000000        -3.442128442139824E-008
   43.7950000000000        -7.278972160802780E-007
   43.9850000000000        -1.312595142160731E-006
   44.1750000000000        -1.774125460609578E-006
   44.3650000000000        -1.473678724443784E-006
   44.5550000000000         6.787528605829966E-007
   44.7450000000000         5.069522778345575E-006
   44.9350000000000         9.073679512543611E-006
   45.1250000000000         1.376948981091153E-005
   45.3150000000000         1.807766140531735E-005
   45.5050000000000         2.206587480773515E-005
   45.6950000000000         2.519054624570997E-005
   45.8850000000000         2.759738231666283E-005
   46.0750000000000         2.820752081320100E-005
   46.2650000000000         2.902546627364627E-005
   46.4550000000000         2.930329687914416E-005
   46.6450000000000         2.883338104028855E-005
   46.8350000000000         2.607407664524591E-005
   47.0250000000000         2.276088947068845E-005
   47.2150000000000         1.898794381560504E-005
   47.4050000000000         1.528390449640490E-005
   47.5950000000000         1.159774268218713E-005
   47.7850000000000         8.080383834616085E-006
   47.9750000000000         4.715789399224051E-006
   48.1650000000000         1.629358326377396E-006
   48.3550000000000        -8.182318933234804E-007
   48.5450000000000        -1.838838350756757E-006
   48.7350000000000        -3.137144482394435E-006
   48.9250000000000        -3.825872592600094E-006
   49.1150000000000        -4.086292975594906E-006
   49.3050000000000        -3.230589075008054E-006
   49.4950000000000         1.693067091141654E-008
   49.6850000000000         3.550076682340496E-006
   49.8750000000000         7.277729897993958E-006
   50.0650000000000         1.118418025145780E-005
   50.2550000000000         1.508892405857765E-005
   50.4450000000000         1.858899380258112E-005
   50.6350000000000         1.919269958449768E-005
   50.8250000000000         2.263799523565834E-005
   51.0150000000000         2.269236350131935E-005
   51.2050000000000         2.312708910920954E-005
   51.3950000000000         2.356927874200709E-005
   51.5850000000000         2.176114174485160E-005
   51.7750000000000         1.860937285544335E-005
   51.9650000000000         1.584604884732092E-005
   52.1550000000000         1.303280695472366E-005
   52.3450000000000         1.076823697990104E-005
   52.5350000000000         8.892763926173603E-006
   52.7250000000000         7.768425431503452E-006
   52.9150000000000         7.915466740456076E-006
   53.1050000000000         8.129206228870781E-006
   53.2950000000000         8.721369267994980E-006
   53.4850000000000         1.031417368095557E-005
   53.6750000000000         1.314369795379711E-005
   53.8650000000000         1.558530026713958E-005
   54.0550000000000         1.830288996833924E-005
   54.2450000000000         2.115323956409905E-005
   54.4350000000000         2.400764761549684E-005
   54.6250000000000         2.666603961865938E-005
   54.8150000000000         2.898335395391672E-005
   55.0050000000000         3.068562033239864E-005
   55.1950000000000         3.138953689156785E-005
   55.3850000000000         3.244936036588551E-005
   55.5750000000000         3.267308573059160E-005
   55.7650000000000         3.251248056748838E-005
   55.9550000000000         3.158336803018154E-005
   56.1450000000000         2.891168138385268E-005
   56.3350000000000         2.536401657939913E-005
   56.5250000000000         2.206887026005549E-005
   56.7150000000000         1.864273275794490E-005
   56.9050000000000         1.528599430724040E-005
   57.0950000000000         1.241192167159402E-005
   57.2850000000000         1.079933371796734E-005
   57.4750000000000         8.637222605682641E-006
   57.6650000000000         6.964234959996810E-006
   57.8550000000000         6.038726781600754E-006
   58.0450000000000         5.617535119517630E-006
   58.2350000000000         5.340471872482421E-006
   58.4250000000000         5.364790669883123E-006
   58.6150000000000         5.685074060992908E-006
   58.8050000000000         6.082959344323655E-006
   58.9950000000000         6.629007857463416E-006
   59.1850000000000         7.074081808704117E-006
   59.3750000000000         7.405349392736071E-006
   59.5650000000000         7.663275937833476E-006
   59.7550000000000         7.957907628229385E-006
   59.9450000000000         8.234273080681534E-006
   60.1350000000000         8.455133656335754E-006
   60.3250000000000         8.362007535840489E-006
   60.5150000000000         7.836570299756674E-006
   60.7050000000000         7.121203508402364E-006
   60.8950000000000         5.988608233337651E-006
   61.0850000000000         5.164264759235642E-006
   61.2750000000000         4.325653688912370E-006
   61.4650000000000         3.564654672980165E-006
   61.6550000000000         2.919674139533582E-006
   61.8450000000000         2.336689830014017E-006
   62.0350000000000         2.017018060319309E-006
   62.2250000000000         1.926189683180906E-006
   62.4150000000000         1.687178036984501E-006
   62.6050000000000         1.584467395262543E-006
   62.7950000000000         1.487394298691405E-006
   62.9850000000000         1.536393825325596E-006
   63.1750000000000         1.745287682868069E-006
   63.3650000000000         2.171541268753357E-006
   63.5550000000000         2.984772181240645E-006
   63.7450000000000         4.102249088117447E-006
   63.9350000000000         5.127401322927939E-006
   64.1250000000000         6.140574606813427E-006
   64.3150000000000         7.034657152957286E-006
   64.5050000000000         7.838361193619710E-006
   64.6950000000000         9.070918623375606E-006
   64.8850000000000         9.240000921441110E-006
   65.0750000000000         9.993964800294351E-006
   65.2650000000000         1.053805003590974E-005
   65.4550000000000         1.088790168062411E-005
   65.6450000000000         1.118559927856627E-005
   65.8350000000000         1.141254475743077E-005
   66.0250000000000         1.150661839640928E-005
   66.2150000000000         1.153355003222242E-005
   66.4050000000000         1.148178461949881E-005
   66.5950000000000         1.147481361761194E-005
   66.7850000000000         1.131311481466802E-005
   66.9750000000000         1.115335675818164E-005
   67.1650000000000         1.100538421695913E-005
   67.3550000000000         1.082629661525044E-005
   67.5450000000000         1.061701754878719E-005
   67.7350000000000         1.039014395690161E-005
   67.9250000000000         1.019401884824665E-005
   68.1150000000000         1.017292806302853E-005
   68.3050000000000         1.046170239597520E-005
   68.4950000000000         1.111854555470468E-005
   68.6850000000000         1.204702774821482E-005
   68.8750000000000         1.317823462049685E-005
   69.0650000000000         1.441205154413834E-005
   69.2550000000000         1.573337011198757E-005
   69.4450000000000         1.699183476001947E-005
   69.6350000000000         1.802188693175046E-005
   69.8250000000000         1.865618110789920E-005
   70.0150000000000         1.962161211517324E-005
   70.2050000000000         2.052482998168005E-005
   70.3950000000000         2.157460447297412E-005
   70.5850000000000         2.263584531700260E-005
   70.7750000000000         2.417701839297947E-005
   70.9650000000000         2.563304884467300E-005
   71.1550000000000         2.822352194953969E-005
   71.3450000000000         2.904130166074712E-005
   71.5350000000000         3.149399028052252E-005
   71.7250000000000         3.167311416512253E-005
   71.9150000000000         3.289572800107234E-005
   72.1050000000000         3.331947333963840E-005
   72.2950000000000         3.348498005525733E-005
   72.4850000000000         3.359296238412934E-005
   72.6750000000000         3.363763654975778E-005
   72.8650000000000         3.359771476667933E-005
   73.0550000000000         3.325802649578115E-005
   73.2450000000000         3.263866720001945E-005
   73.4350000000000         3.141520650845472E-005
   73.6250000000000         2.930879457492749E-005
   73.8150000000000         2.674950646904626E-005
   74.0050000000000         2.355128593419037E-005
   74.1950000000000         2.067416005857075E-005
   74.3850000000000         1.756328159132017E-005
   74.5750000000000         1.447816427422558E-005
   74.7650000000000         1.155233437098380E-005
   74.9550000000000         9.229409813400874E-006
   75.1450000000000         7.793138927834045E-006
   75.3350000000000         7.705246827272419E-006
   75.5250000000000         6.433715895592239E-006
   75.7150000000000         6.247977837656306E-006
   75.9050000000000         6.203600756870519E-006
   76.0950000000000         6.522620898241023E-006
   76.2850000000000         7.406709654144795E-006
   76.4750000000000         8.396834316517649E-006
   76.6650000000000         9.060238767587473E-006
   76.8550000000000         9.361028056166828E-006
   77.0450000000000         9.294153194449469E-006
   77.2350000000000         8.369748120473749E-006
   77.4250000000000         5.944061191773658E-006
   77.6150000000000         2.861053361786654E-006
   77.8050000000000         7.250678761889977E-008
   77.9950000000000        -2.779965196472838E-006
   78.1850000000000        -5.589007931061461E-006
   78.3750000000000        -8.113496729500438E-006
   78.5650000000000        -9.637809009035774E-006
   78.7550000000000        -1.112117100801815E-005
   78.9450000000000        -1.148854708695296E-005
   79.1350000000000        -1.225076095448019E-005
   79.3250000000000        -1.251797015362070E-005
   79.5150000000000        -1.269283075884978E-005
   79.7050000000000        -1.193725003396979E-005
   79.8950000000000        -9.436944745478955E-006
   80.0850000000000        -5.321192647891131E-006
   80.2750000000000        -1.319664874242263E-006
   80.4650000000000         2.940687156275289E-006
   80.6550000000000         7.644810020034375E-006
   80.8450000000000         1.242129076794065E-005
   81.0350000000000         1.719072213490860E-005
   81.2250000000000         2.158763239055300E-005
   81.4150000000000         2.568205023918175E-005
   81.6050000000000         2.916530938685427E-005
   81.7950000000000         3.010622410965092E-005
   81.9850000000000         3.192246090102933E-005
   82.1750000000000         3.262111293453325E-005
   82.3650000000000         3.291601634439753E-005
   82.5550000000000         3.122907909575130E-005
   82.7450000000000         2.822457712871005E-005
   82.9350000000000         2.540168585179998E-005
   83.1250000000000         2.272108700161563E-005
   83.3150000000000         2.034333220371970E-005
   83.5050000000000         1.848693810600597E-005
   83.6950000000000         1.810901966256017E-005
   83.8850000000000         1.535131671234588E-005
   84.0750000000000         1.544639187234186E-005
   84.2650000000000         1.518856313966567E-005
   84.4550000000000         1.489693247238314E-005
   84.6450000000000         1.467013857057725E-005
   84.8350000000000         1.448598753896455E-005
   85.0250000000000         1.426896309705524E-005
   85.2150000000000         1.423142295024182E-005
   85.4050000000000         1.457093438664857E-005
   85.5950000000000         1.551841575427372E-005
   85.7850000000000         1.664115085668443E-005
   85.9750000000000         1.760318254012267E-005
   86.1650000000000         1.831836918033748E-005
   86.3550000000000         1.868588249055734E-005
   86.5450000000000         1.890091042853786E-005
   86.7350000000000         1.888322459460030E-005
   86.9250000000000         1.867494968682667E-005
   87.1150000000000         1.836279419390696E-005
   87.3050000000000         1.804194445609728E-005
   87.4950000000000         1.773178039333680E-005
   87.6850000000000         1.747626472003296E-005
   87.8750000000000         1.739867308689295E-005
   88.0650000000000         1.735044580257331E-005
   88.2550000000000         1.741536078006542E-005
   88.4450000000000         1.742336635357700E-005
   88.6350000000000         1.750234966994148E-005
   88.8250000000000         1.778166770722490E-005
   89.0150000000000         1.802433695162758E-005
   89.2050000000000         1.750781079948136E-005
   89.3950000000000         1.620360202528286E-005
   89.5850000000000         1.478401688662872E-005
   89.7750000000000         1.395750079644557E-005
   89.9650000000000         1.328406175209837E-005
   90.1550000000000         1.267774473012339E-005
   90.3450000000000         1.243649351056888E-005
   90.5350000000000         1.220156591526001E-005
   90.7250000000000         1.214326933171179E-005
   90.9150000000000         1.213944775397004E-005
   91.1050000000000         1.212969615437335E-005
   91.2950000000000         1.199153916127228E-005
   91.4850000000000         1.154526134730646E-005
   91.6750000000000         1.069639518083013E-005
   91.8650000000000         9.796584573054140E-006
   92.0550000000000         8.820960634410127E-006
   92.2450000000000         8.108261691628710E-006
   92.4350000000000         7.283320964083397E-006
   92.6250000000000         6.306792568485521E-006
   92.8150000000000         5.518557732713168E-006
   93.0050000000000         4.671222017617572E-006
   93.1950000000000         3.954528027424548E-006
   93.3850000000000         3.925493584379884E-006
   93.5750000000000         5.018601901583849E-006
   93.7650000000000         6.179178050432563E-006
   93.9550000000000         7.282893402034923E-006
   94.1450000000000         8.415553883955967E-006
   94.3350000000000         9.512851842521207E-006
   94.5250000000000         1.049402827649484E-005
   94.7150000000000         1.124526701608627E-005
   94.9050000000000         1.212677256924125E-005
   95.0950000000000         1.227668073829879E-005
   95.2850000000000         1.299872821846105E-005
   95.4750000000000         1.318484689004093E-005
   95.6650000000000         1.347887904224521E-005
   95.8550000000000         1.354883366017682E-005
   96.0450000000000         1.347453863420027E-005
   96.2350000000000         1.302188215099350E-005
   96.4250000000000         1.222288764324588E-005
   96.6150000000000         1.116847628937338E-005
   96.8050000000000         9.852149885911970E-006
   96.9950000000000         8.649677486451328E-006
   97.1850000000000         7.767592968760023E-006
   97.3750000000000         7.388951481120101E-006
   97.5650000000000         7.167738355642670E-006
   97.7550000000000         7.320542715972926E-006
   97.9450000000000         7.932945825045002E-006
   98.1350000000000         9.030578288531597E-006
   98.3250000000000         1.033025234510441E-005
   98.5150000000000         1.159490229834724E-005
   98.7050000000000         1.260448479447450E-005
   98.8950000000000         1.322757359951169E-005
   99.0850000000000         1.340117399234610E-005
   99.2750000000000         1.283342126563920E-005
   99.4650000000000         1.081898868993547E-005
   99.6550000000000         8.672500890103990E-006
   99.8450000000000         5.914882911168398E-006
   100.035000000000         2.720377283550079E-006
   100.225000000000        -8.807011180619113E-007
   100.415000000000        -4.639537123117473E-006
   100.605000000000        -8.395347044327448E-006
   100.795000000000        -1.179412702095803E-005
   100.985000000000        -1.452679911166979E-005
   101.175000000000        -1.444102400471813E-005
   101.365000000000        -1.613405986613461E-005
   101.555000000000        -1.648173382946847E-005
   101.745000000000        -1.673280698342919E-005
   101.935000000000        -1.475675374992228E-005
   102.125000000000        -1.005387173797669E-005
   102.315000000000        -5.358814072046621E-006
   102.505000000000        -1.079167335296108E-007
   102.695000000000         5.003140658268995E-006
   102.885000000000         1.000801580990001E-005
   103.075000000000         1.457945096195656E-005
   103.265000000000         1.816262669924057E-005
   103.455000000000         2.099474413473325E-005
   103.645000000000         2.317188813300366E-005
   103.835000000000         2.366653252439563E-005
   104.025000000000         2.432524685822457E-005
   104.215000000000         2.468139696824834E-005
   104.405000000000         2.470886555019093E-005
   104.595000000000         2.454586974498281E-005
   104.785000000000         2.394666198795397E-005
   104.975000000000         2.282461119905267E-005
   105.165000000000         2.152364161354033E-005
   105.355000000000         2.032832349627012E-005
   105.545000000000         1.916874606595258E-005
   105.735000000000         1.802236585705740E-005
   105.925000000000         1.702105870152226E-005
   106.115000000000         1.618980351625164E-005
   106.305000000000         1.510105336133170E-005
   106.495000000000         1.460295454847983E-005
   106.685000000000         1.362700125289745E-005
   106.875000000000         1.327228846592675E-005
   107.065000000000         1.263326381759577E-005
   107.255000000000         1.197253010557554E-005
   107.445000000000         1.143108188106652E-005
   107.635000000000         1.095658472101503E-005
   107.825000000000         1.058480924323777E-005
   108.015000000000         1.031463308823967E-005
   108.205000000000         1.008771820197979E-005
   108.395000000000         9.841810917302318E-006
   108.585000000000         9.462737618602933E-006
   108.775000000000         9.031643935597541E-006
   108.965000000000         8.540952449213136E-006
   109.155000000000         8.342548738815298E-006
   109.345000000000         8.015382538299926E-006
   109.535000000000         7.893894590450043E-006
   109.725000000000         7.786542678922661E-006
   109.915000000000         7.697930571643044E-006
   110.105000000000         7.666962111605357E-006