  -1.42500000000000         0.000000000000000E+000
  -1.23500000000000        -1.861153677015382E-020
  -1.04500000000000        -5.384676798403992E-018
 -0.855000000000000        -4.293662153887541E-017
 -0.665000000000000        -2.346109734936276E-016
 -0.475000000000000        -9.593928644690166E-016
 -0.285000000000000        -3.810278275410621E-015
 -9.499999999999975E-002   -1.140251385417117E-014
  9.500000000000020E-002   -2.894652346328266E-014
  0.285000000000000        -7.207258979729636E-014
  0.475000000000000        -1.503499057119675E-013
  0.665000000000000        -2.970946752174515E-013
  0.855000000000000        -5.306666615849675E-013
   1.04500000000000        -8.852665871955507E-013
   1.23500000000000        -1.392880017007061E-012
   1.42500000000000        -2.063039390393904E-012
   1.61500000000000        -2.935573852328527E-012
   1.80500000000000        -4.022270122022506E-012
   1.99500000000000        -5.326340587228769E-012
   2.18500000000000        -6.838575006259561E-012
   2.37500000000000        -8.548153680108398E-012
   2.56500000000000        -1.044234416341069E-011
   2.75500000000000        -1.250862260119174E-011
   2.94500000000000        -1.473256189784709E-011
   3.13500000000000        -1.710181962765271E-011
   3.32500000000000        -1.960560641302964E-011
   3.51500000000000        -2.223592629537423E-011
   3.70500000000000        -2.498083314098713E-011
   3.89500000000000        -2.783144953638643E-011
   4.08500000000000        -3.078214758956027E-011
   4.27500000000000        -3.382672426755273E-011
   4.46500000000000        -3.695964515774274E-011
   4.65500000000000        -4.017619360518062E-011
   4.84500000000000        -4.347979405111210E-011
   5.03500000000000        -4.688026498634561E-011
   5.22500000000000        -5.038617403032396E-011
   5.41500000000000        -5.400225151859469E-011
   5.60500000000000        -5.772551508130418E-011
   5.79500000000000        -6.155114192338809E-011
   5.98500000000000        -6.546144788549778E-011
   6.17500000000000        -6.943718020551900E-011
   6.36500000000000        -7.346598350736587E-011
   6.55500000000000        -7.754516086513823E-011
   6.74500000000000        -8.167876336768225E-011
   6.93500000000000        -8.587869500914090E-011
   7.12500000000000        -9.016846007893752E-011
   7.31500000000000        -9.457038333753047E-011
   7.50500000000000        -9.910170980243373E-011
   7.69500000000000        -1.037870382021294E-010
   7.88500000000000        -1.086556243257017E-010
   8.07500000000000        -1.137450484123057E-010
   8.26500000000000        -1.190809047028649E-010
   8.45500000000000        -1.246836442152463E-010
   8.64500000000000        -1.305607123550633E-010
   8.83500000000000        -1.367106684884275E-010
   9.02500000000000        -1.431230780409997E-010
   9.21500000000000        -1.497527018648624E-010
   9.40500000000000        -1.565900223916266E-010
   9.59500000000000        -1.635718278477784E-010
   9.78500000000000        -1.706563479131043E-010
   9.97500000000000        -1.778272704491778E-010
   10.1650000000000        -1.850520068812289E-010
   10.3550000000000        -1.922697875475421E-010
   10.5450000000000        -1.994759446345772E-010
   10.7350000000000        -2.066608253920757E-010
   10.9250000000000        -2.138205461157836E-010
   11.1150000000000        -2.209568980648659E-010
   11.3050000000000        -2.280700297407778E-010
   11.4950000000000        -2.351647415026508E-010
   11.6850000000000        -2.422568241723268E-010
   11.8750000000000        -2.493661282958849E-010
   12.0650000000000        -2.565108031781266E-010
   12.2550000000000        -2.637079681465568E-010
   12.4450000000000        -2.709709403416723E-010
   12.6350000000000        -2.783135644016943E-010
   12.8250000000000        -2.857395628497942E-010
   13.0150000000000        -2.932486929820268E-010
   13.2050000000000        -3.008384452938107E-010
   13.3950000000000        -3.085021317689890E-010
   13.5850000000000        -3.162206878009344E-010
   13.7750000000000        -3.239798635881822E-010
   13.9650000000000        -3.317694142496914E-010
   14.1550000000000        -3.395832142910524E-010
   14.3450000000000        -3.474219797885424E-010
   14.5350000000000        -3.552800132916524E-010
   14.7250000000000        -3.631599401496201E-010
   14.9150000000000        -3.710712598304652E-010
   15.1050000000000        -3.790383374911857E-010
   15.2950000000000        -3.870879739127746E-010
   15.4850000000000        -3.952422418705699E-010
   15.6750000000000        -4.035152386435222E-010
   15.8650000000000        -4.119150502276544E-010
   16.0550000000000        -4.204508261769976E-010
   16.2450000000000        -4.291332907126263E-010
   16.4350000000000        -4.379653749705737E-010
   16.6250000000000        -4.469465004672392E-010
   16.8150000000000        -4.560793933652578E-010
   17.0050000000000        -4.653645328182830E-010
   17.1950000000000        -4.748054001141018E-010
   17.3850000000000        -4.844063595879059E-010
   17.5750000000000        -4.941664636373787E-010
   17.7650000000000        -5.040858644117933E-010
   17.9550000000000        -5.141631119122048E-010
   18.1450000000000        -5.243973920610908E-010
   18.3350000000000        -5.347881030326980E-010
   18.5250000000000        -5.453343029335790E-010
   18.7150000000000        -5.560348389336486E-010
   18.9050000000000        -5.668876254217230E-010
   19.0950000000000        -5.778961022812134E-010
   19.2850000000000        -5.890663755072254E-010
   19.4750000000000        -6.004015008985919E-010
   19.6650000000000        -6.119080824210394E-010
   19.8550000000000        -6.235757914979173E-010
   20.0450000000000        -6.353975973757922E-010
   20.2350000000000        -6.473633822494708E-010
   20.4250000000000        -6.594622905153321E-010
   20.6150000000000        -6.716823951659258E-010
   20.8050000000000        -6.840072979616318E-010
   20.9950000000000        -6.964300451550959E-010
   21.1850000000000        -7.089444860981964E-010
   21.3750000000000        -7.215531808056707E-010
   21.5650000000000        -7.342485330748743E-010
   21.7550000000000        -7.470333964911655E-010
   21.9450000000000        -7.599121343403888E-010
   22.1350000000000        -7.729004539559501E-010
   22.3250000000000        -7.860238562271948E-010
   22.5150000000000        -7.993244061821530E-010
   22.7050000000000        -8.128266896459241E-010
   22.8950000000000        -8.265519805468855E-010
   23.0850000000000        -8.405279283407295E-010
   23.2750000000000        -8.547864807487870E-010
   23.4650000000000        -8.693520653859590E-010
   23.6550000000000        -8.842330367210124E-010
   23.8450000000000        -8.994377849861762E-010
   24.0350000000000        -9.149678867120146E-010
   24.2250000000000        -9.308191945754331E-010
   24.4150000000000        -9.469795353071413E-010
   24.6050000000000        -9.634325145499883E-010
   24.7950000000000        -9.801458781358145E-010
   24.9850000000000        -9.971146121054877E-010
   25.1750000000000        -1.014299456523363E-009
   25.3650000000000        -1.031691499241106E-009
   25.5550000000000        -1.049249013919291E-009
   25.7450000000000        -1.066963553430242E-009
   25.9350000000000        -1.084782315967040E-009
   26.1250000000000        -1.102696213865653E-009
   26.3150000000000        -1.120699354242763E-009
   26.5050000000000        -1.138778822645783E-009
   26.6950000000000        -1.156928453457627E-009
   26.8850000000000        -1.175151427467773E-009
   27.0750000000000        -1.193456916178783E-009
   27.2650000000000        -1.211865236133534E-009
   27.4550000000000        -1.230397041150459E-009
   27.6450000000000        -1.249064933435182E-009
   27.8350000000000        -1.267878324035298E-009
   28.0250000000000        -1.286839799641425E-009
   28.2150000000000        -1.305948527111427E-009
   28.4050000000000        -1.325199929525849E-009
   28.5950000000000        -1.344572461235455E-009
   28.7850000000000        -1.364028555239687E-009
   28.9750000000000        -1.383559123305666E-009
   29.1650000000000        -1.403131721344660E-009
   29.3550000000000        -1.422691788782123E-009
   29.5450000000000        -1.442230810758901E-009
   29.7350000000000        -1.461671068394251E-009
   29.9250000000000        -1.480966519480192E-009
   30.1150000000000        -1.500077918750790E-009
   30.3050000000000        -1.518990416196092E-009
   30.4950000000000        -1.537651147865810E-009
   30.6850000000000        -1.556053757489221E-009
   30.8750000000000        -1.574206078039662E-009
   31.0650000000000        -1.592134612593866E-009
   31.2550000000000        -1.609865280676030E-009
   31.4450000000000        -1.627407951143083E-009
   31.6350000000000        -1.644832894321036E-009
   31.8250000000000        -1.662197396107083E-009
   32.0150000000000        -1.679544634073110E-009
   32.2050000000000        -1.696892062989639E-009
   32.3950000000000        -1.714329683813917E-009
   32.5850000000000        -1.731863819600774E-009
   32.7750000000000        -1.749553887315372E-009
   32.9650000000000        -1.767419335901666E-009
   33.1550000000000        -1.785460192769634E-009
   33.3450000000000        -1.803677919043575E-009
   33.5350000000000        -1.822071154940962E-009
   33.7250000000000        -1.840621925489036E-009
   33.9150000000000        -1.859298147975304E-009
   34.1050000000000        -1.878054622205604E-009
   34.2950000000000        -1.896853010720041E-009
   34.4850000000000        -1.915673575529745E-009
   34.6750000000000        -1.934510714997499E-009
   34.8650000000000        -1.953358007113191E-009
   35.0550000000000        -1.972216060450891E-009
   35.2450000000000        -1.991104359584897E-009
   35.4350000000000        -2.010053927588406E-009
   35.6250000000000        -2.029100329746610E-009
   35.8150000000000        -2.048269713021953E-009
   36.0050000000000        -2.067585747855483E-009
   36.1950000000000        -2.087058879095974E-009
   36.3850000000000        -2.106700461969656E-009
   36.5750000000000        -2.126514029767283E-009
   36.7650000000000        -2.146502233354347E-009
   36.9550000000000        -2.166668868040024E-009
   37.1450000000000        -2.187011238131831E-009
   37.3350000000000        -2.207523981812600E-009
   37.5250000000000        -2.228199922429364E-009
   37.7150000000000        -2.249030077097644E-009
   37.9050000000000        -2.270004876434471E-009
   38.0950000000000        -2.291117539767670E-009
   38.2850000000000        -2.312365874924747E-009
   38.4750000000000        -2.333763490019534E-009
   38.6650000000000        -2.355321994094334E-009
   38.8550000000000        -2.377069325793744E-009
   39.0450000000000        -2.399028809284152E-009
   39.2350000000000        -2.421240888848498E-009
   39.4250000000000        -2.443746915933793E-009
   39.6150000000000        -2.466605185864074E-009
   39.8050000000000        -2.489871098907848E-009
   39.9950000000000        -2.513554061857147E-009
   40.1850000000000        -2.537698322165183E-009
   40.3750000000000        -2.562308972805126E-009
   40.5650000000000        -2.587387344081414E-009
   40.7550000000000        -2.612929251193322E-009
   40.9450000000000        -2.638919472762885E-009
   41.1350000000000        -2.665318198135601E-009
   41.3250000000000        -2.692070769342243E-009
   41.5150000000000        -2.719143534050969E-009
   41.7050000000000        -2.746513546226001E-009
   41.8950000000000        -2.774131998533685E-009
   42.0850000000000        -2.801963615870582E-009
   42.2750000000000        -2.829953829809091E-009
   42.4650000000000        -2.858054011002869E-009
   42.6550000000000        -2.886213916644480E-009
   42.8450000000000        -2.914383953628767E-009
   43.0350000000000        -2.942527226547694E-009
   43.2250000000000        -2.970614472081314E-009
   43.4150000000000        -2.998645570380968E-009
   43.6050000000000        -3.026591004917218E-009
   43.7950000000000        -3.054458055618329E-009
   43.9850000000000        -3.082237791013626E-009
   44.1750000000000        -3.109926859852098E-009
   44.3650000000000        -3.137530120033223E-009
   44.5550000000000        -3.165071669628105E-009
   44.7450000000000        -3.192607712025641E-009
   44.9350000000000        -3.220188047186464E-009
   45.1250000000000        -3.247841131646124E-009
   45.3150000000000        -3.275621559949566E-009
   45.5050000000000        -3.303561300130435E-009
   45.6950000000000        -3.331698188583159E-009
   45.8850000000000        -3.360080607717492E-009
   46.0750000000000        -3.388703783378459E-009
   46.2650000000000        -3.417597533564516E-009
   46.4550000000000        -3.446760365347600E-009
   46.6450000000000        -3.476190755679124E-009
   46.8350000000000        -3.505861894041988E-009
   47.0250000000000        -3.535717768124534E-009
   47.2150000000000        -3.565750820175961E-009
   47.4050000000000        -3.595894172964101E-009
   47.5950000000000        -3.626107654816380E-009
   47.7850000000000        -3.656352092519759E-009
   47.9750000000000        -3.686603358199597E-009
   48.1650000000000        -3.716845641440996E-009
   48.3550000000000        -3.747037159673361E-009
   48.5450000000000        -3.777140872312307E-009
   48.7350000000000        -3.807146620631175E-009
   48.9250000000000        -3.837053543732264E-009
   49.1150000000000        -3.866858456545032E-009
   49.3050000000000        -3.896563578678661E-009
   49.4950000000000        -3.926211005292837E-009
   49.6850000000000        -3.955867473558104E-009
   49.8750000000000        -3.985556931100387E-009
   50.0650000000000        -4.015325953839058E-009
   50.2550000000000        -4.045227037572273E-009
   50.4450000000000        -4.075315143882008E-009
   50.6350000000000        -4.105652776804898E-009
   50.8250000000000        -4.136272758309961E-009
   51.0150000000000        -4.167220622460132E-009
   51.2050000000000        -4.198473682836052E-009
   51.3950000000000        -4.230032159778340E-009
   51.5850000000000        -4.261872845429697E-009
   51.7750000000000        -4.293928070744960E-009
   51.9650000000000        -4.326173908254628E-009
   52.1550000000000        -4.358556295678274E-009
   52.3450000000000        -4.391024691865044E-009
   52.5350000000000        -4.423561139198864E-009
   52.7250000000000        -4.456140724037102E-009
   52.9150000000000        -4.488726355222934E-009
   53.1050000000000        -4.521311587752580E-009
   53.2950000000000        -4.553896514984148E-009
   53.4850000000000        -4.586485878332231E-009
   53.6750000000000        -4.619099833081115E-009
   53.8650000000000        -4.651739452470501E-009
   54.0550000000000        -4.684429036407328E-009
   54.2450000000000        -4.717201184555471E-009
   54.4350000000000        -4.750095057236255E-009
   54.6250000000000        -4.783150552211173E-009
   54.8150000000000        -4.816417137539576E-009
   55.0050000000000        -4.849935503118182E-009
   55.1950000000000        -4.883741505743376E-009
   55.3850000000000        -4.917833639424749E-009
   55.5750000000000        -4.952218187516906E-009
   55.7650000000000        -4.986885858554627E-009
   55.9550000000000        -5.021831401847404E-009
   56.1450000000000        -5.057036117493531E-009
   56.3350000000000        -5.092462400222925E-009
   56.5250000000000        -5.128112326662901E-009
   56.7150000000000        -5.163963295190008E-009
   56.9050000000000        -5.199986957221247E-009
   57.0950000000000        -5.236150909998514E-009
   57.2850000000000        -5.272417914827681E-009
   57.4750000000000        -5.308759045608725E-009
   57.6650000000000        -5.345155544724672E-009
   57.8550000000000        -5.381599928523749E-009
   58.0450000000000        -5.418095508544895E-009
   58.2350000000000        -5.454641688434492E-009
   58.4250000000000        -5.491241669535449E-009
   58.6150000000000        -5.527908423445443E-009
   58.8050000000000        -5.564655495861717E-009
   58.9950000000000        -5.601497676220743E-009
   59.1850000000000        -5.638448589034928E-009
   59.3750000000000        -5.675516287368553E-009
   59.5650000000000        -5.712703125387762E-009
   59.7550000000000        -5.750010027066672E-009
   59.9450000000000        -5.787437800736013E-009
   60.1350000000000        -5.824985748788292E-009
   60.3250000000000        -5.862649969095585E-009
   60.5150000000000        -5.900416739046733E-009
   60.7050000000000        -5.938268105027915E-009
   60.8950000000000        -5.976184539038621E-009
   61.0850000000000        -6.014133664935754E-009
   61.2750000000000        -6.052100698673842E-009
   61.4650000000000        -6.090065232260967E-009
   61.6550000000000        -6.128009671623158E-009
   61.8450000000000        -6.165905585954546E-009
   62.0350000000000        -6.203734990401512E-009
   62.2250000000000        -6.241475630962786E-009
   62.4150000000000        -6.279133018124098E-009
   62.6050000000000        -6.316702013182046E-009
   62.7950000000000        -6.354183510307682E-009
   62.9850000000000        -6.391573808937397E-009
   63.1750000000000        -6.428874712862711E-009
   63.3650000000000        -6.466089315529925E-009
   63.5550000000000        -6.503224256467641E-009
   63.7450000000000        -6.540297012721640E-009
   63.9350000000000        -6.577326295033959E-009
   64.1250000000000        -6.614329289162801E-009
   64.3150000000000        -6.651325114232736E-009
   64.5050000000000        -6.688335365679791E-009
   64.6950000000000        -6.725379808626012E-009
   64.8850000000000        -6.762492430477759E-009
   65.0750000000000        -6.799671508043473E-009
   65.2650000000000        -6.836942369551404E-009
   65.4550000000000        -6.874317460492708E-009
   65.6450000000000        -6.911802567418247E-009
   65.8350000000000        -6.949402787471171E-009
   66.0250000000000        -6.987122236851853E-009
   66.2150000000000        -7.024960372071387E-009
   66.4050000000000        -7.062920260597178E-009
   66.5950000000000        -7.101004727340961E-009
   66.7850000000000        -7.139215308216200E-009
   66.9750000000000        -7.177553196756605E-009
   67.1650000000000        -7.216019974615582E-009
   67.3550000000000        -7.254618940219716E-009
   67.5450000000000        -7.293350118772353E-009
   67.7350000000000        -7.332210068319813E-009
   67.9250000000000        -7.371191594501275E-009
   68.1150000000000        -7.410286077031166E-009
   68.3050000000000        -7.449489089792913E-009
   68.4950000000000        -7.488798139528892E-009
   68.6850000000000        -7.528216595997858E-009
   68.8750000000000        -7.567753119744051E-009
   69.0650000000000        -7.607418138084864E-009
   69.2550000000000        -7.647222939241310E-009
   69.4450000000000        -7.687180031297799E-009
   69.6350000000000        -7.727300815448559E-009
   69.8250000000000        -7.767591783320465E-009
   70.0150000000000        -7.808051858633941E-009
   70.2050000000000        -7.848689939684668E-009
   70.3950000000000        -7.889516529258655E-009
   70.5850000000000        -7.930547037560470E-009
   70.7750000000000        -7.971792342072980E-009
   70.9650000000000        -8.013276661767571E-009
   71.1550000000000        -8.055019845669354E-009
   71.3450000000000        -8.097067326917843E-009
   71.5350000000000        -8.139418471320735E-009
   71.7250000000000        -8.182116606010158E-009
   71.9150000000000        -8.225145510692501E-009
   72.1050000000000        -8.268532048313643E-009
   72.2950000000000        -8.312282709318374E-009
   72.4850000000000        -8.356398651580158E-009
   72.6750000000000        -8.400881678419601E-009
   72.8650000000000        -8.445732480029594E-009
   73.0550000000000        -8.490944281608354E-009
   73.2450000000000        -8.536504782665797E-009
   73.4350000000000        -8.582398783206697E-009
   73.6250000000000        -8.628596732291518E-009
   73.8150000000000        -8.675058985258285E-009
   74.0050000000000        -8.721748363800339E-009
   74.1950000000000        -8.768632347911688E-009
   74.3850000000000        -8.815686533710110E-009
   74.5750000000000        -8.862892931120052E-009
   74.7650000000000        -8.910215985752161E-009
   74.9550000000000        -8.957621483977189E-009
   75.1450000000000        -9.005058238351014E-009
   75.3350000000000        -9.052499687071990E-009
   75.5250000000000        -9.099962493617521E-009
   75.7150000000000        -9.147428972982553E-009
   75.9050000000000        -9.194896893042659E-009
   76.0950000000000        -9.242370143182522E-009
   76.2850000000000        -9.289862865893841E-009
   76.4750000000000        -9.337398443613193E-009
   76.6650000000000        -9.384993485712691E-009
   76.8550000000000        -9.432655814178430E-009
   77.0450000000000        -9.480388451518846E-009
   77.2350000000000        -9.528189058109289E-009
   77.4250000000000        -9.576034590246874E-009
   77.6150000000000        -9.623881942571045E-009
   77.8050000000000        -9.671722998925757E-009
   77.9950000000000        -9.719535399403389E-009
   78.1850000000000        -9.767285289215726E-009
   78.3750000000000        -9.814937133552441E-009
   78.5650000000000        -9.862447299487826E-009
   78.7550000000000        -9.909781196645330E-009
   78.9450000000000        -9.956930601013055E-009
   79.1350000000000        -1.000390035104888E-008
   79.3250000000000        -1.005068081285581E-008
   79.5150000000000        -1.009727312892885E-008
   79.7050000000000        -1.014368492647847E-008
   79.8950000000000        -1.018994615634823E-008
   80.0850000000000        -1.023611739941076E-008
   80.2750000000000        -1.028224931139795E-008
   80.4650000000000        -1.032834997007888E-008
   80.6550000000000        -1.037448224612630E-008
   80.8450000000000        -1.042070704420754E-008
   81.0350000000000        -1.046707395952126E-008
   81.2250000000000        -1.051363147274106E-008
   81.4150000000000        -1.056040831458133E-008
   81.6050000000000        -1.060743652671405E-008
   81.7950000000000        -1.065476320434919E-008
   81.9850000000000        -1.070242664467510E-008
   82.1750000000000        -1.075043702519790E-008
   82.3650000000000        -1.079879827161011E-008
   82.5550000000000        -1.084749968554986E-008
   82.7450000000000        -1.089647938522942E-008
   82.9350000000000        -1.094569800192885E-008
   83.1250000000000        -1.099513458060942E-008
   83.3150000000000        -1.104474886631728E-008
   83.5050000000000        -1.109448908917456E-008
   83.6950000000000        -1.114431033382927E-008
   83.8850000000000        -1.119421405457586E-008
   84.0750000000000        -1.124415680917748E-008
   84.2650000000000        -1.129415897537578E-008
   84.4550000000000        -1.134421790045593E-008
   84.6450000000000        -1.139433195437127E-008
   84.8350000000000        -1.144450215992569E-008
   85.0250000000000        -1.149472915344967E-008
   85.2150000000000        -1.154501440341838E-008
   85.4050000000000        -1.159536597357826E-008
   85.5950000000000        -1.164580074926427E-008
   85.7850000000000        -1.169634785858427E-008
   85.9750000000000        -1.174703567395674E-008
   86.1650000000000        -1.179788651188413E-008
   86.3550000000000        -1.184892304522237E-008
   86.5450000000000        -1.190016660685009E-008
   86.7350000000000        -1.195163309352377E-008
   86.9250000000000        -1.200333439495731E-008
   87.1150000000000        -1.205527616418860E-008
   87.3050000000000        -1.210746021742812E-008
   87.4950000000000        -1.215988966706919E-008
   87.6850000000000        -1.221256649145843E-008
   87.8750000000000        -1.226548928046625E-008
   88.0650000000000        -1.231865763425012E-008
   88.2550000000000        -1.237207248920952E-008
   88.4450000000000        -1.242573818957126E-008
   88.6350000000000        -1.247965361970663E-008
   88.8250000000000        -1.253381901487853E-008
   89.0150000000000        -1.258823705632399E-008
   89.2050000000000        -1.264289990723193E-008
   89.3950000000000        -1.269777781917622E-008
   89.5850000000000        -1.275283564468969E-008
   89.7750000000000        -1.280805228721091E-008
   89.9650000000000        -1.286340365107134E-008
   90.1550000000000        -1.291887166636960E-008
   90.3450000000000        -1.297443965383075E-008
   90.5350000000000        -1.303009915518031E-008
   90.7250000000000        -1.308583613288512E-008
   90.9150000000000        -1.314164201987758E-008
   91.1050000000000        -1.319750354908934E-008
   91.2950000000000        -1.325341031743504E-008
   91.4850000000000        -1.330935028069812E-008
   91.6750000000000        -1.336530607953142E-008
   91.8650000000000        -1.342125483084834E-008
   92.0550000000000        -1.347718316420359E-008
   92.2450000000000        -1.353307695478636E-008
   92.4350000000000        -1.358893401997226E-008
   92.6250000000000        -1.364473975925782E-008
   92.8150000000000        -1.370047793986918E-008
   93.0050000000000        -1.375613614542373E-008
   93.1950000000000        -1.381170823087417E-008
   93.3850000000000        -1.386719849856085E-008
   93.5750000000000        -1.392263205705674E-008
   93.7650000000000        -1.397805707902082E-008
   93.9550000000000        -1.403348535623717E-008
   94.1450000000000        -1.408894427311203E-008
   94.3350000000000        -1.414446722023562E-008
   94.5250000000000        -1.420008142880085E-008
   94.7150000000000        -1.425582154666039E-008
   94.9050000000000        -1.431171352189174E-008
   95.0950000000000        -1.436777069752511E-008
   95.2850000000000        -1.442398728788483E-008
   95.4750000000000        -1.448037934437310E-008
   95.6650000000000        -1.453694415624073E-008
   95.8550000000000        -1.459369347879725E-008
   96.0450000000000        -1.465062814062312E-008
   96.2350000000000        -1.470774651052274E-008
   96.4250000000000        -1.476504139003099E-008
   96.6150000000000        -1.482250390468657E-008
   96.8050000000000        -1.488012041730586E-008
   96.9950000000000        -1.493787267405238E-008
   97.1850000000000        -1.499574544767907E-008
   97.3750000000000        -1.505372933807928E-008
   97.5650000000000        -1.511182288032376E-008
   97.7550000000000        -1.517002077180533E-008
   97.9450000000000        -1.522832564322824E-008
   98.1350000000000        -1.528674498709934E-008
   98.3250000000000        -1.534528980101331E-008
   98.5150000000000        -1.540397012032083E-008
   98.7050000000000        -1.546279008688095E-008
   98.8950000000000        -1.552174751437416E-008
   99.0850000000000        -1.558083401054305E-008
   99.2750000000000        -1.564003350226746E-008
   99.4650000000000        -1.569931575800570E-008
   99.6550000000000        -1.575864117766364E-008
   99.8450000000000        -1.581798477973652E-008
   100.035000000000        -1.587732240908141E-008
   100.225000000000        -1.593660965167881E-008
   100.415000000000        -1.599579483674156E-008
   100.605000000000        -1.605483091446942E-008
   100.795000000000        -1.611367193444002E-008
   100.985000000000        -1.617227610855761E-008
   101.175000000000        -1.623058860397826E-008
   101.365000000000        -1.628861982356560E-008
   101.555000000000        -1.634634334488801E-008
   101.745000000000        -1.640375614887980E-008
   101.935000000000        -1.646086718589679E-008
   102.125000000000        -1.651774295039449E-008
   102.315000000000        -1.657442622275734E-008
   102.505000000000        -1.663099931518461E-008
   102.695000000000        -1.668750729035097E-008
   102.885000000000        -1.674401087714301E-008
   103.075000000000        -1.680057663382427E-008
   103.265000000000        -1.685727668902697E-008
   103.455000000000        -1.691418238025538E-008
   103.645000000000        -1.697131310312136E-008
   103.835000000000        -1.702870991723152E-008
   104.025000000000        -1.708639337090098E-008
   104.215000000000        -1.714436482120464E-008
   104.405000000000        -1.720262926707936E-008
   104.595000000000        -1.726118552901249E-008
   104.785000000000        -1.732002864813685E-008
   104.975000000000        -1.737914385255042E-008
   105.165000000000        -1.743851074094928E-008
   105.355000000000        -1.749810406911578E-008
   105.545000000000        -1.755790505441168E-008
   105.735000000000        -1.761789549010933E-008
   105.925000000000        -1.767805816449772E-008
   106.115000000000        -1.773838389571415E-008
   106.305000000000        -1.779886092001080E-008
   106.495000000000        -1.785947286963430E-008
   106.685000000000        -1.792021445344097E-008
   106.875000000000        -1.798107274762039E-008
   107.065000000000        -1.804204371435267E-008
   107.255000000000        -1.810311982083950E-008
   107.445000000000        -1.816429294152905E-008
   107.635000000000        -1.822555696680830E-008
   107.825000000000        -1.828690776815989E-008
   108.015000000000        -1.834834455745925E-008
   108.205000000000        -1.840986947166800E-008
   108.395000000000        -1.847148686476830E-008
   108.585000000000        -1.853320073479680E-008
   108.775000000000        -1.859500946703581E-008
   108.965000000000        -1.865691092024500E-008
   109.155000000000        -1.871889946291646E-008
   109.345000000000        -1.878097141091331E-008
   109.535000000000        -1.884312087253866E-008
   109.725000000000        -1.890534265565729E-008
   109.915000000000        -1.896763171355668E-008
   110.105000000000        -1.902998387760605E-008