  -1.42500000000000        -4.897772834251007E-020
  -1.23500000000000        -1.417020210106314E-017
  -1.04500000000000        -1.129421315844876E-016
 -0.855000000000000        -6.032270965663779E-016
 -0.665000000000000        -2.411726955079319E-015
 -0.475000000000000        -9.409650794518407E-015
 -0.285000000000000        -2.748189734132145E-014
 -9.499999999999975E-002   -6.614801365229484E-014
  9.500000000000020E-002   -1.596580945871715E-013
  0.285000000000000        -3.194825848649602E-013
  0.475000000000000        -5.921633826846190E-013
  0.665000000000000        -1.000833568086842E-012
  0.855000000000000        -1.547820820994998E-012
   1.04500000000000        -2.268982514268667E-012
   1.23500000000000        -3.099402113679878E-012
   1.42500000000000        -4.059720619267013E-012
   1.61500000000000        -5.155870346391055E-012
   1.80500000000000        -6.291491407632216E-012
   1.99500000000000        -7.411328642729090E-012
   2.18500000000000        -8.478455507577971E-012
   2.37500000000000        -9.483603045134556E-012
   2.56500000000000        -1.042228663442985E-011
   2.75500000000000        -1.129004666956947E-011
   2.94500000000000        -1.208736059594993E-011
   3.13500000000000        -1.282380135574354E-011
   3.32500000000000        -1.351080702031979E-011
   3.51500000000000        -1.414533349462499E-011
   3.70500000000000        -1.472506116055841E-011
   3.89500000000000        -1.526661696992931E-011
   4.08500000000000        -1.577703876622712E-011
   4.27500000000000        -1.625657254784862E-011
   4.46500000000000        -1.670912983586289E-011
   4.65500000000000        -1.715828656149829E-011
   4.84500000000000        -1.764229310832893E-011
   5.03500000000000        -1.817468415582068E-011
   5.22500000000000        -1.874206982170809E-011
   5.41500000000000        -1.931405539731639E-011
   5.60500000000000        -1.986550106524581E-011
   5.79500000000000        -2.035771790577263E-011
   5.98500000000000        -2.075273232139711E-011
   6.17500000000000        -2.106456742596866E-011
   6.36500000000000        -2.133679120952427E-011
   6.55500000000000        -2.161257857977997E-011
   6.74500000000000        -2.193035301053338E-011
   6.93500000000000        -2.234130713488228E-011
   7.12500000000000        -2.287286402207776E-011
   7.31500000000000        -2.350855190393738E-011
   7.50500000000000        -2.425435490683943E-011
   7.69500000000000        -2.514188032438934E-011
   7.88500000000000        -2.620529002677966E-011
   8.07500000000000        -2.743494836095591E-011
   8.26500000000000        -2.878577842879099E-011
   8.45500000000000        -3.021002013736409E-011
   8.64500000000000        -3.165006387679249E-011
   8.83500000000000        -3.305885706825386E-011
   9.02500000000000        -3.432114046430254E-011
   9.21500000000000        -3.543932723849179E-011
   9.40500000000000        -3.636612100767362E-011
   9.59500000000000        -3.701664610915188E-011
   9.78500000000000        -3.751432263526159E-011
   9.97500000000000        -3.788331307401205E-011
   10.1650000000000        -3.800662394306411E-011
   10.3550000000000        -3.795773092986414E-011
   10.5450000000000        -3.787115222245684E-011
   10.7350000000000        -3.774895126633257E-011
   10.9250000000000        -3.762124387576361E-011
   11.1150000000000        -3.749864111840567E-011
   11.3050000000000        -3.738906167838143E-011
   11.4950000000000        -3.733366955670806E-011
   11.6850000000000        -3.737207050851061E-011
   11.8750000000000        -3.751047106789383E-011
   12.0650000000000        -3.774168381755757E-011
   12.2550000000000        -3.805299253564673E-011
   12.4450000000000        -3.843577961878289E-011
   12.6350000000000        -3.886479607400495E-011
   12.8250000000000        -3.930296994824346E-011
   13.0150000000000        -3.973390116846460E-011
   13.2050000000000        -4.014062838674258E-011
   13.3950000000000        -4.047958554506243E-011
   13.5850000000000        -4.073087320840330E-011
   13.7750000000000        -4.091770118093938E-011
   13.9650000000000        -4.106144921807949E-011
   14.1550000000000        -4.119096194434490E-011
   14.3450000000000        -4.130736579105256E-011
   14.5350000000000        -4.141568516073075E-011
   14.7250000000000        -4.155591194424433E-011
   14.9150000000000        -4.178525616201490E-011
   15.1050000000000        -4.214924758502471E-011
   15.2950000000000        -4.264185362995805E-011
   15.4850000000000        -4.322964402828311E-011
   15.6750000000000        -4.387581146601203E-011
   15.8650000000000        -4.456733561440927E-011
   16.0550000000000        -4.531115917097885E-011
   16.2450000000000        -4.609091787783132E-011
   16.4350000000000        -4.687686777529681E-011
   16.6250000000000        -4.766846945969531E-011
   16.8150000000000        -4.846850618695791E-011
   17.0050000000000        -4.927896512853729E-011
   17.1950000000000        -5.011007044637554E-011
   17.3850000000000        -5.095016716651777E-011
   17.5750000000000        -5.178817058917737E-011
   17.7650000000000        -5.262275861796331E-011
   17.9550000000000        -5.345138855078302E-011
   18.1450000000000        -5.427629242235044E-011
   18.3350000000000        -5.509713387496935E-011
   18.5250000000000        -5.591246289723850E-011
   18.7150000000000        -5.671926970564147E-011
   18.9050000000000        -5.752964038832833E-011
   19.0950000000000        -5.836513180395385E-011
   19.2850000000000        -5.922473320362792E-011
   19.4750000000000        -6.010975503635275E-011
   19.6650000000000        -6.098497526138232E-011
   19.8550000000000        -6.181451303882294E-011
   20.0450000000000        -6.259892303040392E-011
   20.2350000000000        -6.332813984089443E-011
   20.4250000000000        -6.399740241172367E-011
   20.6150000000000        -6.459212485868355E-011
   20.8050000000000        -6.512539470834248E-011
   20.9950000000000        -6.562417930674873E-011
   21.1850000000000        -6.611351486993360E-011
   21.3750000000000        -6.658959730704751E-011
   21.5650000000000        -6.705319917235515E-011
   21.7550000000000        -6.753579280398556E-011
   21.9450000000000        -6.807120385469608E-011
   22.1350000000000        -6.871505759685775E-011
   22.3250000000000        -6.953671638474431E-011
   22.5150000000000        -7.053377215455065E-011
   22.7050000000000        -7.165151148613836E-011
   22.8950000000000        -7.289799656527751E-011
   23.0850000000000        -7.430131632079381E-011
   23.2750000000000        -7.585299222428804E-011
   23.4650000000000        -7.749093676901356E-011
   23.6550000000000        -7.917294631636143E-011
   23.8450000000000        -8.088118418684831E-011
   24.0350000000000        -8.258265681383382E-011
   24.2250000000000        -8.424118051349104E-011
   24.4150000000000        -8.582452624882925E-011
   24.6050000000000        -8.727984954913971E-011
   24.7950000000000        -8.863709883026170E-011
   24.9850000000000        -8.987783786196989E-011
   25.1750000000000        -9.099180825162740E-011
   25.3650000000000        -9.197251946296927E-011
   25.5550000000000        -9.282119523456775E-011
   25.7450000000000        -9.350868959933766E-011
   25.9350000000000        -9.403331693529291E-011
   26.1250000000000        -9.451852177821960E-011
   26.3150000000000        -9.495423363192137E-011
   26.5050000000000        -9.533973477595840E-011
   26.6950000000000        -9.571738111050015E-011
   26.8850000000000        -9.612753347672651E-011
   27.0750000000000        -9.661528596252778E-011
   27.2650000000000        -9.721085518862038E-011
   27.4550000000000        -9.789394026749584E-011
   27.6450000000000        -9.863495496010209E-011
   27.8350000000000        -9.940754264800740E-011
   28.0250000000000        -1.001847449371816E-010
   28.2150000000000        -1.009477102221673E-010
   28.4050000000000        -1.016419319053377E-010
   28.5950000000000        -1.021805939837863E-010
   28.7850000000000        -1.025964791321338E-010
   28.9750000000000        -1.029030686972975E-010
   29.1650000000000        -1.029806986222551E-010
   29.3550000000000        -1.028923405637903E-010
   29.5450000000000        -1.025770516108629E-010
   29.7350000000000        -1.019360755823465E-010
   29.9250000000000        -1.010706588329973E-010
   30.1150000000000        -1.000628860944733E-010
   30.3050000000000        -9.887691872373713E-011
   30.4950000000000        -9.753510866612918E-011
   30.6850000000000        -9.619718466803259E-011
   30.8750000000000        -9.494961869643463E-011
   31.0650000000000        -9.384000693781037E-011
   31.2550000000000        -9.282457512951714E-011
   31.4450000000000        -9.202003590791112E-011
   31.6350000000000        -9.155117095789464E-011
   31.8250000000000        -9.134668355808947E-011
   32.0150000000000        -9.130175495409450E-011
   32.2050000000000        -9.153960458106855E-011
   32.3950000000000        -9.203093845035571E-011
   32.5850000000000        -9.269527237225158E-011
   32.7750000000000        -9.356714816024143E-011
   32.9650000000000        -9.449027751121421E-011
   33.1550000000000        -9.541732405765600E-011
   33.3450000000000        -9.634463729296960E-011
   33.5350000000000        -9.722106959331816E-011
   33.7250000000000        -9.796577114300528E-011
   33.9150000000000        -9.850709662254822E-011
   34.1050000000000        -9.882858617035854E-011
   34.2950000000000        -9.899724558984375E-011
   34.4850000000000        -9.909922178278617E-011
   34.6750000000000        -9.916955679854218E-011
   34.8650000000000        -9.922459329840189E-011
   35.0550000000000        -9.933250650449025E-011
   35.2450000000000        -9.957333457240774E-011
   35.4350000000000        -9.998939516240126E-011
   35.6250000000000        -1.005678564040692E-010
   35.8150000000000        -1.012774160759840E-010
   36.0050000000000        -1.020767528263717E-010
   36.1950000000000        -1.029334581951894E-010
   36.3850000000000        -1.038293438718661E-010
   36.5750000000000        -1.047415036439235E-010
   36.7650000000000        -1.056706270335274E-010
   36.9550000000000        -1.066026441512734E-010
   37.1450000000000        -1.075134572962543E-010
   37.3350000000000        -1.083912744671937E-010
   37.5250000000000        -1.092265665395870E-010
   37.7150000000000        -1.100130368555423E-010
   37.9050000000000        -1.107564807105954E-010
   38.0950000000000        -1.114763118165162E-010
   38.2850000000000        -1.122261848733273E-010
   38.4750000000000        -1.130424188673346E-010
   38.6650000000000        -1.139627257216052E-010
   38.8550000000000        -1.150179347100485E-010
   39.0450000000000        -1.162409554072456E-010
   39.2350000000000        -1.176792280253696E-010
   39.4250000000000        -1.193797289883574E-010
   39.6150000000000        -1.213794288790917E-010
   39.8050000000000        -1.235496736659811E-010
   39.9950000000000        -1.258611138350933E-010
   40.1850000000000        -1.283023972315260E-010
   40.3750000000000        -1.307605839900815E-010
   40.5650000000000        -1.332112589163056E-010
   40.7550000000000        -1.356108649512390E-010
   40.9450000000000        -1.378656498481011E-010
   41.1350000000000        -1.398718331035703E-010
   41.3250000000000        -1.416456208299159E-010
   41.5150000000000        -1.432704654835756E-010
   41.7050000000000        -1.447064854808307E-010
   41.8950000000000        -1.459212359067936E-010
   42.0850000000000        -1.468995559879117E-010
   42.2750000000000        -1.476063029797009E-010
   42.4650000000000        -1.480528600931274E-010
   42.6550000000000        -1.482366911207849E-010
   42.8450000000000        -1.481929207979310E-010
   43.0350000000000        -1.479750485593312E-010
   43.2250000000000        -1.476798521928294E-010
   43.4150000000000        -1.473066653576465E-010
   43.6050000000000        -1.468749611509472E-010
   43.7950000000000        -1.464389107800219E-010
   43.9850000000000        -1.459705374572867E-010
   44.1750000000000        -1.455061289989361E-010
   44.3650000000000        -1.451179204631781E-010
   44.5550000000000        -1.449410315589953E-010
   44.7450000000000        -1.450430988377844E-010
   44.9350000000000        -1.453511042644287E-010
   45.1250000000000        -1.458776651660607E-010
   45.3150000000000        -1.466320223271315E-010
   45.5050000000000        -1.475700753515581E-010
   45.6950000000000        -1.487350199659403E-010
   45.8850000000000        -1.500147231455227E-010
   46.0750000000000        -1.513603311763780E-010
   46.2650000000000        -1.527804788661628E-010
   46.4550000000000        -1.541926897752858E-010
   46.6450000000000        -1.555303386694392E-010
   46.8350000000000        -1.566500327510768E-010
   47.0250000000000        -1.576024371946687E-010
   47.2150000000000        -1.583589601041241E-010
   47.4050000000000        -1.588337753695245E-010
   47.5950000000000        -1.590997883043660E-010
   47.7850000000000        -1.591992194295200E-010
   47.9750000000000        -1.591935497927287E-010
   48.1650000000000        -1.590363196677982E-010
   48.3550000000000        -1.586716601876593E-010
   48.5450000000000        -1.581827919942496E-010
   48.7350000000000        -1.576649247893629E-010
   48.9250000000000        -1.571364102996217E-010
   49.1150000000000        -1.566053551220962E-010
   49.3050000000000        -1.561909177573805E-010
   49.4950000000000        -1.560628812616885E-010
   49.6850000000000        -1.561734889672372E-010
   49.8750000000000        -1.564696849498832E-010
   50.0650000000000        -1.570265959786468E-010
   50.2550000000000        -1.578662895867073E-010
   50.4450000000000        -1.590151032437503E-010
   50.6350000000000        -1.604147748104016E-010
   50.8250000000000        -1.620206464611421E-010
   51.0150000000000        -1.636866434897157E-010
   51.2050000000000        -1.652935192584399E-010
   51.3950000000000        -1.668399015622216E-010
   51.5850000000000        -1.681471341226824E-010
   51.7750000000000        -1.692133232235008E-010
   51.9650000000000        -1.700742761402997E-010
   52.1550000000000        -1.706599568695159E-010
   52.3450000000000        -1.710653776857682E-010
   52.5350000000000        -1.713579794001545E-010
   52.7250000000000        -1.714874105896552E-010
   52.9150000000000        -1.715022729354683E-010
   53.1050000000000        -1.715004204242519E-010
   53.2950000000000        -1.715112909990863E-010
   53.4850000000000        -1.715876792025397E-010
   53.6750000000000        -1.717199319428104E-010
   53.8650000000000        -1.719189561216133E-010
   54.0550000000000        -1.722677160130795E-010
   54.2450000000000        -1.728053179708590E-010
   54.4350000000000        -1.735509675150037E-010
   54.6250000000000        -1.745317902718999E-010
   54.8150000000000        -1.757498708079194E-010
   55.0050000000000        -1.771693900099993E-010
   55.1950000000000        -1.786793060699137E-010
   55.3850000000000        -1.802017941408729E-010
   55.5750000000000        -1.817163661312617E-010
   55.7650000000000        -1.831926692907840E-010
   55.9550000000000        -1.846059445760627E-010
   56.1450000000000        -1.858710483566328E-010
   56.3350000000000        -1.870426557088710E-010
   56.5250000000000        -1.881602499133766E-010
   56.7150000000000        -1.891437646272268E-010
   56.9050000000000        -1.899674073908071E-010
   57.0950000000000        -1.906077831748211E-010
   57.2850000000000        -1.910740410795004E-010
   57.4750000000000        -1.914148155183990E-010
   57.6650000000000        -1.916865339869043E-010
   57.8550000000000        -1.919472732111134E-010
   58.0450000000000        -1.922151576598500E-010
   58.2350000000000        -1.924898973435618E-010
   58.4250000000000        -1.928071973972394E-010
   58.6150000000000        -1.931942798059702E-010
   58.8050000000000        -1.936559283560560E-010
   58.9950000000000        -1.941923504558186E-010
   59.1850000000000        -1.947858188100259E-010
   59.3750000000000        -1.954066746127196E-010
   59.5650000000000        -1.960361571003099E-010
   59.7550000000000        -1.966701982848714E-010
   59.9450000000000        -1.973045308463683E-010
   60.1350000000000        -1.979267588409800E-010
   60.3250000000000        -1.985026059432645E-010
   60.5150000000000        -1.989950945587624E-010
   60.7050000000000        -1.993889473470776E-010
   60.8950000000000        -1.996462102837893E-010
   61.0850000000000        -1.997793674611069E-010
   61.2750000000000        -1.998199140137189E-010
   61.4650000000000        -1.997604551297817E-010
   61.6550000000000        -1.995798781409960E-010
   61.8450000000000        -1.992771546798768E-010
   62.0350000000000        -1.988685394953683E-010
   62.2250000000000        -1.984158624278557E-010
   62.4150000000000        -1.979641637348925E-010
   62.6050000000000        -1.975012952199571E-010
   62.7950000000000        -1.970310414614495E-010
   62.9850000000000        -1.965557961974456E-010
   63.1750000000000        -1.960934384013870E-010
   63.3650000000000        -1.956566936971840E-010
   63.5550000000000        -1.952834136624074E-010
   63.7450000000000        -1.950053646482061E-010
   63.9350000000000        -1.948217801083228E-010
   64.1250000000000        -1.947337347336226E-010
   64.3150000000000        -1.947528329394458E-010
   64.5050000000000        -1.948807747191488E-010
   64.6950000000000        -1.951501705209703E-010
   64.8850000000000        -1.955044721512134E-010
   65.0750000000000        -1.959208922990631E-010
   65.2650000000000        -1.964367169716713E-010
   65.4550000000000        -1.970005207022169E-010
   65.6450000000000        -1.975929657327976E-010
   65.8350000000000        -1.982096564042307E-010
   66.0250000000000        -1.988357489479415E-010
   66.2150000000000        -1.994684835403273E-010
   66.4050000000000        -2.001167243936150E-010
   66.5950000000000        -2.007764411026910E-010
   66.7850000000000        -2.014433405674821E-010
   66.9750000000000        -2.021175431562705E-010
   67.1650000000000        -2.028045880608177E-010
   67.3550000000000        -2.035003793599261E-010
   67.5450000000000        -2.041871792107819E-010
   67.7350000000000        -2.048459887603166E-010
   67.9250000000000        -2.054631808193536E-010
   68.1150000000000        -2.060460402411506E-010
   68.3050000000000        -2.066106907834855E-010
   68.4950000000000        -2.071776479077535E-010
   68.6850000000000        -2.077762637241037E-010
   68.8750000000000        -2.084251107552774E-010
   69.0650000000000        -2.091311039401533E-010
   69.2550000000000        -2.098997189814100E-010
   69.4450000000000        -2.107312531769755E-010
   69.6350000000000        -2.116098737438543E-010
   69.8250000000000        -2.125027452246843E-010
   70.0150000000000        -2.134162009584311E-010
   70.2050000000000        -2.143807121702984E-010
   70.3950000000000        -2.154134154626322E-010
   70.5850000000000        -2.165152968798097E-010
   70.7750000000000        -2.177095373871131E-010
   70.9650000000000        -2.190197463062471E-010
   71.1550000000000        -2.205017503954550E-010
   71.3450000000000        -2.221016464510076E-010
   71.5350000000000        -2.238138923481943E-010
   71.7250000000000        -2.255974720309569E-010
   71.9150000000000        -2.274090586933847E-010
   72.1050000000000        -2.293084174365076E-010
   72.2950000000000        -2.312279033329326E-010
   72.4850000000000        -2.331551818453379E-010
   72.6750000000000        -2.350890222353551E-010
   72.8650000000000        -2.370068504967134E-010
   73.0550000000000        -2.388744806215936E-010
   73.2450000000000        -2.406697410482697E-010
   73.4350000000000        -2.423472358571576E-010
   73.6250000000000        -2.438426369778669E-010
   73.8150000000000        -2.451358723916314E-010
   74.0050000000000        -2.462456911931665E-010
   74.1950000000000        -2.472057102888694E-010
   74.3850000000000        -2.480541663377944E-010
   74.5750000000000        -2.487617159001407E-010
   74.7650000000000        -2.492856654135209E-010
   74.9550000000000        -2.495848752601386E-010
   75.1450000000000        -2.496794818284228E-010
   75.3350000000000        -2.497480401750126E-010
   75.5250000000000        -2.498139102909542E-010
   75.7150000000000        -2.498273669082517E-010
   75.9050000000000        -2.498451847367598E-010
   76.0950000000000        -2.499104548715347E-010
   76.2850000000000        -2.500744748175534E-010
   76.4750000000000        -2.503437363653920E-010
   76.6650000000000        -2.506772909611493E-010
   76.8550000000000        -2.510393837004171E-010
   77.0450000000000        -2.514032735022621E-010
   77.2350000000000        -2.517003650737534E-010
   77.4250000000000        -2.518233801625162E-010
   77.6150000000000        -2.518116017865329E-010
   77.8050000000000        -2.517196232430052E-010
   77.9950000000000        -2.514797112893906E-010
   78.1850000000000        -2.510571951290848E-010
   78.3750000000000        -2.504263428213071E-010
   78.5650000000000        -2.495896397181210E-010
   78.7550000000000        -2.486402671716663E-010
   78.9450000000000        -2.476819852725069E-010
   79.1350000000000        -2.467110837967128E-010
   79.3250000000000        -2.457178365262306E-010
   79.5150000000000        -2.447476674280614E-010
   79.7050000000000        -2.438763879457236E-010
   79.8950000000000        -2.432433498218147E-010
   80.0850000000000        -2.429030396045392E-010
   80.2750000000000        -2.427172912318975E-010
   80.4650000000000        -2.427182492851320E-010
   80.6550000000000        -2.430449319175282E-010
   80.8450000000000        -2.436624036709368E-010
   81.0350000000000        -2.445379698250514E-010
   81.2250000000000        -2.456167238423032E-010
   81.4150000000000        -2.468554051920716E-010
   81.6050000000000        -2.483023414943731E-010
   81.7950000000000        -2.499739946343428E-010
   81.9850000000000        -2.517732127597453E-010
   82.1750000000000        -2.536095445658278E-010
   82.3650000000000        -2.554280535577933E-010
   82.5550000000000        -2.570555621560577E-010
   82.7450000000000        -2.584166220499933E-010
   82.9350000000000        -2.596189352105385E-010
   83.1250000000000        -2.606601694432155E-010
   83.3150000000000        -2.614592330661645E-010
   83.5050000000000        -2.620038618736601E-010
   83.6950000000000        -2.624341194770916E-010
   83.8850000000000        -2.627538824953151E-010
   84.0750000000000        -2.630129494734794E-010
   84.2650000000000        -2.633186612590640E-010
   84.4550000000000        -2.636131026197127E-010
   84.6450000000000        -2.639059459730654E-010
   84.8350000000000        -2.642031554694761E-010
   85.0250000000000        -2.645059039281240E-010
   85.2150000000000        -2.648337371804933E-010
   85.4050000000000        -2.652272259102329E-010
   85.5950000000000        -2.657418026473904E-010
   85.7850000000000        -2.664076965591134E-010
   85.9750000000000        -2.672069823680580E-010
   86.1650000000000        -2.681246612253425E-010
   86.3550000000000        -2.691581446472577E-010
   86.5450000000000        -2.702896007931736E-010
   86.7350000000000        -2.714941792295394E-010
   86.9250000000000        -2.727449228021932E-010
   87.1150000000000        -2.740153222915885E-010
   87.3050000000000        -2.752986917910116E-010
   87.4950000000000        -2.765954579745144E-010
   87.6850000000000        -2.778937194659624E-010
   87.8750000000000        -2.791872178728685E-010
   88.0650000000000        -2.804821282717590E-010
   88.2550000000000        -2.817909350556438E-010
   88.4450000000000        -2.831082381502991E-010
   88.6350000000000        -2.844232244928039E-010
   88.8250000000000        -2.857458858351560E-010
   89.0150000000000        -2.870549798773627E-010
   89.2050000000000        -2.882651654005911E-010
   89.3950000000000        -2.893045722572552E-010
   89.5850000000000        -2.901959685123474E-010
   89.7750000000000        -2.909684378464609E-010
   89.9650000000000        -2.916299451544363E-010
   90.1550000000000        -2.922000072616087E-010
   90.3450000000000        -2.927039179229408E-010
   90.5350000000000        -2.931486290904349E-010
   90.7250000000000        -2.935338544664990E-010
   90.9150000000000        -2.938616215900532E-010
   91.1050000000000        -2.941270988354003E-010
   91.2950000000000        -2.943335042336232E-010
   91.4850000000000        -2.944625318325909E-010
   91.6750000000000        -2.944856582900538E-010
   91.8650000000000        -2.944133807162339E-010
   92.0550000000000        -2.942687472053228E-010
   92.2450000000000        -2.940811993912314E-010
   92.4350000000000        -2.938494854512083E-010
   92.6250000000000        -2.935366313076832E-010
   92.8150000000000        -2.931483846471359E-010
   93.0050000000000        -2.927112921184032E-010
   93.1950000000000        -2.922693503608396E-010
   93.3850000000000        -2.919048057436042E-010
   93.5750000000000        -2.917331064736143E-010
   93.7650000000000        -2.917192083695423E-010
   93.9550000000000        -2.918084055031845E-010
   94.1450000000000        -2.920575368380393E-010
   94.3350000000000        -2.924661991810988E-010
   94.5250000000000        -2.930377011178171E-010
   94.7150000000000        -2.937686660286436E-010
   94.9050000000000        -2.946030285913520E-010
   95.0950000000000        -2.954572789291882E-010
   95.2850000000000        -2.963385443368235E-010
   95.4750000000000        -2.972549167260595E-010
   95.6650000000000        -2.981950905898501E-010
   95.8550000000000        -2.991683799536392E-010
   96.0450000000000        -3.001395571723723E-010
   96.2350000000000        -3.010874984417825E-010
   96.4250000000000        -3.019931425363753E-010
   96.6150000000000        -3.028395454601796E-010
   96.8050000000000        -3.036020246468760E-010
   96.9950000000000        -3.042763957189785E-010
   97.1850000000000        -3.048859579655314E-010
   97.3750000000000        -3.054669280123425E-010
   97.5650000000000        -3.060300887527429E-010
   97.7550000000000        -3.065862181696720E-010
   97.9450000000000        -3.071689876158297E-010
   98.1350000000000        -3.078004152238708E-010
   98.3250000000000        -3.084871926881115E-010
   98.5150000000000        -3.092112785990424E-010
   98.7050000000000        -3.099405106666758E-010
   98.8950000000000        -3.106419043739573E-010
   99.0850000000000        -3.112789155086837E-010
   99.2750000000000        -3.117940722701405E-010
   99.4650000000000        -3.121254615689038E-010
   99.6550000000000        -3.122868992916499E-010
   99.8450000000000        -3.123190300467642E-010
   100.035000000000        -3.121707156375977E-010
   100.225000000000        -3.117695464740776E-010
   100.415000000000        -3.111085862910781E-010
   100.605000000000        -3.102028886801711E-010
   100.795000000000        -3.090663002320676E-010
   100.985000000000        -3.076754461532644E-010
   101.175000000000        -3.061676710736722E-010
   101.365000000000        -3.046177392361615E-010
   101.555000000000        -3.029903297741940E-010
   101.745000000000        -3.013785289704853E-010
   101.935000000000        -2.999652671439316E-010
   102.125000000000        -2.988395706856685E-010
   102.315000000000        -2.980430652371476E-010
   102.505000000000        -2.975817568253168E-010
   102.695000000000        -2.973988472589385E-010
   102.885000000000        -2.975509038771164E-010
   103.075000000000        -2.980679260104296E-010
   103.265000000000        -2.989624906081864E-010
   103.455000000000        -3.000958265641910E-010
   103.645000000000        -3.013882552003684E-010
   103.835000000000        -3.028428099463615E-010
   104.025000000000        -3.043550104555841E-010
   104.215000000000        -3.058839373115342E-010
   104.405000000000        -3.074229152838135E-010
   104.595000000000        -3.089457396249914E-010
   104.785000000000        -3.104166408892853E-010
   104.975000000000        -3.117949810853384E-010
   105.165000000000        -3.130532014877982E-010
   105.355000000000        -3.141955617431330E-010
   105.545000000000        -3.152405815619741E-010
   105.735000000000        -3.161923949632780E-010
   105.925000000000        -3.170747515916300E-010
   106.115000000000        -3.179019881923013E-010
   106.305000000000        -3.186551945267151E-010
   106.495000000000        -3.193514037636190E-010
   106.685000000000        -3.199996789107662E-010
   106.875000000000        -3.206033181886898E-010
   107.065000000000        -3.211765084713322E-010
   107.255000000000        -3.217084925694294E-010
   107.445000000000        -3.222030157073668E-010
   107.635000000000        -3.226705963969266E-010
   107.825000000000        -3.231252385551334E-010
   108.015000000000        -3.235834302844969E-010
   108.205000000000        -3.240587034448829E-010
   108.395000000000        -3.245559556021085E-010
   108.585000000000        -3.250594796513263E-010
   108.775000000000        -3.255531196005104E-010
   108.965000000000        -3.260263049490743E-010
   109.155000000000        -3.264749754429530E-010
   109.345000000000        -3.268984463741975E-010
   109.535000000000        -3.272927493262532E-010
   109.725000000000        -3.276601079421810E-010
   109.915000000000        -3.280032156546071E-010
   110.105000000000        -3.283351190527922E-010