  -1.42500000000000         5.605819707102540E-019
  -1.23500000000000         4.607695334684117E-018
  -1.04500000000000         2.991667229607354E-017
 -0.855000000000000         1.420711169203672E-016
 -0.665000000000000         5.438352600807493E-016
 -0.475000000000000         1.747068496401256E-015
 -0.285000000000000         4.782078481292651E-015
 -9.499999999999975E-002    1.141701103573513E-014
  9.500000000000020E-002    2.367739830678022E-014
  0.285000000000000         4.381183094248927E-014
  0.475000000000000         7.390287867726863E-014
  0.665000000000000         1.112350363935945E-013
  0.855000000000000         1.592051507026622E-013
   1.04500000000000         2.050532948378885E-013
   1.23500000000000         2.566743060864409E-013
   1.42500000000000         2.803528364100402E-013
   1.61500000000000         3.303256140066099E-013
   1.80500000000000         3.748895723306339E-013
   1.99500000000000         4.129396894638112E-013
   2.18500000000000         4.535531303862353E-013
   2.37500000000000         4.878578440317119E-013
   2.56500000000000         5.137501294820474E-013
   2.75500000000000         5.326749751137157E-013
   2.94500000000000         5.443874169696231E-013
   3.13500000000000         5.481897880756064E-013
   3.32500000000000         5.476177202816096E-013
   3.51500000000000         5.440222490080253E-013
   3.70500000000000         5.391890494662785E-013
   3.89500000000000         5.340550772291644E-013
   4.08500000000000         5.286593210749078E-013
   4.27500000000000         5.211715094748870E-013
   4.46500000000000         5.079376572548614E-013
   4.65500000000000         4.892918113017299E-013
   4.84500000000000         4.694222450217144E-013
   5.03500000000000         4.541560759103764E-013
   5.22500000000000         4.520006936197537E-013
   5.41500000000000         4.445795083159718E-013
   5.60500000000000         4.451491898809953E-013
   5.79500000000000         4.538490693134551E-013
   5.98500000000000         4.727118261354866E-013
   6.17500000000000         5.003071753608489E-013
   6.36500000000000         5.385338949915684E-013
   6.55500000000000         5.671597367198566E-013
   6.74500000000000         5.969751601721898E-013
   6.93500000000000         6.324368960650010E-013
   7.12500000000000         6.690745998433746E-013
   7.31500000000000         6.841954140788688E-013
   7.50500000000000         6.899905373435176E-013
   7.69500000000000         6.859648421693190E-013
   7.88500000000000         6.674358750167474E-013
   8.07500000000000         6.383491907269822E-013
   8.26500000000000         6.198454946638532E-013
   8.45500000000000         5.867553247216595E-013
   8.64500000000000         5.420246919422056E-013
   8.83500000000000         4.966543375844866E-013
   9.02500000000000         3.986591122414978E-013
   9.21500000000000         3.177340837157540E-013
   9.40500000000000         2.451925134140682E-013
   9.59500000000000         1.807667865236158E-013
   9.78500000000000         1.359885315658178E-013
   9.97500000000000         9.471027337418437E-014
   10.1650000000000         7.433428140776829E-014
   10.3550000000000         6.932368722355123E-014
   10.5450000000000         6.535750940895445E-014
   10.7350000000000         6.647717261947112E-014
   10.9250000000000         6.719254716051945E-014
   11.1150000000000         7.044620244148946E-014
   11.3050000000000         8.583057648986781E-014
   11.4950000000000         1.228907103874732E-013
   11.6850000000000         1.704025767594756E-013
   11.8750000000000         2.169941716490549E-013
   12.0650000000000         2.585751393516635E-013
   12.2550000000000         2.936174888934512E-013
   12.4450000000000         3.283486724516314E-013
   12.6350000000000         3.353130011386340E-013
   12.8250000000000         3.544078133072850E-013
   13.0150000000000         3.659117706433594E-013
   13.2050000000000         3.697735971925760E-013
   13.3950000000000         3.673352061227119E-013
   13.5850000000000         3.615891979297073E-013
   13.7750000000000         3.569384936214340E-013
   13.9650000000000         3.555243140900638E-013
   14.1550000000000         3.557495793371299E-013
   14.3450000000000         3.621214241145513E-013
   14.5350000000000         3.713434306810401E-013
   14.7250000000000         3.855580336506180E-013
   14.9150000000000         4.315580073654176E-013
   15.1050000000000         4.974124435118580E-013
   15.2950000000000         5.619034548186010E-013
   15.4850000000000         6.234091038479994E-013
   15.6750000000000         6.610483928581840E-013
   15.8650000000000         6.965693926194618E-013
   16.0550000000000         7.220904820019913E-013
   16.2450000000000         7.323964887596020E-013
   16.4350000000000         7.326883100643761E-013
   16.6250000000000         7.251901109294599E-013
   16.8150000000000         7.079440981389066E-013
   17.0050000000000         6.995578539188696E-013
   17.1950000000000         6.735857227731232E-013
   17.3850000000000         6.585687294426075E-013
   17.5750000000000         6.183914948044558E-013
   17.7650000000000         6.009688289070933E-013
   17.9550000000000         5.793559520933333E-013
   18.1450000000000         5.631279512311892E-013
   18.3350000000000         5.450120019425883E-013
   18.5250000000000         5.211257076430455E-013
   18.7150000000000         4.744908344182894E-013
   18.9050000000000         4.244909683078569E-013
   19.0950000000000         3.882869539575548E-013
   19.2850000000000         3.648105717159200E-013
   19.4750000000000         3.483720481626072E-013
   19.6650000000000         3.339050935856346E-013
   19.8550000000000         3.143685566949472E-013
   20.0450000000000         2.911815972564562E-013
   20.2350000000000         2.648514983827499E-013
   20.4250000000000         2.339096920346100E-013
   20.6150000000000         1.940071890000213E-013
   20.8050000000000         1.546227299640180E-013
   20.9950000000000         1.162810349869657E-013
   21.1850000000000         1.042663771943048E-013
   21.3750000000000         4.266365178228856E-014
   21.5650000000000         3.157367613804171E-014
   21.7550000000000         1.918569866375675E-014
   21.9450000000000        -5.875299072434077E-015
   22.1350000000000        -1.360239468648829E-014
   22.3250000000000         1.832106630884285E-014
   22.5150000000000         6.839664663222033E-014
   22.7050000000000         1.331963897212631E-013
   22.8950000000000         2.077960682861233E-013
   23.0850000000000         2.880629161605308E-013
   23.2750000000000         3.598105759171473E-013
   23.4650000000000         4.120076189519952E-013
   23.6550000000000         4.979732466996492E-013
   23.8450000000000         5.714908446219118E-013
   24.0350000000000         6.267136885967359E-013
   24.2250000000000         6.734394074144472E-013
   24.4150000000000         7.064098303800238E-013
   24.6050000000000         7.282573288305908E-013
   24.7950000000000         7.285568043582769E-013
   24.9850000000000         7.146210589808500E-013
   25.1750000000000         7.044369075168222E-013
   25.3650000000000         6.685090534633439E-013
   25.5550000000000         6.507819373432818E-013
   25.7450000000000         5.948208366818772E-013
   25.9350000000000         5.642000364262983E-013
   26.1250000000000         5.390979971264858E-013
   26.3150000000000         5.159630967733111E-013
   26.5050000000000         4.934604666402536E-013
   26.6950000000000         4.785119939927886E-013
   26.8850000000000         4.698252679959242E-013
   27.0750000000000         4.692129948922669E-013
   27.2650000000000         4.820160631909370E-013
   27.4550000000000         4.996890558563072E-013
   27.6450000000000         5.199085742713596E-013
   27.8350000000000         5.258344943034104E-013
   28.0250000000000         5.511797271928548E-013
   28.2150000000000         5.622408371178786E-013
   28.4050000000000         5.661863567221435E-013
   28.5950000000000         5.515089737313676E-013
   28.7850000000000         5.239438883091278E-013
   28.9750000000000         4.820314007705816E-013
   29.1650000000000         4.195492117028104E-013
   29.3550000000000         3.509250648493962E-013
   29.5450000000000         2.740064104821161E-013
   29.7350000000000         1.919917082945755E-013
   29.9250000000000         1.086291104640449E-013
   30.1150000000000         3.227626933763288E-014
   30.3050000000000        -3.434354974843695E-014
   30.4950000000000        -7.608731868753015E-014
   30.6850000000000        -8.819180141148430E-014
   30.8750000000000        -1.249978668370685E-013
   31.0650000000000        -1.407607016255991E-013
   31.2550000000000        -1.323320696082649E-013
   31.4450000000000        -1.111487356983979E-013
   31.6350000000000        -7.983672662236295E-014
   31.8250000000000        -4.034410005178227E-014
   32.0150000000000         7.791801137975903E-015
   32.2050000000000         5.415683991729197E-014
   32.3950000000000         1.087242698180078E-013
   32.5850000000000         1.569699336963288E-013
   32.7750000000000         1.798776094678866E-013
   32.9650000000000         2.130053824784097E-013
   33.1550000000000         2.354453497083403E-013
   33.3450000000000         2.634771679191123E-013
   33.5350000000000         3.110352854362086E-013
   33.7250000000000         3.645744768231561E-013
   33.9150000000000         4.203015700621602E-013
   34.1050000000000         4.649008771346097E-013
   34.2950000000000         4.971009924771271E-013
   34.4850000000000         5.142423168787927E-013
   34.6750000000000         5.333939605411839E-013
   34.8650000000000         5.502882021992932E-013
   35.0550000000000         5.653346402050721E-013
   35.2450000000000         5.773233978892359E-013
   35.4350000000000         5.807448812385139E-013
   35.6250000000000         5.759247701938960E-013
   35.8150000000000         5.629495765221593E-013
   36.0050000000000         5.483771259201202E-013
   36.1950000000000         5.276030346041005E-013
   36.3850000000000         5.207660896128181E-013
   36.5750000000000         5.021970819535144E-013
   36.7650000000000         4.913803139790722E-013
   36.9550000000000         4.737214497331045E-013
   37.1450000000000         4.546438909950538E-013
   37.3350000000000         4.424715808487271E-013
   37.5250000000000         4.342702252440311E-013
   37.7150000000000         4.279107726235246E-013
   37.9050000000000         4.230194179726956E-013
   38.0950000000000         4.194757397146148E-013
   38.2850000000000         4.150080380347304E-013
   38.4750000000000         4.091918133440600E-013
   38.6650000000000         4.039305661721029E-013
   38.8550000000000         3.975795481061541E-013
   39.0450000000000         3.904957742251582E-013
   39.2350000000000         3.778308897721104E-013
   39.4250000000000         3.594919211012199E-013
   39.6150000000000         3.326258241189650E-013
   39.8050000000000         2.950211967469990E-013
   39.9950000000000         2.746026282360692E-013
   40.1850000000000         2.355579265741598E-013
   40.3750000000000         2.214706574675970E-013
   40.5650000000000         2.061197233676037E-013
   40.7550000000000         1.597945787914828E-013
   40.9450000000000         8.131609497191365E-014
   41.1350000000000         9.113514882652764E-015
   41.3250000000000        -3.966179324847308E-014
   41.5150000000000        -5.504016948992526E-014
   41.7050000000000        -5.411914853779658E-014
   41.8950000000000        -4.007481113882332E-014
   42.0850000000000        -1.129788479909654E-014
   42.2750000000000         2.390004406694967E-014
   42.4650000000000         7.030131707426957E-014
   42.6550000000000         1.181591056756404E-013
   42.8450000000000         1.747379372188984E-013
   43.0350000000000         2.241377049949216E-013
   43.2250000000000         2.568227684307655E-013
   43.4150000000000         3.291277826109465E-013
   43.6050000000000         3.422789385904321E-013
   43.7950000000000         3.657643611253620E-013
   43.9850000000000         3.932372707911956E-013
   44.1750000000000         4.254461990176446E-013
   44.3650000000000         4.615639951954552E-013
   44.5550000000000         4.849601809622482E-013
   44.7450000000000         4.853226967567349E-013
   44.9350000000000         4.722101739395426E-013
   45.1250000000000         4.475399514723150E-013
   45.3150000000000         4.279421336468650E-013
   45.5050000000000         4.076927878250193E-013
   45.6950000000000         3.913181419538148E-013
   45.8850000000000         3.809783066880464E-013
   46.0750000000000         3.755258572590773E-013
   46.2650000000000         3.713967485064126E-013
   46.4550000000000         3.691627434162173E-013
   46.6450000000000         3.721232276382882E-013
   46.8350000000000         3.911008395442283E-013
   47.0250000000000         4.112571107178392E-013
   47.2150000000000         4.279284060940770E-013
   47.4050000000000         4.365921120319466E-013
   47.5950000000000         4.351353335745203E-013
   47.7850000000000         4.226652813890212E-013
   47.9750000000000         3.996519023954695E-013
   48.1650000000000         3.644265424341217E-013
   48.3550000000000         3.272555134983564E-013
   48.5450000000000         3.074152764650489E-013
   48.7350000000000         2.770300245598674E-013
   48.9250000000000         2.548015791128981E-013
   49.1150000000000         2.346362784584870E-013
   49.3050000000000         2.027311231731957E-013
   49.4950000000000         1.880329746780416E-013
   49.6850000000000         2.030337942070282E-013
   49.8750000000000         2.260967541132994E-013
   50.0650000000000         2.597755057786454E-013
   50.2550000000000         2.974369307270352E-013
   50.4450000000000         3.359640311471006E-013
   50.6350000000000         3.413114860070927E-013
   50.8250000000000         3.874438997415955E-013
   51.0150000000000         3.914664507767416E-013
   51.2050000000000         3.964906653993448E-013
   51.3950000000000         4.029785286546617E-013
   51.5850000000000         3.733428224116597E-013
   51.7750000000000         3.113764664917516E-013
   51.9650000000000         2.364294293097219E-013
   52.1550000000000         1.445009997907830E-013
   52.3450000000000         5.352421243104742E-014
   52.5350000000000        -3.878783412745861E-014
   52.7250000000000        -1.264373654902608E-013
   52.9150000000000        -1.646202922559818E-013
   53.1050000000000        -2.164414069057525E-013
   53.2950000000000        -2.402496407942608E-013
   53.4850000000000        -2.548328192961865E-013
   53.6750000000000        -2.292720641035595E-013
   53.8650000000000        -1.805884994948655E-013
   54.0550000000000        -1.096584354202066E-013
   54.2450000000000        -2.173140676788446E-014
   54.4350000000000         7.855343480935493E-014
   54.6250000000000         1.827277289222369E-013
   54.8150000000000         2.846983746919035E-013
   55.0050000000000         3.731459303827153E-013
   55.1950000000000         4.219235591326558E-013
   55.3850000000000         5.009198135442222E-013
   55.5750000000000         5.327318485046302E-013
   55.7650000000000         5.654106663631470E-013
   55.9550000000000         5.888571799067478E-013
   56.1450000000000         5.852357846590701E-013
   56.3350000000000         5.534312581554377E-013
   56.5250000000000         5.118846541184547E-013
   56.7150000000000         4.618648002861979E-013
   56.9050000000000         4.104256846936993E-013
   57.0950000000000         3.629480042540522E-013
   57.2850000000000         3.371483472191212E-013
   57.4750000000000         2.987397156121948E-013
   57.6650000000000         2.640803560580286E-013
   57.8550000000000         2.435320365941328E-013
   58.0450000000000         2.300532541253581E-013
   58.2350000000000         2.172956873172109E-013
   58.4250000000000         2.078089519820260E-013
   58.6150000000000         2.055440019723117E-013
   58.8050000000000         2.079040938350668E-013
   58.9950000000000         2.136417112740502E-013
   59.1850000000000         2.194299806035917E-013
   59.3750000000000         2.229600839248468E-013
   59.5650000000000         2.240069571757950E-013
   59.7550000000000         2.237042232711506E-013
   59.9450000000000         2.216016536682809E-013
   60.1350000000000         2.158235859723246E-013
   60.3250000000000         2.008595386121459E-013
   60.5150000000000         1.786035708179778E-013
   60.7050000000000         1.542213111060157E-013
   60.8950000000000         1.249612397687647E-013
   61.0850000000000         1.006505838087775E-013
   61.2750000000000         7.612976841898648E-014
   61.4650000000000         4.684711359979731E-014
   61.6550000000000         1.601943783715905E-014
   61.8450000000000        -2.168867980929741E-014
   62.0350000000000        -5.574995492370059E-014
   62.2250000000000        -8.136693869478861E-014
   62.4150000000000        -1.108227710998445E-013
   62.6050000000000        -1.302906265969105E-013
   62.7950000000000        -1.385801484200116E-013
   62.9850000000000        -1.467313272259300E-013
   63.1750000000000        -1.670736882959357E-013
   63.3650000000000        -1.938553149184953E-013
   63.5550000000000        -2.218450594740869E-013
   63.7450000000000        -2.431134652708365E-013
   63.9350000000000        -2.531214014963797E-013
   64.1250000000000        -2.506238444208990E-013
   64.3150000000000        -2.357760066646992E-013
   64.5050000000000        -2.099998780021615E-013
   64.6950000000000        -1.559871907199291E-013
   64.8850000000000        -1.340917403524765E-013
   65.0750000000000        -6.812256139559661E-014
   65.2650000000000        -4.742058252168313E-015
   65.4550000000000         5.225367641911478E-014
   65.6450000000000         1.140733202537787E-013
   65.8350000000000         1.784982515821898E-013
   66.0250000000000         2.294070623200947E-013
   66.2150000000000         2.794742821545164E-013
   66.4050000000000         3.299371278234581E-013
   66.5950000000000         3.488629592291000E-013
   66.7850000000000         3.823615897615177E-013
   66.9750000000000         4.010011160915135E-013
   67.1650000000000         4.177752625226322E-013
   67.3550000000000         4.304841689831156E-013
   67.5450000000000         4.355947980085749E-013
   67.7350000000000         4.267476793175484E-013
   67.9250000000000         4.006763668158437E-013
   68.1150000000000         3.651066029485637E-013
   68.3050000000000         3.188283021945359E-013
   68.4950000000000         2.754549189150083E-013
   68.6850000000000         2.410136607333975E-013
   68.8750000000000         2.113794859760456E-013
   69.0650000000000         1.869364095619948E-013
   69.2550000000000         1.675091950360928E-013
   69.4450000000000         1.540845742006095E-013
   69.6350000000000         1.468101258932505E-013
   69.8250000000000         1.428230305191540E-013
   70.0150000000000         1.432602978562088E-013
   70.2050000000000         1.492850133307364E-013
   70.3950000000000         1.571514585744285E-013
   70.5850000000000         1.633462208257866E-013
   70.7750000000000         1.624861526643281E-013
   70.9650000000000         1.552192282948612E-013
   71.1550000000000         1.296605236905215E-013
   71.3450000000000         1.142007230551667E-013
   71.5350000000000         6.707654433951973E-014
   71.7250000000000         6.273007053532442E-014
   71.9150000000000         1.387925846693808E-014
   72.1050000000000         5.536304868116978E-015
   72.2950000000000        -1.415396886782747E-015
   72.4850000000000        -1.175005506094097E-014
   72.6750000000000        -1.965683858134612E-014
   72.8650000000000        -5.613515663496194E-014
   73.0550000000000        -1.097653205215451E-013
   73.2450000000000        -1.653147572489360E-013
   73.4350000000000        -2.248415294620515E-013
   73.6250000000000        -2.727351236331405E-013
   73.8150000000000        -2.986083447507420E-013
   74.0050000000000        -3.058188693312831E-013
   74.1950000000000        -3.024663914089307E-013
   74.3850000000000        -2.877469521212820E-013
   74.5750000000000        -2.666182336476809E-013
   74.7650000000000        -2.386336609175215E-013
   74.9550000000000        -2.064614639076200E-013
   75.1450000000000        -1.750629080010178E-013
   75.3350000000000        -1.797881431811823E-013
   75.5250000000000        -9.803437344665273E-014
   75.7150000000000        -9.120531148728559E-014
   75.9050000000000        -7.629365458751590E-014
   76.0950000000000        -1.117324697828234E-014
   76.2850000000000         8.070636829833505E-014
   76.4750000000000         1.577973591806753E-013
   76.6650000000000         2.102054992988357E-013
   76.8550000000000         2.356346026741656E-013
   77.0450000000000         2.570565830172335E-013
   77.2350000000000         2.888800905426959E-013
   77.4250000000000         3.162797908821326E-013
   77.6150000000000         3.232053575589423E-013
   77.8050000000000         3.108406847122703E-013
   77.9950000000000         2.910229564478747E-013
   78.1850000000000         2.631411363173783E-013
   78.3750000000000         2.326155272226784E-013
   78.5650000000000         2.116352454700786E-013
   78.7550000000000         1.799373573324795E-013
   78.9450000000000         1.688570662451691E-013
   79.1350000000000         1.407920605620863E-013
   79.3250000000000         1.175983180980801E-013
   79.5150000000000         8.747909332461629E-014
   79.7050000000000         4.355388715541762E-014
   79.8950000000000        -1.258959729272963E-016
   80.0850000000000        -3.013937977374243E-014
   80.2750000000000        -4.940410401341517E-014
   80.4650000000000        -6.412401039797372E-014
   80.6550000000000        -7.838429330561207E-014
   80.8450000000000        -9.536026219642722E-014
   81.0350000000000        -1.127179652297534E-013
   81.2250000000000        -1.308915191661656E-013
   81.4150000000000        -1.452843804319432E-013
   81.6050000000000        -1.586153098153198E-013
   81.7950000000000        -1.605559644155079E-013
   81.9850000000000        -1.692805970985528E-013
   82.1750000000000        -1.730254130350713E-013
   82.3650000000000        -1.824164508463131E-013
   82.5550000000000        -2.044759202006600E-013
   82.7450000000000        -2.233780275845907E-013
   82.9350000000000        -2.401027710311977E-013
   83.1250000000000        -2.518480952993361E-013
   83.3150000000000        -2.572548968892549E-013
   83.5050000000000        -2.563746328102976E-013
   83.6950000000000        -2.544135521812348E-013
   83.8850000000000        -2.364866260009686E-013
   84.0750000000000        -2.355811379659769E-013
   84.2650000000000        -2.313085665542887E-013
   84.4550000000000        -2.282713305811025E-013
   84.6450000000000        -2.273822946132873E-013
   84.8350000000000        -2.262956297790678E-013
   85.0250000000000        -2.129923939393769E-013
   85.2150000000000        -1.863224260853811E-013
   85.4050000000000        -1.546575690494555E-013
   85.5950000000000        -1.203999548972621E-013
   85.7850000000000        -9.178761131544163E-014
   85.9750000000000        -6.562383590865548E-014
   86.1650000000000        -4.311177801776765E-014
   86.3550000000000        -2.320896359984746E-014
   86.5450000000000         6.562064528336873E-016
   86.7350000000000         2.615071923304145E-014
   86.9250000000000         5.138412730156019E-014
   87.1150000000000         7.766795668323554E-014
   87.3050000000000         1.129470318719019E-013
   87.4950000000000         1.492117203167747E-013
   87.6850000000000         1.825306288629873E-013
   87.8750000000000         2.063823731653662E-013
   88.0650000000000         2.308508873138679E-013
   88.2550000000000         2.420181588232934E-013
   88.4450000000000         2.470202142149543E-013
   88.6350000000000         2.466846079259870E-013
   88.8250000000000         2.414735896844049E-013
   89.0150000000000         2.210351671309078E-013
   89.2050000000000         1.751706398647561E-013
   89.3950000000000         1.061512337756687E-013
   89.5850000000000         3.819815815886898E-014
   89.7750000000000        -7.995141955582491E-015
   89.9650000000000        -5.364545387174258E-014
   90.1550000000000        -1.027073556904962E-013
   90.3450000000000        -1.392079181274787E-013
   90.5350000000000        -1.805134954118395E-013
   90.7250000000000        -2.129755343688062E-013
   90.9150000000000        -2.362871091945356E-013
   91.1050000000000        -2.495455991491240E-013
   91.2950000000000        -2.532045647516646E-013
   91.4850000000000        -2.442923102162365E-013
   91.6750000000000        -2.244449279565963E-013
   91.8650000000000        -2.029365790744288E-013
   92.0550000000000        -1.834016304229321E-013
   92.2450000000000        -1.701673039700669E-013
   92.4350000000000        -1.627533559039128E-013
   92.6250000000000        -1.620796155866742E-013
   92.8150000000000        -1.692928832588317E-013
   93.0050000000000        -1.846272722984032E-013
   93.1950000000000        -2.155222932316657E-013
   93.3850000000000        -2.685971358610376E-013
   93.5750000000000        -3.370433458804792E-013
   93.7650000000000        -3.918078662186110E-013
   93.9550000000000        -4.455532237764997E-013
   94.1450000000000        -4.933057091639984E-013
   94.3350000000000        -5.368907340320994E-013
   94.5250000000000        -5.703483790210476E-013
   94.7150000000000        -5.905669866891342E-013
   94.9050000000000        -6.007596621402673E-013
   95.0950000000000        -5.999251404896753E-013
   95.2850000000000        -5.907392087773221E-013
   95.4750000000000        -5.871945602469858E-013
   95.6650000000000        -5.361952799067020E-013
   95.8550000000000        -5.276153641811977E-013
   96.0450000000000        -5.203148930048518E-013
   96.2350000000000        -4.762459735690518E-013
   96.4250000000000        -4.091305687972920E-013
   96.6150000000000        -3.372993891199913E-013
   96.8050000000000        -2.610599514544745E-013
   96.9950000000000        -1.941697836061898E-013
   97.1850000000000        -1.414038125100779E-013
   97.3750000000000        -1.096885439562375E-013
   97.5650000000000        -7.208319304968231E-014
   97.7550000000000        -4.262787121006168E-014
   97.9450000000000        -2.219343644833118E-014
   98.1350000000000        -1.246469054371620E-014
   98.3250000000000        -1.792193642235893E-014
   98.5150000000000        -3.285036144884008E-014
   98.7050000000000        -5.656111808442217E-014
   98.8950000000000        -8.346616850410305E-014
   99.0850000000000        -1.130167550902538E-013
   99.2750000000000        -1.562476589466957E-013
   99.4650000000000        -2.091004945667556E-013
   99.6550000000000        -2.514368954210564E-013
   99.8450000000000        -2.918230457422969E-013
   100.035000000000        -3.339840335136186E-013
   100.225000000000        -3.711471346222379E-013
   100.415000000000        -4.041542693750265E-013
   100.605000000000        -4.312803274355591E-013
   100.795000000000        -4.510807235556397E-013
   100.985000000000        -4.643196901469886E-013
   101.175000000000        -4.607445797189997E-013
   101.365000000000        -4.690581605341879E-013
   101.555000000000        -4.695282009930602E-013
   101.745000000000        -4.721757774682285E-013
   101.935000000000        -4.742339288438727E-013
   102.125000000000        -4.698707440298917E-013
   102.315000000000        -4.615859912036530E-013
   102.505000000000        -4.540981164318349E-013
   102.695000000000        -4.541560183423896E-013
   102.885000000000        -4.490802107094923E-013
   103.075000000000        -4.402049033712242E-013
   103.265000000000        -4.403391684615792E-013
   103.455000000000        -4.455488737010390E-013
   103.645000000000        -4.584563954953549E-013
   103.835000000000        -4.704463499462021E-013
   104.025000000000        -4.876554871970929E-013
   104.215000000000        -4.964540407325781E-013
   104.405000000000        -5.051676593133164E-013
   104.595000000000        -5.237097292472593E-013
   104.785000000000        -5.530287003684960E-013
   104.975000000000        -5.873440680191605E-013
   105.165000000000        -6.171498618154799E-013
   105.355000000000        -6.398197846174881E-013
   105.545000000000        -6.578505675241012E-013
   105.735000000000        -6.701779052918009E-013
   105.925000000000        -6.746199201325887E-013
   106.115000000000        -6.742794455275599E-013
   106.305000000000        -6.636865107664433E-013
   106.495000000000        -6.545222997676948E-013
   106.685000000000        -6.302320167949548E-013
   106.875000000000        -6.129632165496118E-013
   107.065000000000        -5.831285997602105E-013
   107.255000000000        -5.398871702682316E-013
   107.445000000000        -4.979048880913839E-013
   107.635000000000        -4.562941017219997E-013
   107.825000000000        -4.185633702926744E-013
   108.015000000000        -3.856796439316653E-013
   108.205000000000        -3.490200496542960E-013
   108.395000000000        -2.926087807152808E-013
   108.585000000000        -2.281464347942308E-013
   108.775000000000        -1.837644523720838E-013
   108.965000000000        -1.495039278445093E-013
   109.155000000000        -1.386308931694890E-013
   109.345000000000        -1.300782711077242E-013
   109.535000000000        -1.330979160505872E-013
   109.725000000000        -1.398974021829707E-013
   109.915000000000        -1.522213448776181E-013
   110.105000000000        -1.765459702384566E-013