  -1.42500000000000         0.000000000000000E+000
  -1.23500000000000        -2.365108154379705E-020
  -1.04500000000000        -8.962114020467302E-018
 -0.855000000000000        -7.720782832491328E-017
 -0.665000000000000        -4.348906999429631E-016
 -0.475000000000000        -1.833271267028626E-015
 -0.285000000000000        -6.321863265667775E-015
 -9.499999999999975E-002   -2.003794533532160E-014
  9.500000000000020E-002   -5.374000669837324E-014
  0.285000000000000        -1.257416164607476E-013
  0.475000000000000        -2.651846705972672E-013
  0.665000000000000        -5.153958518350367E-013
  0.855000000000000        -9.243751064023221E-013
   1.04500000000000        -1.526420334923549E-012
   1.23500000000000        -2.366950620082871E-012
   1.42500000000000        -3.518112226033634E-012
   1.61500000000000        -5.001534112376922E-012
   1.80500000000000        -6.831223937386246E-012
   1.99500000000000        -9.001007880067068E-012
   2.18500000000000        -1.149176378204276E-011
   2.37500000000000        -1.427584517603991E-011
   2.56500000000000        -1.732140703252964E-011
   2.75500000000000        -2.059798778531536E-011
   2.94500000000000        -2.408688023636490E-011
   3.13500000000000        -2.776128542081726E-011
   3.32500000000000        -3.162379858407455E-011
   3.51500000000000        -3.566696223869874E-011
   3.70500000000000        -3.985529241648667E-011
   3.89500000000000        -4.417879122866452E-011
   4.08500000000000        -4.862679666029730E-011
   4.27500000000000        -5.318889452411271E-011
   4.46500000000000        -5.785930988468858E-011
   4.65500000000000        -6.263979047917364E-011
   4.84500000000000        -6.755215650333831E-011
   5.03500000000000        -7.261763457794081E-011
   5.22500000000000        -7.785750559190813E-011
   5.41500000000000        -8.327517397851586E-011
   5.60500000000000        -8.885718124476361E-011
   5.79500000000000        -9.458546248817132E-011
   5.98500000000000        -1.004274394946037E-010
   6.17500000000000        -1.063703282960139E-010
   6.36500000000000        -1.124185698407719E-010
   6.55500000000000        -1.185813090724977E-010
   6.74500000000000        -1.248535171493522E-010
   6.93500000000000        -1.312563758935585E-010
   7.12500000000000        -1.378049195324155E-010
   7.31500000000000        -1.445580659425868E-010
   7.50500000000000        -1.515665804828628E-010
   7.69500000000000        -1.588775553226351E-010
   7.88500000000000        -1.665409345925633E-010
   8.07500000000000        -1.745940791760884E-010
   8.26500000000000        -1.830663228884133E-010
   8.45500000000000        -1.919960930424754E-010
   8.64500000000000        -2.014078751730012E-010
   8.83500000000000        -2.112822013794048E-010
   9.02500000000000        -2.215812543746270E-010
   9.21500000000000        -2.322953144538882E-010
   9.40500000000000        -2.433296026655131E-010
   9.59500000000000        -2.546173954079538E-010
   9.78500000000000        -2.660779987268896E-010
   9.97500000000000        -2.776987962541161E-010
   10.1650000000000        -2.893589565945164E-010
   10.3550000000000        -3.010420760083293E-010
   10.5450000000000        -3.126559908483164E-010
   10.7350000000000        -3.241837291131589E-010
   10.9250000000000        -3.356473962759508E-010
   11.1150000000000        -3.470468570527709E-010
   11.3050000000000        -3.583821590198344E-010
   11.4950000000000        -3.696717414072904E-010
   11.6850000000000        -3.809507703206936E-010
   11.8750000000000        -3.922591995912282E-010
   12.0650000000000        -4.036297993357647E-010
   12.2550000000000        -4.150950123906643E-010
   12.4450000000000        -4.266773241187479E-010
   12.6350000000000        -4.384041813621854E-010
   12.8250000000000        -4.502705160087322E-010
   13.0150000000000        -4.622790497328392E-010
   13.2050000000000        -4.744169144784240E-010
   13.3950000000000        -4.866638454541070E-010
   13.5850000000000        -4.989965635562823E-010
   13.7750000000000        -5.113921967508322E-010
   13.9650000000000        -5.238316171706303E-010
   14.1550000000000        -5.362952514758732E-010
   14.3450000000000        -5.488023291793411E-010
   14.5350000000000        -5.613436237922619E-010
   14.7250000000000        -5.739279004626347E-010
   14.9150000000000        -5.865798692773795E-010
   15.1050000000000        -5.993502835682906E-010
   15.2950000000000        -6.122740999861911E-010
   15.4850000000000        -6.253627031681433E-010
   15.6750000000000        -6.386184665027240E-010
   15.8650000000000        -6.520795964563243E-010
   16.0550000000000        -6.657615334465185E-010
   16.2450000000000        -6.796722137270066E-010
   16.4350000000000        -6.938237888290770E-010
   16.6250000000000        -7.082305928941450E-010
   16.8150000000000        -7.228981893735218E-010
   17.0050000000000        -7.378311914998178E-010
   17.1950000000000        -7.530246158813907E-010
   17.3850000000000        -7.684828331513236E-010
   17.5750000000000        -7.842077318048554E-010
   17.7650000000000        -8.001966773157528E-010
   17.9550000000000        -8.164487406291808E-010
   18.1450000000000        -8.329637875831042E-010
   18.3350000000000        -8.497395903934673E-010
   18.5250000000000        -8.667727010370267E-010
   18.7150000000000        -8.840589527354523E-010
   18.9050000000000        -9.016010176170682E-010
   19.0950000000000        -9.194098400331130E-010
   19.2850000000000        -9.374939858878013E-010
   19.4750000000000        -9.558636148223726E-010
   19.6650000000000        -9.745206501798949E-010
   19.8550000000000        -9.934619773331918E-010
   20.0450000000000        -1.012681076574546E-009
   20.2350000000000        -1.032159910559581E-009
   20.4250000000000        -1.051873924692648E-009
   20.6150000000000        -1.071799683458256E-009
   20.8050000000000        -1.091911214428991E-009
   20.9950000000000        -1.112191380152997E-009
   21.1850000000000        -1.132628398390505E-009
   21.3750000000000        -1.153236299124458E-009
   21.5650000000000        -1.174001297065481E-009
   21.7550000000000        -1.194934390337647E-009
   21.9450000000000        -1.216046100269363E-009
   22.1350000000000        -1.237375450132105E-009
   22.3250000000000        -1.258979195768835E-009
   22.5150000000000        -1.280856821146032E-009
   22.7050000000000        -1.303063176877512E-009
   22.8950000000000        -1.325649939199902E-009
   23.0850000000000        -1.348661966655899E-009
   23.2750000000000        -1.372124445013724E-009
   23.4650000000000        -1.396064103101338E-009
   23.6550000000000        -1.420542587860923E-009
   23.8450000000000        -1.445552677185058E-009
   24.0350000000000        -1.471085523739046E-009
   24.2250000000000        -1.497131429451720E-009
   24.4150000000000        -1.523670348353143E-009
   24.6050000000000        -1.550679520260320E-009
   24.7950000000000        -1.578166485777385E-009
   24.9850000000000        -1.606049848921043E-009
   25.1750000000000        -1.634321753321716E-009
   25.3650000000000        -1.662892289198327E-009
   25.5550000000000        -1.691726674962020E-009
   25.7450000000000        -1.720765402769281E-009
   25.9350000000000        -1.749964694476246E-009
   26.1250000000000        -1.779275512287787E-009
   26.3150000000000        -1.808693524567162E-009
   26.5050000000000        -1.838216627507907E-009
   26.6950000000000        -1.867846249830448E-009
   26.8850000000000        -1.897598288235403E-009
   27.0750000000000        -1.927494293280724E-009
   27.2650000000000        -1.957585768103743E-009
   27.4550000000000        -1.987921897450975E-009
   27.6450000000000        -2.018527500619339E-009
   27.8350000000000        -2.049420081215664E-009
   28.0250000000000        -2.080584590437830E-009
   28.2150000000000        -2.112027416790704E-009
   28.4050000000000        -2.143728581144268E-009
   28.5950000000000        -2.175637626188696E-009
   28.7850000000000        -2.207760257501771E-009
   28.9750000000000        -2.240008363515755E-009
   29.1650000000000        -2.272376001774199E-009
   29.3550000000000        -2.304733146234124E-009
   29.5450000000000        -2.337006292971692E-009
   29.7350000000000        -2.369151402922227E-009
   29.9250000000000        -2.401085777461778E-009
   30.1150000000000        -2.432729100438946E-009
   30.3050000000000        -2.463988860278808E-009
   30.4950000000000        -2.494816374761822E-009
   30.6850000000000        -2.525197123547270E-009
   30.8750000000000        -2.555137018529774E-009
   31.0650000000000        -2.584649450661822E-009
   31.2550000000000        -2.613799613385988E-009
   31.4450000000000        -2.642651806697098E-009
   31.6350000000000        -2.671228936578333E-009
   31.8250000000000        -2.699690293067496E-009
   32.0150000000000        -2.728053155264875E-009
   32.2050000000000        -2.756417516319291E-009
   32.3950000000000        -2.784917392460623E-009
   32.5850000000000        -2.813599124870799E-009
   32.7750000000000        -2.842492910683716E-009
   32.9650000000000        -2.871672084946096E-009
   33.1550000000000        -2.901147196201970E-009
   33.3450000000000        -2.930901160063834E-009
   33.5350000000000        -2.960920316505315E-009
   33.7250000000000        -2.991157580377700E-009
   33.9150000000000        -3.021541419054983E-009
   34.1050000000000        -3.051994335563328E-009
   34.2950000000000        -3.082470626766692E-009
   34.4850000000000        -3.112947539093930E-009
   34.6750000000000        -3.143421432951361E-009
   34.8650000000000        -3.173891981983188E-009
   35.0550000000000        -3.204396822923000E-009
   35.2450000000000        -3.234976814665647E-009
   35.4350000000000        -3.265707573639916E-009
   35.6250000000000        -3.296625475256379E-009
   35.8150000000000        -3.327775640876879E-009
   36.0050000000000        -3.359200158940473E-009
   36.1950000000000        -3.390947698773039E-009
   36.3850000000000        -3.423040362570265E-009
   36.5750000000000        -3.455454774513131E-009
   36.7650000000000        -3.488197044929366E-009
   36.9550000000000        -3.521266996217833E-009
   37.1450000000000        -3.554636694115290E-009
   37.3350000000000        -3.588284469603707E-009
   37.5250000000000        -3.622186142686003E-009
   37.7150000000000        -3.656323107704508E-009
   37.9050000000000        -3.690680850268268E-009
   38.0950000000000        -3.725257611955857E-009
   38.2850000000000        -3.760066884935406E-009
   38.4750000000000        -3.795151889596276E-009
   38.6650000000000        -3.830558689973106E-009
   38.8550000000000        -3.866306717565618E-009
   39.0450000000000        -3.902495839876633E-009
   39.2350000000000        -3.939196131932974E-009
   39.4250000000000        -3.976468356887145E-009
   39.6150000000000        -4.014352569348492E-009
   39.8050000000000        -4.052932941956224E-009
   39.9950000000000        -4.092260569555446E-009
   40.1850000000000        -4.132390837230264E-009
   40.3750000000000        -4.173361065567210E-009
   40.5650000000000        -4.215151761172900E-009
   40.7550000000000        -4.257757205130149E-009
   40.9450000000000        -4.301140164391260E-009
   41.1350000000000        -4.345208922202316E-009
   41.3250000000000        -4.389942688431221E-009
   41.5150000000000        -4.435271962831070E-009
   41.7050000000000        -4.481087795611988E-009
   41.8950000000000        -4.527310216937279E-009
   42.0850000000000        -4.573837240472704E-009
   42.2750000000000        -4.620589710704775E-009
   42.4650000000000        -4.667502001072673E-009
   42.6550000000000        -4.714513190128814E-009
   42.8450000000000        -4.761597544224671E-009
   43.0350000000000        -4.808702268366356E-009
   43.2250000000000        -4.855768047839649E-009
   43.4150000000000        -4.902693426895414E-009
   43.6050000000000        -4.949459167464159E-009
   43.7950000000000        -4.996080141136070E-009
   43.9850000000000        -5.042536111698199E-009
   44.1750000000000        -5.088825890404480E-009
   44.3650000000000        -5.134968062467384E-009
   44.5550000000000        -5.181029531437982E-009
   44.7450000000000        -5.227101240916781E-009
   44.9350000000000        -5.273223058705712E-009
   45.1250000000000        -5.319421087088328E-009
   45.3150000000000        -5.365809073272382E-009
   45.5050000000000        -5.412430247994591E-009
   45.6950000000000        -5.459358792814760E-009
   45.8850000000000        -5.506696557478912E-009
   46.0750000000000        -5.554482429009828E-009
   46.2650000000000        -5.602753927860058E-009
   46.4550000000000        -5.651508553214849E-009
   46.6450000000000        -5.700728183039066E-009
   46.8350000000000        -5.750337962360824E-009
   47.0250000000000        -5.800322514536977E-009
   47.2150000000000        -5.850584383676822E-009
   47.4050000000000        -5.901038067653241E-009
   47.5950000000000        -5.951610853975081E-009
   47.7850000000000        -6.002240707372396E-009
   47.9750000000000        -6.052908957955355E-009
   48.1650000000000        -6.103567835786707E-009
   48.3550000000000        -6.154110528718036E-009
   48.5450000000000        -6.204549837779999E-009
   48.7350000000000        -6.254816652856535E-009
   48.9250000000000        -6.304900557152150E-009
   49.1150000000000        -6.354830306063726E-009
   49.3050000000000        -6.404626544280706E-009
   49.4950000000000        -6.454390814043132E-009
   49.6850000000000        -6.504135941234596E-009
   49.8750000000000        -6.554008532293900E-009
   50.0650000000000        -6.604020582596553E-009
   50.2550000000000        -6.654305357559125E-009
   50.4450000000000        -6.704959222425695E-009
   50.6350000000000        -6.756104503517535E-009
   50.8250000000000        -6.807798900389150E-009
   51.0150000000000        -6.860031144988255E-009
   51.2050000000000        -6.912815062238729E-009
   51.3950000000000        -6.966153696745612E-009
   51.5850000000000        -7.019969305693853E-009
   51.7750000000000        -7.074206480116523E-009
   51.9650000000000        -7.128741387404551E-009
   52.1550000000000        -7.183555985996275E-009
   52.3450000000000        -7.238562132485299E-009
   52.5350000000000        -7.293687241217097E-009
   52.7250000000000        -7.348848081692466E-009
   52.9150000000000        -7.403962727580602E-009
   53.1050000000000        -7.459034933791081E-009
   53.2950000000000        -7.514059143317377E-009
   53.4850000000000        -7.569078861852854E-009
   53.6750000000000        -7.624117376456910E-009
   53.8650000000000        -7.679229674150823E-009
   54.0550000000000        -7.734468670970704E-009
   54.2450000000000        -7.789894793646748E-009
   54.4350000000000        -7.845569348623717E-009
   54.6250000000000        -7.901552236444077E-009
   54.8150000000000        -7.957904935797189E-009
   55.0050000000000        -8.014645966536975E-009
   55.1950000000000        -8.071788882560746E-009
   55.3850000000000        -8.129419489973733E-009
   55.5750000000000        -8.187557987851764E-009
   55.7650000000000        -8.246185177654271E-009
   55.9550000000000        -8.305289821228946E-009
   56.1450000000000        -8.364838986407962E-009
   56.3350000000000        -8.424831471740380E-009
   56.5250000000000        -8.485201061831139E-009
   56.7150000000000        -8.545875840347367E-009
   56.9050000000000        -8.606803109951968E-009
   57.0950000000000        -8.667942721311531E-009
   57.2850000000000        -8.729287887692461E-009
   57.4750000000000        -8.790786275218908E-009
   57.6650000000000        -8.852407765706939E-009
   57.8550000000000        -8.914146867239082E-009
   58.0450000000000        -8.976011514735371E-009
   58.2350000000000        -9.037993771859120E-009
   58.4250000000000        -9.100107357878653E-009
   58.6150000000000        -9.162383392719046E-009
   58.8050000000000        -9.224833014542035E-009
   58.9950000000000        -9.287472247542539E-009
   59.1850000000000        -9.350320148442817E-009
   59.3750000000000        -9.413391209491492E-009
   59.5650000000000        -9.476696420411795E-009
   59.7550000000000        -9.540238338801280E-009
   59.9450000000000        -9.604019303499153E-009
   60.1350000000000        -9.668033922068411E-009
   60.3250000000000        -9.732261510140769E-009
   60.5150000000000        -9.796656920611281E-009
   60.7050000000000        -9.861176436013189E-009
   60.8950000000000        -9.925796130761421E-009
   61.0850000000000        -9.990511346933659E-009
   61.2750000000000        -1.005527655200661E-008
   61.4650000000000        -1.012002153756021E-008
   61.6550000000000        -1.018470244169395E-008
   61.8450000000000        -1.024929226759580E-008
   62.0350000000000        -1.031376535365754E-008
   62.2250000000000        -1.037810195418972E-008
   62.4150000000000        -1.044224818049325E-008
   62.6050000000000        -1.050618759392926E-008
   62.7950000000000        -1.056993624132262E-008
   62.9850000000000        -1.063349711426182E-008
   63.1750000000000        -1.069687763691932E-008
   63.3650000000000        -1.076009356193904E-008
   63.5550000000000        -1.082317342462775E-008
   63.7450000000000        -1.088616741975127E-008
   63.9350000000000        -1.094911962190686E-008
   64.1250000000000        -1.101205839175085E-008
   64.3150000000000        -1.107500929678863E-008
   64.5050000000000        -1.113800397964878E-008
   64.6950000000000        -1.120107676512124E-008
   64.8850000000000        -1.126422658882441E-008
   65.0750000000000        -1.132751947295464E-008
   65.2650000000000        -1.139097750010843E-008
   65.4550000000000        -1.145462686769586E-008
   65.6450000000000        -1.151849023452538E-008
   65.8350000000000        -1.158258210487160E-008
   66.0250000000000        -1.164691302782100E-008
   66.2150000000000        -1.171147567031006E-008
   66.4050000000000        -1.177626479683526E-008
   66.5950000000000        -1.184128583937456E-008
   66.7850000000000        -1.190655338542262E-008
   66.9750000000000        -1.197206687228204E-008
   67.1650000000000        -1.203783330635248E-008
   67.3550000000000        -1.210385550611505E-008
   67.5450000000000        -1.217012917969205E-008
   67.7350000000000        -1.223664223599810E-008
   67.9250000000000        -1.230337283283005E-008
   68.1150000000000        -1.237028989371902E-008
   68.3050000000000        -1.243737537644625E-008
   68.4950000000000        -1.250460810222484E-008
   68.6850000000000        -1.257197997009003E-008
   68.8750000000000        -1.263950022984238E-008
   69.0650000000000        -1.270718505606337E-008
   69.2550000000000        -1.277505846111819E-008
   69.4450000000000        -1.284314491678860E-008
   69.6350000000000        -1.291147789912370E-008
   69.8250000000000        -1.298009401413262E-008
   70.0150000000000        -1.304899568923843E-008
   70.2050000000000        -1.311821421339118E-008
   70.3950000000000        -1.318776384812536E-008
   70.5850000000000        -1.325768821327818E-008
   70.7750000000000        -1.332802235955894E-008
   70.9650000000000        -1.339882012032874E-008
   71.1550000000000        -1.347012396813993E-008
   71.3450000000000        -1.354192932184371E-008
   71.5350000000000        -1.361432270617350E-008
   71.7250000000000        -1.368729659549899E-008
   71.9150000000000        -1.376085977642699E-008
   72.1050000000000        -1.383508130861254E-008
   72.2950000000000        -1.390993064336432E-008
   72.4850000000000        -1.398540607596805E-008
   72.6750000000000        -1.406150793411401E-008
   72.8650000000000        -1.413823485787824E-008
   73.0550000000000        -1.421557058155832E-008
   73.2450000000000        -1.429349877736203E-008
   73.4350000000000        -1.437198298863441E-008
   73.6250000000000        -1.445095753851864E-008
   73.8150000000000        -1.453035850318574E-008
   74.0050000000000        -1.461015875165310E-008
   74.1950000000000        -1.469032326005006E-008
   74.3850000000000        -1.477075853554526E-008
   74.5750000000000        -1.485139413538957E-008
   74.7650000000000        -1.493216972853368E-008
   74.9550000000000        -1.501303045072757E-008
   75.1450000000000        -1.509395801780143E-008
   75.3350000000000        -1.517495791129808E-008
   75.5250000000000        -1.525600388685572E-008
   75.7150000000000        -1.533704793611044E-008
   75.9050000000000        -1.541810882224402E-008
   76.0950000000000        -1.549919601890391E-008
   76.2850000000000        -1.558034253024456E-008
   76.4750000000000        -1.566159194623247E-008
   76.6650000000000        -1.574297379662517E-008
   76.8550000000000        -1.582449396085598E-008
   77.0450000000000        -1.590613765786903E-008
   77.2350000000000        -1.598789811984209E-008
   77.4250000000000        -1.606972637921037E-008
   77.6150000000000        -1.615162198937597E-008
   77.8050000000000        -1.623348652218325E-008
   77.9950000000000        -1.631526704975327E-008
   78.1850000000000        -1.639689139859210E-008
   78.3750000000000        -1.647829102092006E-008
   78.5650000000000        -1.655942546709307E-008
   78.7550000000000        -1.664027464194537E-008
   78.9450000000000        -1.672078266343654E-008
   79.1350000000000        -1.680096762576589E-008
   79.3250000000000        -1.688082869570901E-008
   79.5150000000000        -1.696037842843415E-008
   79.7050000000000        -1.703965058497857E-008
   79.8950000000000        -1.711872984983729E-008
   80.0850000000000        -1.719768440735252E-008
   80.2750000000000        -1.727653430769414E-008
   80.4650000000000        -1.735536881429646E-008
   80.6550000000000        -1.743419573786240E-008
   80.8450000000000        -1.751312382190837E-008
   81.0350000000000        -1.759223291097866E-008
   81.2250000000000        -1.767160429167236E-008
   81.4150000000000        -1.775129603659307E-008
   81.6050000000000        -1.783144819760329E-008
   81.7950000000000        -1.791212981691178E-008
   81.9850000000000        -1.799339094283555E-008
   82.1750000000000        -1.807523456766990E-008
   82.3650000000000        -1.815764487476408E-008
   82.5550000000000        -1.824055954888797E-008
   82.7450000000000        -1.832392130758948E-008
   82.9350000000000        -1.840765425452925E-008
   83.1250000000000        -1.849166097376442E-008
   83.3150000000000        -1.857588451888694E-008
   83.5050000000000        -1.866028695765923E-008
   83.6950000000000        -1.874487390606775E-008
   83.8850000000000        -1.882955688323614E-008
   84.0750000000000        -1.891436977148833E-008
   84.2650000000000        -1.899929199613931E-008
   84.4550000000000        -1.908430583626995E-008
   84.6450000000000        -1.916940616753678E-008
   84.8350000000000        -1.925459538856200E-008
   85.0250000000000        -1.933988025528239E-008
   85.2150000000000        -1.942528284897710E-008
   85.4050000000000        -1.951083563513359E-008
   85.5950000000000        -1.959658363332100E-008
   85.7850000000000        -1.968255559442028E-008
   85.9750000000000        -1.976876874100316E-008
   86.1650000000000        -1.985527669448685E-008
   86.3550000000000        -1.994210738176387E-008
   86.5450000000000        -2.002926891249748E-008
   86.7350000000000        -2.011678379774916E-008
   86.9250000000000        -2.020467179925694E-008
   87.1150000000000        -2.029295142167142E-008
   87.3050000000000        -2.038165168711778E-008
   87.4950000000000        -2.047079594752631E-008
   87.6850000000000        -2.056041570203367E-008
   87.8750000000000        -2.065053035556596E-008
   88.0650000000000        -2.074111543229423E-008
   88.2550000000000        -2.083216519487435E-008
   88.4450000000000        -2.092367808436175E-008
   88.6350000000000        -2.101565041398432E-008
   88.8250000000000        -2.110807809910949E-008
   89.0150000000000        -2.120094873766106E-008
   89.2050000000000        -2.129423033683386E-008
   89.3950000000000        -2.138786706826350E-008
   89.5850000000000        -2.148185545105230E-008
   89.7750000000000        -2.157613261786770E-008
   89.9650000000000        -2.167067969858358E-008
   90.1550000000000        -2.176548038959515E-008
   90.3450000000000        -2.186050020650568E-008
   90.5350000000000        -2.195569087059199E-008
   90.7250000000000        -2.205101704337152E-008
   90.9150000000000        -2.214643367999813E-008
   91.1050000000000        -2.224190574312676E-008
   91.2950000000000        -2.233739231144988E-008
   91.4850000000000        -2.243286743797662E-008
   91.6750000000000        -2.252830437455912E-008
   91.8650000000000        -2.262369413728754E-008
   92.0550000000000        -2.271899446390197E-008
   92.2450000000000        -2.281416588734221E-008
   92.4350000000000        -2.290920924452988E-008
   92.6250000000000        -2.300411808822855E-008
   92.8150000000000        -2.309886946530214E-008
   93.0050000000000        -2.319344782821890E-008
   93.1950000000000        -2.328785355764792E-008
   93.3850000000000        -2.338212381147646E-008
   93.5750000000000        -2.347632207266539E-008
   93.7650000000000        -2.357045418988235E-008
   93.9550000000000        -2.366464005971354E-008
   94.1450000000000        -2.375893730000968E-008
   94.3350000000000        -2.385340488500108E-008
   94.5250000000000        -2.394808303162368E-008
   94.7150000000000        -2.404298840889239E-008
   94.9050000000000        -2.413812022803755E-008
   95.0950000000000        -2.423351175489098E-008
   95.2850000000000        -2.432922850087408E-008
   95.4750000000000        -2.442528722903067E-008
   95.6650000000000        -2.452167257436792E-008
   95.8550000000000        -2.461842429092971E-008
   96.0450000000000        -2.471553717750211E-008
   96.2350000000000        -2.481300484404122E-008
   96.4250000000000        -2.491080758228292E-008
   96.6150000000000        -2.500891434416154E-008
   96.8050000000000        -2.510728161046980E-008
   96.9950000000000        -2.520585556854689E-008
   97.1850000000000        -2.530459817657626E-008
   97.3750000000000        -2.540348334365184E-008
   97.5650000000000        -2.550251574799763E-008
   97.7550000000000        -2.560169350545943E-008
   97.9450000000000        -2.570103721789297E-008
   98.1350000000000        -2.580057748790153E-008
   98.3250000000000        -2.590034288437619E-008
   98.5150000000000        -2.600035116593733E-008
   98.7050000000000        -2.610060737841592E-008
   98.8950000000000        -2.620110587214537E-008
   99.0850000000000        -2.630182544710810E-008
   99.2750000000000        -2.640272772512145E-008
   99.4650000000000        -2.650376085402122E-008
   99.6550000000000        -2.660489324089822E-008
   99.8450000000000        -2.670603294175968E-008
   100.035000000000        -2.680711975236562E-008
   100.225000000000        -2.690811064443280E-008
   100.415000000000        -2.700895235909331E-008
   100.605000000000        -2.710956446964381E-008
   100.795000000000        -2.720986318844880E-008
   100.985000000000        -2.730970435279583E-008
   101.175000000000        -2.740905163643932E-008
   101.365000000000        -2.750785963855551E-008
   101.555000000000        -2.760607109482508E-008
   101.745000000000        -2.770369524410354E-008
   101.935000000000        -2.780077482397065E-008
   102.125000000000        -2.789743021331283E-008
   102.315000000000        -2.799377082306268E-008
   102.505000000000        -2.808987902301188E-008
   102.695000000000        -2.818586972275928E-008
   102.885000000000        -2.828186124706000E-008
   103.075000000000        -2.837797348151877E-008
   103.265000000000        -2.847430529499740E-008
   103.455000000000        -2.857098081683643E-008
   103.645000000000        -2.866801714925575E-008
   103.835000000000        -2.876552450363806E-008
   104.025000000000        -2.886351849895691E-008
   104.215000000000        -2.896203559910860E-008
   104.405000000000        -2.906104407217857E-008
   104.595000000000        -2.916054555315186E-008
   104.785000000000        -2.926052652925441E-008
   104.975000000000        -2.936095126876937E-008
   105.165000000000        -2.946177118571533E-008
   105.355000000000        -2.956294857307246E-008
   105.545000000000        -2.966445375084028E-008
   105.735000000000        -2.976625914922015E-008
   105.925000000000        -2.986834026061789E-008
   106.115000000000        -2.997068234384147E-008
   106.305000000000        -3.007328470700497E-008
   106.495000000000        -3.017612144355391E-008
   106.685000000000        -3.027920279025505E-008
   106.875000000000        -3.038249790085404E-008
   107.065000000000        -3.048600971451922E-008
   107.255000000000        -3.058971590742034E-008
   107.445000000000        -3.069360600957201E-008
   107.635000000000        -3.079766796508587E-008
   107.825000000000        -3.090189303365499E-008
   108.015000000000        -3.100627749841936E-008
   108.205000000000        -3.111082336944016E-008
   108.395000000000        -3.121553310591482E-008
   108.585000000000        -3.132040034933390E-008
   108.775000000000        -3.142541002083778E-008
   108.965000000000        -3.153054568462981E-008
   109.155000000000        -3.163578295555019E-008
   109.345000000000        -3.174110619420478E-008
   109.535000000000        -3.184649089388429E-008
   109.725000000000        -3.195192336369342E-008
   109.915000000000        -3.205739353675650E-008
   110.105000000000        -3.216290074663420E-008