  -1.42500000000000        -6.551546134015803E-019
  -1.23500000000000        -2.469476968803243E-016
  -1.04500000000000        -1.642860148629432E-015
 -0.855000000000000        -8.017649787080440E-015
 -0.665000000000000        -2.882819101018320E-014
 -0.475000000000000        -8.560142469677244E-014
 -0.285000000000000        -2.556091432414038E-013
 -9.499999999999975E-002   -5.536282352741777E-013
  9.500000000000020E-002   -1.060929318540794E-012
  0.285000000000000        -1.868184054685463E-012
  0.475000000000000        -3.068369171779783E-012
  0.665000000000000        -4.398007571454730E-012
  0.855000000000000        -5.348087921161816E-012
   1.04500000000000        -6.606234255902897E-012
   1.23500000000000        -8.604745728294743E-012
   1.42500000000000        -9.203885883449519E-012
   1.61500000000000        -9.591909658338853E-012
   1.80500000000000        -9.420889686191168E-012
   1.99500000000000        -8.891190008168034E-012
   2.18500000000000        -8.125359889791160E-012
   2.37500000000000        -7.243226107827828E-012
   2.56500000000000        -6.399415409861111E-012
   2.75500000000000        -5.881210478221869E-012
   2.94500000000000        -5.138856880965031E-012
   3.13500000000000        -5.210747335316365E-012
   3.32500000000000        -5.004168735925295E-012
   3.51500000000000        -4.021233328635324E-012
   3.70500000000000        -3.744283501105944E-012
   3.89500000000000        -3.448936827006275E-012
   4.08500000000000        -3.160455185114363E-012
   4.27500000000000        -3.000484674804778E-012
   4.46500000000000        -3.048898446238529E-012
   4.65500000000000        -3.653336002204654E-012
   4.84500000000000        -4.241331037059287E-012
   5.03500000000000        -4.830829345285610E-012
   5.22500000000000        -4.925134976189156E-012
   5.41500000000000        -4.552323535733664E-012
   5.60500000000000        -4.051910724654505E-012
   5.79500000000000        -3.149467119796087E-012
   5.98500000000000        -2.795340581103063E-012
   6.17500000000000        -2.918358541489012E-012
   6.36500000000000        -3.171681079441232E-012
   6.55500000000000        -3.032377981404281E-012
   6.74500000000000        -3.619132059607435E-012
   6.93500000000000        -4.035592649604648E-012
   7.12500000000000        -5.667666795407101E-012
   7.31500000000000        -7.073909421185513E-012
   7.50500000000000        -8.378401648097621E-012
   7.69500000000000        -9.761895572184579E-012
   7.88500000000000        -1.079682309132801E-011
   8.07500000000000        -1.160939414957625E-011
   8.26500000000000        -1.267386265200059E-011
   8.45500000000000        -1.335213231201356E-011
   8.64500000000000        -1.281285528747348E-011
   8.83500000000000        -1.176528500882902E-011
   9.02500000000000        -1.149604110911025E-011
   9.21500000000000        -8.870585384033152E-012
   9.40500000000000        -7.022286172186185E-012
   9.59500000000000        -4.786996578817868E-012
   9.78500000000000        -4.437512695024559E-012
   9.97500000000000        -1.090382636396937E-012
   10.1650000000000        -6.359854130900624E-013
   10.3550000000000         1.917024205698727E-012
   10.5450000000000         2.387162746388497E-012
   10.7350000000000         1.774822771490410E-012
   10.9250000000000         1.778570248521819E-012
   11.1150000000000         1.777252347830479E-012
   11.3050000000000         1.266470349230597E-012
   11.4950000000000         2.923400014682762E-013
   11.6850000000000        -8.144143249686363E-013
   11.8750000000000        -1.722173795067276E-012
   12.0650000000000        -2.620867323076803E-012
   12.2550000000000        -3.243730559116880E-012
   12.4450000000000        -4.004030896228722E-012
   12.6350000000000        -3.863639975322917E-012
   12.8250000000000        -3.939032619400334E-012
   13.0150000000000        -3.582576772236099E-012
   13.2050000000000        -3.021225210477475E-012
   13.3950000000000        -2.376374695075847E-012
   13.5850000000000        -1.742800342788277E-012
   13.7750000000000        -1.212942527649518E-012
   13.9650000000000        -6.707447491633578E-013
   14.1550000000000        -1.203418233387444E-012
   14.3450000000000        -9.478368269342517E-013
   14.5350000000000        -1.190638710600234E-012
   14.7250000000000        -1.875128652952078E-012
   14.9150000000000        -3.281038120954040E-012
   15.1050000000000        -4.249366398600097E-012
   15.2950000000000        -4.564730306140492E-012
   15.4850000000000        -4.630475142056174E-012
   15.6750000000000        -5.688826011629635E-012
   15.8650000000000        -6.116538409805901E-012
   16.0550000000000        -6.336379232511283E-012
   16.2450000000000        -6.672986747434897E-012
   16.4350000000000        -7.070054376663945E-012
   16.6250000000000        -7.224166601353806E-012
   16.8150000000000        -7.351956978370388E-012
   17.0050000000000        -7.213912888558785E-012
   17.1950000000000        -7.334983057060149E-012
   17.3850000000000        -7.387295944569709E-012
   17.5750000000000        -7.314317378546200E-012
   17.7650000000000        -7.288581787556884E-012
   17.9550000000000        -7.284865387685032E-012
   18.1450000000000        -7.223153917992205E-012
   18.3350000000000        -7.127640808762463E-012
   18.5250000000000        -7.012217586321854E-012
   18.7150000000000        -7.086237761506158E-012
   18.9050000000000        -7.389405385844081E-012
   19.0950000000000        -7.626688051058490E-012
   19.2850000000000        -7.908118556318865E-012
   19.4750000000000        -7.961396757646499E-012
   19.6650000000000        -7.875118996520695E-012
   19.8550000000000        -7.694517674723587E-012
   20.0450000000000        -7.194868245996772E-012
   20.2350000000000        -6.514685541062646E-012
   20.4250000000000        -5.865502286446431E-012
   20.6150000000000        -5.146044463376318E-012
   20.8050000000000        -4.671322805262939E-012
   20.9950000000000        -4.344944972370678E-012
   21.1850000000000        -4.733587159132231E-012
   21.3750000000000        -4.351723187534473E-012
   21.5650000000000        -4.656380364058623E-012
   21.7550000000000        -4.947829904482160E-012
   21.9450000000000        -6.028806953581751E-012
   22.1350000000000        -7.600990969192918E-012
   22.3250000000000        -7.586696411877166E-012
   22.5150000000000        -9.106103996708289E-012
   22.7050000000000        -1.053757869558006E-011
   22.8950000000000        -1.178019760686007E-011
   23.0850000000000        -1.247786431655559E-011
   23.2750000000000        -1.321827506339339E-011
   23.4650000000000        -1.492594659200052E-011
   23.6550000000000        -1.472588821469897E-011
   23.8450000000000        -1.448080969120255E-011
   24.0350000000000        -1.421216506055722E-011
   24.2250000000000        -1.365687503459962E-011
   24.4150000000000        -1.302639905135770E-011
   24.6050000000000        -1.323528005227113E-011
   24.7950000000000        -1.098054367297531E-011
   24.9850000000000        -1.076291570679971E-011
   25.1750000000000        -8.272340053630759E-012
   25.3650000000000        -7.308861138043869E-012
   25.5550000000000        -5.660444420151848E-012
   25.7450000000000        -4.447753454423240E-012
   25.9350000000000        -3.089365777710722E-012
   26.1250000000000        -2.969375840285611E-012
   26.3150000000000        -2.911098652908802E-012
   26.5050000000000        -2.950675396000695E-012
   26.6950000000000        -3.391027213714656E-012
   26.8850000000000        -3.987995577953766E-012
   27.0750000000000        -5.414675282511233E-012
   27.2650000000000        -6.777133634740558E-012
   27.4550000000000        -7.464648784777874E-012
   27.6450000000000        -7.949513239962426E-012
   27.8350000000000        -7.532648915225469E-012
   28.0250000000000        -7.709615809101164E-012
   28.2150000000000        -7.156177304437684E-012
   28.4050000000000        -5.758467890970929E-012
   28.5950000000000        -5.916517137030778E-012
   28.7850000000000        -3.475753487763045E-012
   28.9750000000000        -3.311142505830146E-012
   29.1650000000000         2.906869395675518E-013
   29.3550000000000         2.326806713503375E-012
   29.5450000000000         3.546725402571824E-012
   29.7350000000000         5.837546010664847E-012
   29.9250000000000         8.062370149082538E-012
   30.1150000000000         1.062501765391817E-011
   30.3050000000000         1.197355559133223E-011
   30.4950000000000         1.237578109605884E-011
   30.6850000000000         1.221201670202056E-011
   30.8750000000000         1.184107618989959E-011
   31.0650000000000         1.003516365329437E-011
   31.2550000000000         8.254000361585890E-012
   31.4450000000000         7.619485592194076E-012
   31.6350000000000         3.207019170897494E-012
   31.8250000000000         2.728373733653292E-012
   32.0150000000000        -4.151958549406236E-014
   32.2050000000000        -3.753880523992971E-012
   32.3950000000000        -5.037569774102671E-012
   32.5850000000000        -5.874055477593049E-012
   32.7750000000000        -7.905497215002935E-012
   32.9650000000000        -8.197700650817654E-012
   33.1550000000000        -7.724448919377749E-012
   33.3450000000000        -7.346054837075728E-012
   33.5350000000000        -6.041757088726180E-012
   33.7250000000000        -4.060243902989764E-012
   33.9150000000000        -1.913513325830612E-012
   34.1050000000000        -6.474984769516365E-013
   34.2950000000000        -1.720564750877090E-014
   34.4850000000000         8.361412210025907E-014
   34.6750000000000         9.265444887487428E-014
   34.8650000000000        -9.499143486620267E-013
   35.0550000000000        -2.081739690714028E-012
   35.2450000000000        -4.176377607192715E-012
   35.4350000000000        -5.184006709062754E-012
   35.6250000000000        -6.433905928932027E-012
   35.8150000000000        -7.599790667456027E-012
   36.0050000000000        -8.947971439672934E-012
   36.1950000000000        -9.560220627718666E-012
   36.3850000000000        -8.912691014949360E-012
   36.5750000000000        -9.081952170864699E-012
   36.7650000000000        -9.077032471815281E-012
   36.9550000000000        -8.303230165858350E-012
   37.1450000000000        -7.702980359094064E-012
   37.3350000000000        -7.033174345653454E-012
   37.5250000000000        -6.517782166444394E-012
   37.7150000000000        -6.115721475208720E-012
   37.9050000000000        -6.067011740434759E-012
   38.0950000000000        -6.440756009952666E-012
   38.2850000000000        -7.637996712488712E-012
   38.4750000000000        -8.914008752361178E-012
   38.6650000000000        -9.452277442741251E-012
   38.8550000000000        -1.221869026321044E-011
   39.0450000000000        -1.415982674032587E-011
   39.2350000000000        -1.584301656038564E-011
   39.4250000000000        -1.695256252572136E-011
   39.6150000000000        -1.928421458119179E-011
   39.8050000000000        -2.069958425184920E-011
   39.9950000000000        -2.223379710797602E-011
   40.1850000000000        -2.326760836910409E-011
   40.3750000000000        -2.272762517302682E-011
   40.5650000000000        -2.256920641435184E-011
   40.7550000000000        -2.153782005157397E-011
   40.9450000000000        -1.899718974919752E-011
   41.1350000000000        -1.842128581300550E-011
   41.3250000000000        -1.649607121720228E-011
   41.5150000000000        -1.347807149787619E-011
   41.7050000000000        -1.126284056425822E-011
   41.8950000000000        -8.437734352759818E-012
   42.0850000000000        -6.245060848916448E-012
   42.2750000000000        -4.427150576970028E-012
   42.4650000000000        -2.739575851569789E-012
   42.6550000000000        -2.026732402061979E-012
   42.8450000000000        -5.642671974849966E-013
   43.0350000000000         1.078799678408575E-012
   43.2250000000000         3.889208241762460E-012
   43.4150000000000         4.422118754095271E-012
   43.6050000000000         4.010163347147996E-012
   43.7950000000000         4.570723262659798E-012
   43.9850000000000         4.603652516615554E-012
   44.1750000000000         4.088826686302119E-012
   44.3650000000000         2.235542723147404E-012
   44.5550000000000        -2.836705873043412E-013
   44.7450000000000        -1.388041831826966E-012
   44.9350000000000        -2.111096778059401E-012
   45.1250000000000        -5.261988959497749E-012
   45.3150000000000        -6.459516292360102E-012
   45.5050000000000        -8.514407145643320E-012
   45.6950000000000        -1.133572975028445E-011
   45.8850000000000        -1.241293259736639E-011
   46.0750000000000        -1.345228031338004E-011
   46.2650000000000        -1.338300566649317E-011
   46.4550000000000        -1.288101023341943E-011
   46.6450000000000        -1.080746530582632E-011
   46.8350000000000        -1.038151951238145E-011
   47.0250000000000        -7.681910351507248E-012
   47.2150000000000        -5.313430376080918E-012
   47.4050000000000        -3.299233945181428E-012
   47.5950000000000        -1.580805414761662E-012
   47.7850000000000        -1.063633951327926E-012
   47.9750000000000         2.596330084274163E-013
   48.1650000000000         3.218418283238660E-012
   48.3550000000000         2.863819095952653E-012
   48.5450000000000         4.778226743125702E-012
   48.7350000000000         5.066780634999869E-012
   48.9250000000000         4.270232244805649E-012
   49.1150000000000         3.698357191013601E-012
   49.3050000000000         8.855527577832481E-013
   49.4950000000000         5.302651236096454E-013
   49.6850000000000        -3.530855064883603E-012
   49.8750000000000        -3.863136934887414E-012
   50.0650000000000        -7.554699720705109E-012
   50.2550000000000        -1.022409706367055E-011
   50.4450000000000        -1.361263781909530E-011
   50.6350000000000        -1.521096342870250E-011
   50.8250000000000        -1.489882901631769E-011
   51.0150000000000        -1.528179089668220E-011
   51.2050000000000        -1.536612898632685E-011
   51.3950000000000        -1.321258840330034E-011
   51.5850000000000        -1.167771397315354E-011
   51.7750000000000        -8.247447793838591E-012
   51.9650000000000        -7.747681542790258E-012
   52.1550000000000        -5.306035936309797E-012
   52.3450000000000        -3.295352985408927E-012
   52.5350000000000        -9.897989908873909E-013
   52.7250000000000         1.279628455179950E-012
   52.9150000000000         1.175614339542353E-012
   53.1050000000000         1.329548038335423E-012
   53.2950000000000         1.244041778454124E-013
   53.4850000000000        -5.206667197430102E-013
   53.6750000000000        -2.043852904593391E-012
   53.8650000000000        -3.509671079371955E-012
   54.0550000000000        -5.183541722071991E-012
   54.2450000000000        -6.881781188941180E-012
   54.4350000000000        -8.541075994371338E-012
   54.6250000000000        -1.024408677968798E-011
   54.8150000000000        -1.075710212399708E-011
   55.0050000000000        -1.113255634307489E-011
   55.1950000000000        -1.350945676498210E-011
   55.3850000000000        -1.406898795131060E-011
   55.5750000000000        -1.353717242313625E-011
   55.7650000000000        -1.322586626512853E-011
   55.9550000000000        -1.231361784881663E-011
   56.1450000000000        -1.228033665922745E-011
   56.3350000000000        -1.044611518956176E-011
   56.5250000000000        -8.453973004634580E-012
   56.7150000000000        -6.994212974373008E-012
   56.9050000000000        -5.882043073721269E-012
   57.0950000000000        -5.694044913231310E-012
   57.2850000000000        -4.244353061386189E-012
   57.4750000000000        -3.410054337542414E-012
   57.6650000000000        -3.257923659532265E-012
   57.8550000000000        -3.477727538799471E-012
   58.0450000000000        -3.257884416999525E-012
   58.2350000000000        -3.637919550900488E-012
   58.4250000000000        -4.499967336897285E-012
   58.6150000000000        -4.808503672960395E-012
   58.8050000000000        -5.252387188843635E-012
   58.9950000000000        -5.780274231918067E-012
   59.1850000000000        -6.181721562240630E-012
   59.3750000000000        -6.486146028427776E-012
   59.5650000000000        -6.556993606283102E-012
   59.7550000000000        -6.621781395653540E-012
   59.9450000000000        -6.472406409604573E-012
   60.1350000000000        -5.899432218780858E-012
   60.3250000000000        -4.648819893545347E-012
   60.5150000000000        -3.437809733908291E-012
   60.7050000000000        -2.775051144758149E-012
   60.8950000000000        -2.646022825550592E-012
   61.0850000000000        -1.384734091968858E-012
   61.2750000000000         5.600974892858000E-013
   61.4650000000000         1.775108583064444E-012
   61.6550000000000         2.522942711644121E-012
   61.8450000000000         3.233790585057458E-012
   62.0350000000000         3.780762591473129E-012
   62.2250000000000         5.273524339106543E-012
   62.4150000000000         5.728888297457203E-012
   62.6050000000000         5.284377912393432E-012
   62.7950000000000         5.201508425646436E-012
   62.9850000000000         4.995852678300134E-012
   63.1750000000000         4.559491351457156E-012
   63.3650000000000         3.769039640320782E-012
   63.5550000000000         2.378602913870675E-012
   63.7450000000000         1.157699942631179E-012
   63.9350000000000         3.720861938633387E-013
   64.1250000000000        -3.361549527836764E-013
   64.3150000000000        -1.212682059922434E-012
   64.5050000000000        -2.163507266139464E-012
   64.6950000000000        -2.134023011704476E-012
   64.8850000000000        -3.962892716112294E-012
   65.0750000000000        -4.574598990637993E-012
   65.2650000000000        -5.300289020291274E-012
   65.4550000000000        -5.927956844819063E-012
   65.6450000000000        -6.329737304446668E-012
   65.8350000000000        -6.621955767220927E-012
   66.0250000000000        -6.418823812845836E-012
   66.2150000000000        -6.273796015138079E-012
   66.4050000000000        -6.424266318517278E-012
   66.5950000000000        -6.828352043408590E-012
   66.7850000000000        -6.812764857322781E-012
   66.9750000000000        -7.006847950888751E-012
   67.1650000000000        -7.084922219639326E-012
   67.3550000000000        -6.966033640625404E-012
   67.5450000000000        -6.631100527945193E-012
   67.7350000000000        -6.026053348817511E-012
   67.9250000000000        -5.165209335944208E-012
   68.1150000000000        -4.665424882209120E-012
   68.3050000000000        -4.078754885408356E-012
   68.4950000000000        -3.854351429546559E-012
   68.6850000000000        -4.110578591577030E-012
   68.8750000000000        -4.558627940151897E-012
   69.0650000000000        -5.223790410922320E-012
   69.2550000000000        -5.901679102041509E-012
   69.4450000000000        -6.828993481734455E-012
   69.6350000000000        -7.843010355181005E-012
   69.8250000000000        -7.910251991478066E-012
   70.0150000000000        -8.776981909735813E-012
   70.2050000000000        -9.172038266484317E-012
   70.3950000000000        -1.038034400688425E-011
   70.5850000000000        -1.135127778221684E-011
   70.7750000000000        -1.284250662187821E-011
   70.9650000000000        -1.401903161691016E-011
   71.1550000000000        -1.389212998889182E-011
   71.3450000000000        -1.628893700883012E-011
   71.5350000000000        -1.608047079488724E-011
   71.7250000000000        -1.632386710515261E-011
   71.9150000000000        -1.823687694085696E-011
   72.1050000000000        -1.739065280408071E-011
   72.2950000000000        -1.734343080180052E-011
   72.4850000000000        -1.735250809500035E-011
   72.6750000000000        -1.731483707150827E-011
   72.8650000000000        -1.686426359665019E-011
   73.0550000000000        -1.641197018383129E-011
   73.2450000000000        -1.540209054458642E-011
   73.4350000000000        -1.358278703216029E-011
   73.6250000000000        -1.181204384667416E-011
   73.8150000000000        -1.106049308213848E-011
   74.0050000000000        -1.009030275884276E-011
   74.1950000000000        -7.500473635520188E-012
   74.3850000000000        -5.549150944841088E-012
   74.5750000000000        -3.877930742494680E-012
   74.7650000000000        -2.358145423152054E-012
   74.9550000000000        -1.851658724977607E-012
   75.1450000000000        -2.003502016366179E-012
   75.3350000000000        -1.276511384522741E-012
   75.5250000000000         5.336019134363787E-014
   75.7150000000000        -4.663955361593311E-013
   75.9050000000000        -7.288234433383332E-013
   76.0950000000000        -1.643065949123634E-012
   76.2850000000000        -2.850544245648608E-012
   76.4750000000000        -3.668543068912332E-012
   76.6650000000000        -3.831408257642339E-012
   76.8550000000000        -3.421960727286515E-012
   77.0450000000000        -3.234486426298919E-012
   77.2350000000000        -1.878044189462981E-012
   77.4250000000000        -1.865673055474866E-012
   77.6150000000000         8.608686511073391E-013
   77.8050000000000         2.327014882908423E-012
   77.9950000000000         4.326280642217287E-012
   78.1850000000000         6.225111104471629E-012
   78.3750000000000         7.345599859857244E-012
   78.5650000000000         7.902252651463381E-012
   78.7550000000000         9.450231610396796E-012
   78.9450000000000         8.949007252398031E-012
   79.1350000000000         8.972088261255494E-012
   79.3250000000000         8.624299667001449E-012
   79.5150000000000         7.689090878857121E-012
   79.7050000000000         5.343259991492936E-012
   79.8950000000000         3.454497049785472E-012
   80.0850000000000         2.899090681349925E-012
   80.2750000000000         4.264193714179297E-013
   80.4650000000000         2.100564095608599E-013
   80.6550000000000        -2.802229363882894E-012
   80.8450000000000        -5.013989593302996E-012
   81.0350000000000        -7.265695939508355E-012
   81.2250000000000        -8.874355318606558E-012
   81.4150000000000        -1.275390829654628E-011
   81.6050000000000        -1.466643485552168E-011
   81.7950000000000        -1.605281482753999E-011
   81.9850000000000        -1.613570389410508E-011
   82.1750000000000        -1.569756952426596E-011
   82.3650000000000        -1.397138586480208E-011
   82.5550000000000        -1.238461433844392E-011
   82.7450000000000        -1.028222266626875E-011
   82.9350000000000        -7.583720094561614E-012
   83.1250000000000        -6.006257267235870E-012
   83.3150000000000        -4.955502763466284E-012
   83.5050000000000        -5.111070255734584E-012
   83.6950000000000        -2.660076450607424E-012
   83.8850000000000        -3.598644980958902E-012
   84.0750000000000        -3.028709107467834E-012
   84.2650000000000        -2.537824921245414E-012
   84.4550000000000        -2.395876349038789E-012
   84.6450000000000        -2.462320176876021E-012
   84.8350000000000        -2.649465240017344E-012
   85.0250000000000        -3.261135022958286E-012
   85.2150000000000        -4.160456004766957E-012
   85.4050000000000        -5.407535482802520E-012
   85.5950000000000        -6.203958777306149E-012
   85.7850000000000        -6.681038327009411E-012
   85.9750000000000        -8.166396144361622E-012
   86.1650000000000        -8.939994275062062E-012
   86.3550000000000        -9.164638686755022E-012
   86.5450000000000        -9.788213796765986E-012
   86.7350000000000        -1.033563036275742E-011
   86.9250000000000        -1.084822456271876E-011
   87.1150000000000        -1.165216154782043E-011
   87.3050000000000        -1.229902942285356E-011
   87.4950000000000        -1.317158168506380E-011
   87.6850000000000        -1.370911426420057E-011
   87.8750000000000        -1.303111346161021E-011
   88.0650000000000        -1.287218426190935E-011
   88.2550000000000        -1.282900020207182E-011
   88.4450000000000        -1.272687354982821E-011
   88.6350000000000        -1.261372583411152E-011
   88.8250000000000        -1.227017801663866E-011
   89.0150000000000        -1.138395072679593E-011
   89.2050000000000        -9.837458637933577E-012
   89.3950000000000        -9.741034879862343E-012
   89.5850000000000        -7.999557523377206E-012
   89.7750000000000        -7.476839348599380E-012
   89.9650000000000        -7.025215947325601E-012
   90.1550000000000        -6.069969499998438E-012
   90.3450000000000        -4.732608747676002E-012
   90.5350000000000        -3.753703413010409E-012
   90.7250000000000        -2.505923741801173E-012
   90.9150000000000        -1.535360166803667E-012
   91.1050000000000        -4.018059417011049E-013
   91.2950000000000         3.169472683859683E-013
   91.4850000000000         1.057893191919851E-012
   91.6750000000000         1.306754960945681E-012
   91.8650000000000         2.477454680984603E-012
   92.0550000000000         3.570725046909231E-012
   92.2450000000000         3.547541622466863E-012
   92.4350000000000         3.726135429308014E-012
   92.6250000000000         4.361956373411058E-012
   92.8150000000000         4.792635923371361E-012
   93.0050000000000         4.782091073130779E-012
   93.1950000000000         3.752786716734927E-012
   93.3850000000000         1.994255945163467E-012
   93.5750000000000         1.832242990530314E-012
   93.7650000000000        -1.488992083730613E-012
   93.9550000000000        -3.085054431109742E-012
   94.1450000000000        -4.718689619007460E-012
   94.3350000000000        -5.832732166041408E-012
   94.5250000000000        -6.294477731924624E-012
   94.7150000000000        -6.272628156240882E-012
   94.9050000000000        -7.194119343219164E-012
   95.0950000000000        -9.008840156504157E-012
   95.2850000000000        -9.473190401679865E-012
   95.4750000000000        -9.047567331276946E-012
   95.6650000000000        -1.014878738338195E-011
   95.8550000000000        -1.000470943492211E-011
   96.0450000000000        -9.827699908919416E-012
   96.2350000000000        -9.281764614862705E-012
   96.4250000000000        -8.421707393870144E-012
   96.6150000000000        -7.216189186815842E-012
   96.8050000000000        -5.725533762445117E-012
   96.9950000000000        -4.671743830623439E-012
   97.1850000000000        -3.949004049807505E-012
   97.3750000000000        -4.078594742875716E-012
   97.5650000000000        -4.026402105718853E-012
   97.7550000000000        -4.597090629563713E-012
   97.9450000000000        -5.444808172505429E-012
   98.1350000000000        -6.236190196598463E-012
   98.3250000000000        -6.728118739071248E-012
   98.5150000000000        -6.867892450353960E-012
   98.7050000000000        -6.711391990165513E-012
   98.8950000000000        -6.124133886291591E-012
   99.0850000000000        -5.061026332757010E-012
   99.2750000000000        -3.624678293832218E-012
   99.4650000000000        -2.749528455509259E-012
   99.6550000000000        -2.026034476970169E-013
   99.8450000000000         1.465104030997370E-012
   100.035000000000         2.657023234525642E-012
   100.225000000000         4.132338134925373E-012
   100.415000000000         6.360224653633631E-012
   100.605000000000         8.681211787536804E-012
   100.795000000000         1.267463872420605E-011
   100.985000000000         1.368090591544750E-011
   101.175000000000         1.493854646250008E-011
   101.365000000000         1.652481569591250E-011
   101.555000000000         1.626889172050421E-011
   101.745000000000         1.508502524500771E-011
   101.935000000000         1.175043005385246E-011
   102.125000000000         8.719656296782681E-012
   102.315000000000         6.437944616522099E-012
   102.505000000000         3.254853235397709E-012
   102.695000000000        -2.284081182807786E-014
   102.885000000000        -3.343771691561007E-012
   103.075000000000        -6.082521325640667E-012
   103.265000000000        -9.521007213005400E-012
   103.455000000000        -9.994752916977820E-012
   103.645000000000        -1.304769980566388E-011
   103.835000000000        -1.348035835295698E-011
   104.025000000000        -1.449043858292171E-011
   104.215000000000        -1.361143817932859E-011
   104.405000000000        -1.365672862388896E-011
   104.595000000000        -1.328241355286907E-011
   104.785000000000        -1.229261530211354E-011
   104.975000000000        -1.094674324130108E-011
   105.165000000000        -9.902227456173886E-012
   105.355000000000        -9.080066778118240E-012
   105.545000000000        -8.316360444497878E-012
   105.735000000000        -7.637479719222979E-012
   105.925000000000        -7.229136450159567E-012
   106.115000000000        -7.209970634689742E-012
   106.305000000000        -6.492337547194608E-012
   106.495000000000        -6.775904492692018E-012
   106.685000000000        -5.921437613662891E-012
   106.875000000000        -6.002855018888756E-012
   107.065000000000        -5.384466369828241E-012
   107.255000000000        -5.094439073258825E-012
   107.445000000000        -4.760480947539959E-012
   107.635000000000        -4.518367181167318E-012
   107.825000000000        -4.415407070719478E-012
   108.015000000000        -4.471087435672330E-012
   108.205000000000        -4.539209248315017E-012
   108.395000000000        -4.363073253111779E-012
   108.585000000000        -3.945376309403692E-012
   108.775000000000        -3.490091085229489E-012
   108.965000000000        -2.814601892779732E-012
   109.155000000000        -2.381377679092604E-012
   109.345000000000        -1.702521466292211E-012
   109.535000000000        -1.323272288423424E-012
   109.725000000000        -1.044411466830512E-012
   109.915000000000        -1.025950543191838E-012
   110.105000000000        -1.365322965331594E-012