  -1.42500000000000         5.328617075313959E-020
  -1.23500000000000         8.910178776829682E-019
  -1.04500000000000         6.587668205693658E-018
 -0.855000000000000         3.611705269255071E-017
 -0.665000000000000         1.503198573161555E-016
 -0.475000000000000         5.468509794106420E-016
 -0.285000000000000         1.649700183995403E-015
 -9.499999999999975E-002    4.430986464014428E-015
  9.500000000000020E-002    1.048914436709029E-014
  0.285000000000000         2.205624341224356E-014
  0.475000000000000         4.207349921045319E-014
  0.665000000000000         7.378885682876279E-014
  0.855000000000000         1.198811672087199E-013
   1.04500000000000         1.820187297278506E-013
   1.23500000000000         2.615436174563408E-013
   1.42500000000000         3.576228712112866E-013
   1.61500000000000         4.702738487942638E-013
   1.80500000000000         5.996969864416871E-013
   1.99500000000000         7.431759616415696E-013
   2.18500000000000         8.994684047729103E-013
   2.37500000000000         1.067420170242152E-012
   2.56500000000000         1.244099803954093E-012
   2.75500000000000         1.426577645871147E-012
   2.94500000000000         1.612282195465937E-012
   3.13500000000000         1.799077907536392E-012
   3.32500000000000         1.985733912267575E-012
   3.51500000000000         2.170643165066491E-012
   3.70500000000000         2.352866105270308E-012
   3.89500000000000         2.532844301455338E-012
   4.08500000000000         2.710416665472976E-012
   4.27500000000000         2.884894700179217E-012
   4.46500000000000         3.054819375757882E-012
   4.65500000000000         3.218538163128477E-012
   4.84500000000000         3.375914925102471E-012
   5.03500000000000         3.528386241852439E-012
   5.22500000000000         3.678679118986185E-012
   5.41500000000000         3.828378428488157E-012
   5.60500000000000         3.978528964965101E-012
   5.79500000000000         4.132029922584482E-012
   5.98500000000000         4.292086481244413E-012
   6.17500000000000         4.461401630096028E-012
   6.36500000000000         4.641810407983675E-012
   6.55500000000000         4.833987263255598E-012
   6.74500000000000         5.037484463536301E-012
   6.93500000000000         5.251268669319860E-012
   7.12500000000000         5.474170666852219E-012
   7.31500000000000         5.704038822477044E-012
   7.50500000000000         5.937412693760103E-012
   7.69500000000000         6.170243692930228E-012
   7.88500000000000         6.398758477210123E-012
   8.07500000000000         6.619543464923103E-012
   8.26500000000000         6.828999228903912E-012
   8.45500000000000         7.024818666135660E-012
   8.64500000000000         7.205067246552030E-012
   8.83500000000000         7.368869863537298E-012
   9.02500000000000         7.511393264858889E-012
   9.21500000000000         7.627158508029526E-012
   9.40500000000000         7.719150694740144E-012
   9.59500000000000         7.789749252595887E-012
   9.78500000000000         7.841177339568558E-012
   9.97500000000000         7.877863812450715E-012
   10.1650000000000         7.904642983230117E-012
   10.3550000000000         7.926838133301510E-012
   10.5450000000000         7.948087904308065E-012
   10.7350000000000         7.969766307497488E-012
   10.9250000000000         7.991737008623950E-012
   11.1150000000000         8.015020574862640E-012
   11.3050000000000         8.044082837166868E-012
   11.4950000000000         8.085774797118513E-012
   11.6850000000000         8.144031135459332E-012
   11.8750000000000         8.218720440041484E-012
   12.0650000000000         8.307918338562422E-012
   12.2550000000000         8.409156005825165E-012
   12.4450000000000         8.520930050516683E-012
   12.6350000000000         8.638885591959840E-012
   12.8250000000000         8.760121494617595E-012
   13.0150000000000         8.884577246438955E-012
   13.2050000000000         9.009846177687531E-012
   13.3950000000000         9.133503122047878E-012
   13.5850000000000         9.254139451162435E-012
   13.7750000000000         9.372462020946677E-012
   13.9650000000000         9.490212637105664E-012
   14.1550000000000         9.608225782112671E-012
   14.3450000000000         9.728834864439670E-012
   14.5350000000000         9.853776492062311E-012
   14.7250000000000         9.983807251867455E-012
   14.9150000000000         1.012728680576863E-011
   15.1050000000000         1.029333914281571E-011
   15.2950000000000         1.048230104726033E-011
   15.4850000000000         1.069062662295413E-011
   15.6750000000000         1.091433044060773E-011
   15.8650000000000         1.114969492651164E-011
   16.0550000000000         1.139309851076680E-011
   16.2450000000000         1.163981040964112E-011
   16.4350000000000         1.188558369344996E-011
   16.6250000000000         1.212783141624523E-011
   16.8150000000000         1.236421364171995E-011
   17.0050000000000         1.259603904620467E-011
   17.1950000000000         1.282011849841148E-011
   17.3850000000000         1.303448094947075E-011
   17.5750000000000         1.323801529586359E-011
   17.7650000000000         1.342970707188965E-011
   17.9550000000000         1.361400426951673E-011
   18.1450000000000         1.379130314678510E-011
   18.3350000000000         1.396135531332069E-011
   18.5250000000000         1.412299482095514E-011
   18.7150000000000         1.427195284579524E-011
   18.9050000000000         1.440597255828397E-011
   19.0950000000000         1.452893898540873E-011
   19.2850000000000         1.464525964046405E-011
   19.4750000000000         1.475701895378026E-011
   19.6650000000000         1.486453327777971E-011
   19.8550000000000         1.496607205076433E-011
   20.0450000000000         1.505932551774317E-011
   20.2350000000000         1.514327668165232E-011
   20.4250000000000         1.521678998966053E-011
   20.6150000000000         1.527774357725825E-011
   20.8050000000000         1.532475316070423E-011
   20.9950000000000         1.535812252632080E-011
   21.1850000000000         1.538533877317645E-011
   21.3750000000000         1.539857837088530E-011
   21.5650000000000         1.539818961101480E-011
   21.7550000000000         1.539641272443772E-011
   21.9450000000000         1.538878243866264E-011
   22.1350000000000         1.537845848561540E-011
   22.3250000000000         1.537474700251138E-011
   22.5150000000000         1.538490958787965E-011
   22.7050000000000         1.541477197916369E-011
   22.8950000000000         1.546911120022335E-011
   23.0850000000000         1.555102371487859E-011
   23.2750000000000         1.566235423048638E-011
   23.4650000000000         1.580173593353991E-011
   23.6550000000000         1.596848208535675E-011
   23.8450000000000         1.616067711957019E-011
   24.0350000000000         1.637236099311519E-011
   24.2250000000000         1.659904111311091E-011
   24.4150000000000         1.683647396805247E-011
   24.6050000000000         1.707997944732071E-011
   24.7950000000000         1.732511810856187E-011
   24.9850000000000         1.756701703580855E-011
   25.1750000000000         1.780204097365287E-011
   25.3650000000000         1.802562933299289E-011
   25.5550000000000         1.823839950240397E-011
   25.7450000000000         1.843645465256279E-011
   25.9350000000000         1.861795646695128E-011
   26.1250000000000         1.879107815993265E-011
   26.3150000000000         1.895782917489698E-011
   26.5050000000000         1.911769656869468E-011
   26.6950000000000         1.927215593863857E-011
   26.8850000000000         1.942417698587072E-011
   27.0750000000000         1.957682471934470E-011
   27.2650000000000         1.973415071348817E-011
   27.4550000000000         1.989842807991991E-011
   27.6450000000000         2.006973518801188E-011
   27.8350000000000         2.024542701042995E-011
   28.0250000000000         2.042712672537888E-011
   28.2150000000000         2.061445933034800E-011
   28.4050000000000         2.080221320655404E-011
   28.5950000000000         2.098778150871182E-011
   28.7850000000000         2.116644301956527E-011
   28.9750000000000         2.133280476267533E-011
   29.1650000000000         2.148089368072333E-011
   29.3550000000000         2.160673622831408E-011
   29.5450000000000         2.170685607470752E-011
   29.7350000000000         2.177840316553823E-011
   29.9250000000000         2.182144365327061E-011
   30.1150000000000         2.183747650816699E-011
   30.3050000000000         2.182881576302973E-011
   30.4950000000000         2.180052917239752E-011
   30.6850000000000         2.175995447792955E-011
   30.8750000000000         2.171057668531871E-011
   31.0650000000000         2.165487969487923E-011
   31.2550000000000         2.159901787938571E-011
   31.4450000000000         2.154898796164111E-011
   31.6350000000000         2.150811368909200E-011
   31.8250000000000         2.147927156009865E-011
   32.0150000000000         2.146508202469834E-011
   32.2050000000000         2.146735028176370E-011
   32.3950000000000         2.148802759593746E-011
   32.5850000000000         2.152688083347308E-011
   32.7750000000000         2.158254088932356E-011
   32.9650000000000         2.165106323168818E-011
   33.1550000000000         2.172697327302838E-011
   33.3450000000000         2.181162758080191E-011
   33.5350000000000         2.191071236323372E-011
   33.7250000000000         2.202742527699618E-011
   33.9150000000000         2.216207586990112E-011
   34.1050000000000         2.231273123371773E-011
   34.2950000000000         2.247499141588328E-011
   34.4850000000000         2.264382057583043E-011
   34.6750000000000         2.281770746189193E-011
   34.8650000000000         2.299688887378786E-011
   35.0550000000000         2.318013979224210E-011
   35.2450000000000         2.336624927975485E-011
   35.4350000000000         2.355318371003987E-011
   35.6250000000000         2.373802118675668E-011
   35.8150000000000         2.391799477766345E-011
   36.0050000000000         2.409163519031129E-011
   36.1950000000000         2.425818564628834E-011
   36.3850000000000         2.442178944370735E-011
   36.5750000000000         2.458175357188480E-011
   36.7650000000000         2.473583067180373E-011
   36.9550000000000         2.488495515398042E-011
   37.1450000000000         2.502730272363424E-011
   37.3350000000000         2.516420174371584E-011
   37.5250000000000         2.529735182744228E-011
   37.7150000000000         2.542788061235817E-011
   37.9050000000000         2.555660039518823E-011
   38.0950000000000         2.568431245405787E-011
   38.2850000000000         2.581140562185946E-011
   38.4750000000000         2.593810247656551E-011
   38.6650000000000         2.606460054339360E-011
   38.8550000000000         2.619070885334615E-011
   39.0450000000000         2.631557832554241E-011
   39.2350000000000         2.643727469875958E-011
   39.4250000000000         2.655342906125239E-011
   39.6150000000000         2.666054907651343E-011
   39.8050000000000         2.675469935139641E-011
   39.9950000000000         2.683452505995368E-011
   40.1850000000000         2.689886463375454E-011
   40.3750000000000         2.695447434799932E-011
   40.5650000000000         2.700726491562769E-011
   40.7550000000000         2.704834211089066E-011
   40.9450000000000         2.706741774173682E-011
   41.1350000000000         2.706428535737928E-011
   41.3250000000000         2.704728753283968E-011
   41.5150000000000         2.702372450724850E-011
   41.7050000000000         2.699783920133768E-011
   41.8950000000000         2.697434603151301E-011
   42.0850000000000         2.695685510930351E-011
   42.2750000000000         2.694780067420880E-011
   42.4650000000000         2.695063526352747E-011
   42.6550000000000         2.696916774287641E-011
   42.8450000000000         2.700653002698867E-011
   43.0350000000000         2.706528605564827E-011
   43.2250000000000         2.714361213435232E-011
   43.4150000000000         2.724286941973740E-011
   43.6050000000000         2.735414527893844E-011
   43.7950000000000         2.746986868102988E-011
   43.9850000000000         2.759555401954637E-011
   44.1750000000000         2.773108186443074E-011
   44.3650000000000         2.787658926879135E-011
   44.5550000000000         2.802899240599259E-011
   44.7450000000000         2.818281614257879E-011
   44.9350000000000         2.833327995269685E-011
   45.1250000000000         2.847788702644029E-011
   45.3150000000000         2.861575811121060E-011
   45.5050000000000         2.874676885696573E-011
   45.6950000000000         2.887173279748932E-011
   45.8850000000000         2.899222660679443E-011
   46.0750000000000         2.910977252004133E-011
   46.2650000000000         2.922525602529451E-011
   46.4550000000000         2.933996385048037E-011
   46.6450000000000         2.945597416708209E-011
   46.8350000000000         2.957652076919171E-011
   47.0250000000000         2.970308256890037E-011
   47.2150000000000         2.983438770361778E-011
   47.4050000000000         2.996857861450899E-011
   47.5950000000000         3.010355308713287E-011
   47.7850000000000         3.023501852210100E-011
   47.9750000000000         3.035840344625785E-011
   48.1650000000000         3.047116324292919E-011
   48.3550000000000         3.057155799859324E-011
   48.5450000000000         3.065901438304628E-011
   48.7350000000000         3.073534987218812E-011
   48.9250000000000         3.080520373764422E-011
   49.1150000000000         3.086985733899375E-011
   49.3050000000000         3.092569633166722E-011
   49.4950000000000         3.097537241501002E-011
   49.6850000000000         3.102618242706642E-011
   49.8750000000000         3.108361186609580E-011
   50.0650000000000         3.115109571278187E-011
   50.2550000000000         3.123014275562030E-011
   50.4450000000000         3.132141332308997E-011
   50.6350000000000         3.142227192129309E-011
   50.8250000000000         3.153469227883887E-011
   51.0150000000000         3.165430774185237E-011
   51.2050000000000         3.177409589843933E-011
   51.3950000000000         3.189430569553496E-011
   51.5850000000000         3.200771856649401E-011
   51.7750000000000         3.210439089595577E-011
   51.9650000000000         3.217737833178604E-011
   52.1550000000000         3.222241800275869E-011
   52.3450000000000         3.223619349343191E-011
   52.5350000000000         3.221706018023844E-011
   52.7250000000000         3.216867706958018E-011
   52.9150000000000         3.209659667998126E-011
   53.1050000000000         3.200496266268138E-011
   53.2950000000000         3.190220201031362E-011
   53.4850000000000         3.179714945599722E-011
   53.6750000000000         3.169626962513837E-011
   53.8650000000000         3.160796221864207E-011
   54.0550000000000         3.154030221232046E-011
   54.2450000000000         3.149971175147719E-011
   54.4350000000000         3.149109174269782E-011
   54.6250000000000         3.151655301018668E-011
   54.8150000000000         3.157630411150833E-011
   55.0050000000000         3.167056548679752E-011
   55.1950000000000         3.179470097910722E-011
   55.3850000000000         3.194413251655670E-011
   55.5750000000000         3.210783891067099E-011
   55.7650000000000         3.227829992586052E-011
   55.9550000000000         3.245641353616503E-011
   56.1450000000000         3.263530729918626E-011
   56.3350000000000         3.280741821777429E-011
   56.5250000000000         3.296660443091360E-011
   56.7150000000000         3.310972604213270E-011
   56.9050000000000         3.323568460757022E-011
   57.0950000000000         3.334429524235010E-011
   57.2850000000000         3.343645517564717E-011
   57.4750000000000         3.351371822356339E-011
   57.6650000000000         3.357863588193734E-011
   57.8550000000000         3.363540923274860E-011
   58.0450000000000         3.368859229919930E-011
   58.2350000000000         3.373899527518174E-011
   58.4250000000000         3.378634349543197E-011
   58.6150000000000         3.383225315320105E-011
   58.8050000000000         3.387825314135789E-011
   58.9950000000000         3.392528901810333E-011
   59.1850000000000         3.397362285571104E-011
   59.3750000000000         3.402269057663926E-011
   59.5650000000000         3.407192402110344E-011
   59.7550000000000         3.412113786433629E-011
   59.9450000000000         3.417009253863398E-011
   60.1350000000000         3.421773988969634E-011
   60.3250000000000         3.426139387963862E-011
   60.5150000000000         3.429803223025818E-011
   60.7050000000000         3.432660368024965E-011
   60.8950000000000         3.434735504201957E-011
   61.0850000000000         3.436022133344617E-011
   61.2750000000000         3.436430214086658E-011
   61.4650000000000         3.435840698739171E-011
   61.6550000000000         3.434145501613719E-011
   61.8450000000000         3.431272518911291E-011
   62.0350000000000         3.427225423422018E-011
   62.2250000000000         3.421975816777113E-011
   62.4150000000000         3.415536891537257E-011
   62.6050000000000         3.408262248924706E-011
   62.7950000000000         3.400707123699522E-011
   62.9850000000000         3.392950085445462E-011
   63.1750000000000         3.384572390853662E-011
   63.3650000000000         3.375288128557291E-011
   63.5550000000000         3.365052887507196E-011
   63.7450000000000         3.354059360712877E-011
   63.9350000000000         3.342713281332037E-011
   64.1250000000000         3.331428616303646E-011
   64.3150000000000         3.320620310624259E-011
   64.5050000000000         3.310713027386233E-011
   64.6950000000000         3.302065033882824E-011
   64.8850000000000         3.294987815436245E-011
   65.0750000000000         3.289993666874070E-011
   65.2650000000000         3.287426146887949E-011
   65.4550000000000         3.287180176250393E-011
   65.6450000000000         3.289195922357859E-011
   65.8350000000000         3.293429746735153E-011
   66.0250000000000         3.299413344851212E-011
   66.2150000000000         3.306712969520643E-011
   66.4050000000000         3.315345342333964E-011
   66.5950000000000         3.324930658451017E-011
   66.7850000000000         3.335262293852970E-011
   66.9750000000000         3.346380671641169E-011
   67.1650000000000         3.358034382320879E-011
   67.3550000000000         3.370118736873801E-011
   67.5450000000000         3.382393403245659E-011
   67.7350000000000         3.394331475182429E-011
   67.9250000000000         3.405255830170363E-011
   68.1150000000000         3.414654611630399E-011
   68.3050000000000         3.422231138928024E-011
   68.4950000000000         3.428002817054476E-011
   68.6850000000000         3.432272749688532E-011
   68.8750000000000         3.435335217407399E-011
   69.0650000000000         3.437495073040720E-011
   69.2550000000000         3.439111573988662E-011
   69.4450000000000         3.440535790182912E-011
   69.6350000000000         3.442010509166503E-011
   69.8250000000000         3.443634277994844E-011
   70.0150000000000         3.445454295631845E-011
   70.2050000000000         3.447492206854409E-011
   70.3950000000000         3.449682080075570E-011
   70.5850000000000         3.451886794613220E-011
   70.7750000000000         3.453886158881447E-011
   70.9650000000000         3.455446493816605E-011
   71.1550000000000         3.456337436358207E-011
   71.3450000000000         3.456378650574534E-011
   71.5350000000000         3.455268036984680E-011
   71.7250000000000         3.453427133364343E-011
   71.9150000000000         3.450412194476246E-011
   72.1050000000000         3.446278991434196E-011
   72.2950000000000         3.441896545257724E-011
   72.4850000000000         3.436865096548509E-011
   72.6750000000000         3.431188964640987E-011
   72.8650000000000         3.424388059266973E-011
   73.0550000000000         3.415772559465632E-011
   73.2450000000000         3.405413098457896E-011
   73.4350000000000         3.393474759709188E-011
   73.6250000000000         3.380222698623400E-011
   73.8150000000000         3.366269615652645E-011
   74.0050000000000         3.352087434239814E-011
   74.1950000000000         3.337916069971977E-011
   74.3850000000000         3.323986889838430E-011
   74.5750000000000         3.310540959858308E-011
   74.7650000000000         3.297813466045408E-011
   74.9550000000000         3.286014126524312E-011
   75.1450000000000         3.275385657699506E-011
   75.3350000000000         3.265465151464879E-011
   75.5250000000000         3.257549402769902E-011
   75.7150000000000         3.251388424376962E-011
   75.9050000000000         3.245362098973540E-011
   76.0950000000000         3.240999012594237E-011
   76.2850000000000         3.239502723677452E-011
   76.4750000000000         3.240713768791055E-011
   76.6650000000000         3.243770845818886E-011
   76.8550000000000         3.247807356605131E-011
   77.0450000000000         3.252605407362249E-011
   77.2350000000000         3.258544482291999E-011
   77.4250000000000         3.265544356502297E-011
   77.6150000000000         3.273009934413778E-011
   77.8050000000000         3.280406783266363E-011
   77.9950000000000         3.287234602448837E-011
   78.1850000000000         3.293052073420195E-011
   78.3750000000000         3.297586327582780E-011
   78.5650000000000         3.300681221191310E-011
   78.7550000000000         3.302281260879826E-011
   78.9450000000000         3.303052464523913E-011
   79.1350000000000         3.303097764604314E-011
   79.3250000000000         3.302081984755603E-011
   79.5150000000000         3.300164394175371E-011
   79.7050000000000         3.297049375572048E-011
   79.8950000000000         3.292613304285943E-011
   80.0850000000000         3.287247657240845E-011
   80.2750000000000         3.281314707130801E-011
   80.4650000000000         3.274895795548581E-011
   80.6550000000000         3.268089423404875E-011
   80.8450000000000         3.260895643143437E-011
   81.0350000000000         3.253249432357399E-011
   81.2250000000000         3.245182174603439E-011
   81.4150000000000         3.236727467661764E-011
   81.6050000000000         3.227929957655718E-011
   81.7950000000000         3.218799546854610E-011
   81.9850000000000         3.209258378339852E-011
   82.1750000000000         3.199382614767122E-011
   82.3650000000000         3.189114160437610E-011
   82.5550000000000         3.178084173903136E-011
   82.7450000000000         3.166286685757958E-011
   82.9350000000000         3.153935151110180E-011
   83.1250000000000         3.141125155842539E-011
   83.3150000000000         3.127946296981977E-011
   83.5050000000000         3.114586700248311E-011
   83.6950000000000         3.101354804848089E-011
   83.8850000000000         3.088573157325785E-011
   84.0750000000000         3.076134840380968E-011
   84.2650000000000         3.063934792309447E-011
   84.4550000000000         3.052126713871462E-011
   84.6450000000000         3.040669134692797E-011
   84.8350000000000         3.029541741774658E-011
   85.0250000000000         3.018952047500055E-011
   85.2150000000000         3.009176744328289E-011
   85.4050000000000         3.000262296551448E-011
   85.5950000000000         2.992152765106475E-011
   85.7850000000000         2.984681982731072E-011
   85.9750000000000         2.977627975901609E-011
   86.1650000000000         2.970983341537067E-011
   86.3550000000000         2.964950850009146E-011
   86.5450000000000         2.959745155718778E-011
   86.7350000000000         2.955529723431663E-011
   86.9250000000000         2.952445026249844E-011
   87.1150000000000         2.950566482430201E-011
   87.3050000000000         2.949908934344508E-011
   87.4950000000000         2.950417769067762E-011
   87.6850000000000         2.951940996549243E-011
   87.8750000000000         2.954000781313615E-011
   88.0650000000000         2.956453447795459E-011
   88.2550000000000         2.959430870810093E-011
   88.4450000000000         2.962809306627104E-011
   88.6350000000000         2.966536855773171E-011
   88.8250000000000         2.970429374538551E-011
   89.0150000000000         2.973963989613971E-011
   89.2050000000000         2.976174901637465E-011
   89.3950000000000         2.976345011395895E-011
   89.5850000000000         2.974402777267683E-011
   89.7750000000000         2.970266529327703E-011
   89.9650000000000         2.963776566782070E-011
   90.1550000000000         2.954994533567721E-011
   90.3450000000000         2.944197379844435E-011
   90.5350000000000         2.931799021730251E-011
   90.7250000000000         2.918298266025729E-011
   90.9150000000000         2.904169549392487E-011
   91.1050000000000         2.889829015694394E-011
   91.2950000000000         2.875599739832348E-011
   91.4850000000000         2.861724223775547E-011
   91.6750000000000         2.848418006058090E-011
   91.8650000000000         2.835691886878128E-011
   92.0550000000000         2.823412640512650E-011
   92.2450000000000         2.811351451102181E-011
   92.4350000000000         2.799433785638242E-011
   92.6250000000000         2.787724830410147E-011
   92.8150000000000         2.776132387840203E-011
   93.0050000000000         2.764373539571362E-011
   93.1950000000000         2.751836381943598E-011
   93.3850000000000         2.737844631587821E-011
   93.5750000000000         2.722041067587925E-011
   93.7650000000000         2.704110946323757E-011
   93.9550000000000         2.683908318600012E-011
   94.1450000000000         2.661607307251935E-011
   94.3350000000000         2.637467962987541E-011
   94.5250000000000         2.611942606066578E-011
   94.7150000000000         2.585493962650375E-011
   94.9050000000000         2.558553307996272E-011
   95.0950000000000         2.531587099020788E-011
   95.2850000000000         2.505040323314050E-011
   95.4750000000000         2.478739246103603E-011
   95.6650000000000         2.453724523134386E-011
   95.8550000000000         2.429835862972620E-011
   96.0450000000000         2.405903908198014E-011
   96.2350000000000         2.383260894140808E-011
   96.4250000000000         2.363042221182368E-011
   96.6150000000000         2.345536506710992E-011
   96.8050000000000         2.330856508926546E-011
   96.9950000000000         2.318725379263999E-011
   97.1850000000000         2.308436010980503E-011
   97.3750000000000         2.299060890347922E-011
   97.5650000000000         2.290344523504436E-011
   97.7550000000000         2.282316827536440E-011
   97.9450000000000         2.274628580888652E-011
   98.1350000000000         2.267071452516781E-011
   98.3250000000000         2.259390160226240E-011
   98.5150000000000         2.251273730581937E-011
   98.7050000000000         2.242448709782298E-011
   98.8950000000000         2.232733122060160E-011
   99.0850000000000         2.221926807125253E-011
   99.2750000000000         2.209774698055735E-011
   99.4650000000000         2.196065321005321E-011
   99.6550000000000         2.180806604487722E-011
   99.8450000000000         2.163961165176619E-011
   100.035000000000         2.145571370041546E-011
   100.225000000000         2.126038117904206E-011
   100.415000000000         2.105647048495832E-011
   100.605000000000         2.084547365665915E-011
   100.795000000000         2.062913098212957E-011
   100.985000000000         2.040821672754624E-011
   101.175000000000         2.018401875895894E-011
   101.365000000000         1.995521636702587E-011
   101.555000000000         1.972139323471433E-011
   101.745000000000         1.948414388177551E-011
   101.935000000000         1.924408325053472E-011
   102.125000000000         1.900385459193039E-011
   102.315000000000         1.876553805273740E-011
   102.505000000000         1.852970125702077E-011
   102.695000000000         1.829709566028355E-011
   102.885000000000         1.806742508490189E-011
   103.075000000000         1.783871485791749E-011
   103.265000000000         1.761084429224925E-011
   103.455000000000         1.738188442981086E-011
   103.645000000000         1.714970859224729E-011
   103.835000000000         1.691290564248574E-011
   104.025000000000         1.666981405210689E-011
   104.215000000000         1.642379671898391E-011
   104.405000000000         1.617603452275338E-011
   104.595000000000         1.592211856610794E-011
   104.785000000000         1.565748247027859E-011
   104.975000000000         1.537929278017609E-011
   105.165000000000         1.508830178308230E-011
   105.355000000000         1.478774844094640E-011
   105.545000000000         1.448086140573188E-011
   105.735000000000         1.417101906094254E-011
   105.925000000000         1.386147330550566E-011
   106.115000000000         1.355459840515360E-011
   106.305000000000         1.325318671811139E-011
   106.495000000000         1.295711931784953E-011
   106.685000000000         1.266734598717808E-011
   106.875000000000         1.238404905443699E-011
   107.065000000000         1.210673117049066E-011
   107.255000000000         1.184033915093351E-011
   107.445000000000         1.158795827523368E-011
   107.635000000000         1.135092964882992E-011
   107.825000000000         1.113032360439260E-011
   108.015000000000         1.092566971935716E-011
   108.205000000000         1.073659901556119E-011
   108.395000000000         1.056539779730896E-011
   108.585000000000         1.041327839092647E-011
   108.775000000000         1.027484559701265E-011
   108.965000000000         1.014354616507864E-011
   109.155000000000         1.001463687787403E-011
   109.345000000000         9.884290751361637E-012
   109.535000000000         9.752230614016283E-012
   109.725000000000         9.619339577892671E-012
   109.915000000000         9.484872319367026E-012
   110.105000000000         9.345270007050212E-012