  -1.42500000000000        -6.223968827315011E-020
  -1.23500000000000        -2.358451058017711E-017
  -1.04500000000000        -2.031162559036039E-016
 -0.855000000000000        -1.120864699796042E-015
 -0.665000000000000        -4.621219575536086E-015
 -0.475000000000000        -1.549203306769688E-014
 -0.285000000000000        -4.790703702182362E-014
 -9.499999999999975E-002   -1.247845879808039E-013
  9.500000000000020E-002   -2.781675555932262E-013
  0.285000000000000        -5.564333260497208E-013
  0.475000000000000        -1.025405882563919E-012
  0.665000000000000        -1.734711673171198E-012
  0.855000000000000        -2.660590744969769E-012
   1.04500000000000        -3.796251351790918E-012
   1.23500000000000        -5.241294450289694E-012
   1.42500000000000        -6.933114453405397E-012
   1.61500000000000        -8.718715029875292E-012
   1.80500000000000        -1.052493096760564E-011
   1.99500000000000        -1.226457853856977E-011
   2.18500000000000        -1.388115077887589E-011
   2.37500000000000        -1.534116644864970E-011
   2.56500000000000        -1.663721739283014E-011
   2.75500000000000        -1.780387685219803E-011
   2.94500000000000        -1.885078325132079E-011
   3.13500000000000        -1.983399565186752E-011
   3.32500000000000        -2.080441267863548E-011
   3.51500000000000        -2.166182587476874E-011
   3.70500000000000        -2.239954997359416E-011
   3.89500000000000        -2.308290590476482E-011
   4.08500000000000        -2.371079814591628E-011
   4.27500000000000        -2.429608743260859E-011
   4.46500000000000        -2.487077882910770E-011
   4.65500000000000        -2.550749110170981E-011
   4.84500000000000        -2.625748447043987E-011
   5.03500000000000        -2.711933970676265E-011
   5.22500000000000        -2.804615631730274E-011
   5.41500000000000        -2.894651487593542E-011
   5.60500000000000        -2.976391713067230E-011
   5.79500000000000        -3.044804802589510E-011
   5.98500000000000        -3.101280475748052E-011
   6.17500000000000        -3.155560617412677E-011
   6.36500000000000        -3.213415993811514E-011
   6.55500000000000        -3.272354554889547E-011
   6.74500000000000        -3.335543900279157E-011
   6.93500000000000        -3.408263785016672E-011
   7.12500000000000        -3.500444749744285E-011
   7.31500000000000        -3.621489723801913E-011
   7.50500000000000        -3.768286678960104E-011
   7.69500000000000        -3.940619502552784E-011
   7.88500000000000        -4.135927329856154E-011
   8.07500000000000        -4.348786393644743E-011
   8.26500000000000        -4.579477333259723E-011
   8.45500000000000        -4.826724285417858E-011
   8.64500000000000        -5.075291667612984E-011
   8.83500000000000        -5.308784000427858E-011
   9.02500000000000        -5.529766598548283E-011
   9.21500000000000        -5.723249550233145E-011
   9.40500000000000        -5.874231830017228E-011
   9.59500000000000        -5.986420016151766E-011
   9.78500000000000        -6.074052854253269E-011
   9.97500000000000        -6.126567859901774E-011
   10.1650000000000        -6.142968356371899E-011
   10.3550000000000        -6.130798487842119E-011
   10.5450000000000        -6.089908711797290E-011
   10.7350000000000        -6.050369849377439E-011
   10.9250000000000        -6.016612615687324E-011
   11.1150000000000        -5.982832301021976E-011
   11.3050000000000        -5.953916935399895E-011
   11.4950000000000        -5.939108237068255E-011
   11.6850000000000        -5.944067943141509E-011
   11.8750000000000        -5.968165530281852E-011
   12.0650000000000        -6.009424420904221E-011
   12.2550000000000        -6.065138100785061E-011
   12.4450000000000        -6.133991834610843E-011
   12.6350000000000        -6.208734707890583E-011
   12.8250000000000        -6.282860097540454E-011
   13.0150000000000        -6.354315386760999E-011
   13.2050000000000        -6.417051505596779E-011
   13.3950000000000        -6.468328704699534E-011
   13.5850000000000        -6.507460867559245E-011
   13.7750000000000        -6.535540424828406E-011
   13.9650000000000        -6.553435453958127E-011
   14.1550000000000        -6.571240002292361E-011
   14.3450000000000        -6.591676925365419E-011
   14.5350000000000        -6.611992442971997E-011
   14.7250000000000        -6.641117232925746E-011
   14.9150000000000        -6.690100817277851E-011
   15.1050000000000        -6.761639660213617E-011
   15.2950000000000        -6.845373578908651E-011
   15.4850000000000        -6.932728030666522E-011
   15.6750000000000        -7.030761391626537E-011
   15.8650000000000        -7.142912353630175E-011
   16.0550000000000        -7.261215071232184E-011
   16.2450000000000        -7.384804048041673E-011
   16.4350000000000        -7.515362938720610E-011
   16.6250000000000        -7.651158038011782E-011
   16.8150000000000        -7.789631212019158E-011
   17.0050000000000        -7.928006975754987E-011
   17.1950000000000        -8.066221487238366E-011
   17.3850000000000        -8.206083137753851E-011
   17.5750000000000        -8.345748464323450E-011
   17.7650000000000        -8.484476006401428E-011
   17.9550000000000        -8.622923754566227E-011
   18.1450000000000        -8.760749937970160E-011
   18.3350000000000        -8.897082487874332E-011
   18.5250000000000        -9.031411142627629E-011
   18.7150000000000        -9.165346468431994E-011
   18.9050000000000        -9.302865078331822E-011
   19.0950000000000        -9.445517965982398E-011
   19.2850000000000        -9.593098628752483E-011
   19.4750000000000        -9.743859024235151E-011
   19.6650000000000        -9.894305923899745E-011
   19.8550000000000        -1.004221747227656E-010
   20.0450000000000        -1.018366663852340E-010
   20.2350000000000        -1.031390739950047E-010
   20.4250000000000        -1.043151918386181E-010
   20.6150000000000        -1.053612887798512E-010
   20.8050000000000        -1.062939386703719E-010
   20.9950000000000        -1.071504841092471E-010
   21.1850000000000        -1.080129446617399E-010
   21.3750000000000        -1.088760491446732E-010
   21.5650000000000        -1.097318189820746E-010
   21.7550000000000        -1.106442189575859E-010
   21.9450000000000        -1.116869994591020E-010
   22.1350000000000        -1.129818302617656E-010
   22.3250000000000        -1.144246605629673E-010
   22.5150000000000        -1.160104766017829E-010
   22.7050000000000        -1.178766264575503E-010
   22.8950000000000        -1.199968152062821E-010
   23.0850000000000        -1.223013310890066E-010
   23.2750000000000        -1.247424643301018E-010
   23.4650000000000        -1.274161653873642E-010
   23.6550000000000        -1.302330896940006E-010
   23.8450000000000        -1.330077259950613E-010
   24.0350000000000        -1.357335585964785E-010
   24.2250000000000        -1.383811174055184E-010
   24.4150000000000        -1.409160284436843E-010
   24.6050000000000        -1.434108879585290E-010
   24.7950000000000        -1.457113912124274E-010
   24.9850000000000        -1.477770198535061E-010
   25.1750000000000        -1.495853691507470E-010
   25.3650000000000        -1.510655832639560E-010
   25.5550000000000        -1.522976672919846E-010
   25.7450000000000        -1.532579460900693E-010
   25.9350000000000        -1.539739724171219E-010
   26.1250000000000        -1.545495528708316E-010
   26.3150000000000        -1.551081979476850E-010
   26.5050000000000        -1.556650664823314E-010
   26.6950000000000        -1.562675282302544E-010
   26.8850000000000        -1.569685353954629E-010
   27.0750000000000        -1.578617891272071E-010
   27.2650000000000        -1.590200109743460E-010
   27.4550000000000        -1.603729803042003E-010
   27.6450000000000        -1.618373256965506E-010
   27.8350000000000        -1.633081311012935E-010
   28.0250000000000        -1.647561462501045E-010
   28.2150000000000        -1.661683965958907E-010
   28.4050000000000        -1.673952878894545E-010
   28.5950000000000        -1.685044114671147E-010
   28.7850000000000        -1.693966771764701E-010
   28.9750000000000        -1.700414322958615E-010
   29.1650000000000        -1.703283755746564E-010
   29.3550000000000        -1.700797136776147E-010
   29.5450000000000        -1.695217281265875E-010
   29.7350000000000        -1.686302223423301E-010
   29.9250000000000        -1.673097303071541E-010
   30.1150000000000        -1.655344284658690E-010
   30.3050000000000        -1.633875640075703E-010
   30.4950000000000        -1.610743770222681E-010
   30.6850000000000        -1.587385362314505E-010
   30.8750000000000        -1.564534924067182E-010
   31.0650000000000        -1.543752496216148E-010
   31.2550000000000        -1.526377790402011E-010
   31.4450000000000        -1.511297978745920E-010
   31.6350000000000        -1.501012799220983E-010
   31.8250000000000        -1.495374175961660E-010
   32.0150000000000        -1.492821664520908E-010
   32.2050000000000        -1.496427294624921E-010
   32.3950000000000        -1.504779172408112E-010
   32.5850000000000        -1.515145216397223E-010
   32.7750000000000        -1.528235791455189E-010
   32.9650000000000        -1.543533829427719E-010
   33.1550000000000        -1.558659871519404E-010
   33.3450000000000        -1.572976850088035E-010
   33.5350000000000        -1.585695271417547E-010
   33.7250000000000        -1.595292172359676E-010
   33.9150000000000        -1.600967241727056E-010
   34.1050000000000        -1.603400202939699E-010
   34.2950000000000        -1.604031671857937E-010
   34.4850000000000        -1.603968583807075E-010
   34.6750000000000        -1.603801128664648E-010
   34.8650000000000        -1.604615525569446E-010
   35.0550000000000        -1.607495596906853E-010
   35.2450000000000        -1.613440808339865E-010
   35.4350000000000        -1.622333173440307E-010
   35.6250000000000        -1.633370190446402E-010
   35.8150000000000        -1.646702202212971E-010
   36.0050000000000        -1.662422576214744E-010
   36.1950000000000        -1.680005358678766E-010
   36.3850000000000        -1.697554624739301E-010
   36.5750000000000        -1.714649535765824E-010
   36.7650000000000        -1.731900571176370E-010
   36.9550000000000        -1.748411820682159E-010
   37.1450000000000        -1.763617720680865E-010
   37.3350000000000        -1.777617067650375E-010
   37.5250000000000        -1.790490476336868E-010
   37.7150000000000        -1.802492304796438E-010
   37.9050000000000        -1.814065901351300E-010
   38.0950000000000        -1.825948280714167E-010
   38.2850000000000        -1.839323095800487E-010
   38.4750000000000        -1.855047500992094E-010
   38.6650000000000        -1.872495472877441E-010
   38.8550000000000        -1.893082892198096E-010
   39.0450000000000        -1.918142483351456E-010
   39.2350000000000        -1.946645184487131E-010
   39.4250000000000        -1.977800984618933E-010
   39.6150000000000        -2.012225922870501E-010
   39.8050000000000        -2.050210531761890E-010
   39.9950000000000        -2.090997244053723E-010
   40.1850000000000        -2.134223579256949E-010
   40.3750000000000        -2.177919051121973E-010
   40.5650000000000        -2.220951041129983E-010
   40.7550000000000        -2.262852716272612E-010
   40.9450000000000        -2.301360975583346E-010
   41.1350000000000        -2.336908527367438E-010
   41.3250000000000        -2.370080016546136E-010
   41.5150000000000        -2.398555452125460E-010
   41.7050000000000        -2.422059318584488E-010
   41.8950000000000        -2.440774864755655E-010
   42.0850000000000        -2.454723520197247E-010
   42.2750000000000        -2.464862121051839E-010
   42.4650000000000        -2.471670511158953E-010
   42.6550000000000        -2.476198503999903E-010
   42.8450000000000        -2.478659953619472E-010
   43.0350000000000        -2.478171147762595E-010
   43.2250000000000        -2.473451540238432E-010
   43.4150000000000        -2.465555779592367E-010
   43.6050000000000        -2.457545111596186E-010
   43.7950000000000        -2.449393269316868E-010
   43.9850000000000        -2.440677612326557E-010
   44.1750000000000        -2.432419757083784E-010
   44.3650000000000        -2.426411606144807E-010
   44.5550000000000        -2.424557327615757E-010
   44.7450000000000        -2.426145454413931E-010
   44.9350000000000        -2.429469636093323E-010
   45.1250000000000        -2.436474067544002E-010
   45.3150000000000        -2.447609497533267E-010
   45.5050000000000        -2.461834724799371E-010
   45.6950000000000        -2.480692354850502E-010
   45.8850000000000        -2.503253584080770E-010
   46.0750000000000        -2.527825536345979E-010
   46.2650000000000        -2.553319058026859E-010
   46.4550000000000        -2.578269873131776E-010
   46.6450000000000        -2.600773924894059E-010
   46.8350000000000        -2.620903460471357E-010
   47.0250000000000        -2.638063718842051E-010
   47.2150000000000        -2.650409292533259E-010
   47.4050000000000        -2.658591323638459E-010
   47.5950000000000        -2.663227361030405E-010
   47.7850000000000        -2.665739578428190E-010
   47.9750000000000        -2.666503379323946E-010
   48.1650000000000        -2.663199230596863E-010
   48.3550000000000        -2.657421105086631E-010
   48.5450000000000        -2.650161161539506E-010
   48.7350000000000        -2.640808404530286E-010
   48.9250000000000        -2.631938242294472E-010
   49.1150000000000        -2.624368082330443E-010
   49.3050000000000        -2.620013367879086E-010
   49.4950000000000        -2.618668340891763E-010
   49.6850000000000        -2.621518901335973E-010
   49.8750000000000        -2.628543193735755E-010
   50.0650000000000        -2.639390138558568E-010
   50.2550000000000        -2.656279995503726E-010
   50.4450000000000        -2.678924893642353E-010
   50.6350000000000        -2.706307314827761E-010
   50.8250000000000        -2.734911617650530E-010
   51.0150000000000        -2.763583206567880E-010
   51.2050000000000        -2.792698730456739E-010
   51.3950000000000        -2.819848511976884E-010
   51.5850000000000        -2.843494299234516E-010
   51.7750000000000        -2.862423202913158E-010
   51.9650000000000        -2.877618575782956E-010
   52.1550000000000        -2.890019607388101E-010
   52.3450000000000        -2.898190926863734E-010
   52.5350000000000        -2.902261821241216E-010
   52.7250000000000        -2.901986483250137E-010
   52.9150000000000        -2.899654002595151E-010
   53.1050000000000        -2.897274098336167E-010
   53.2950000000000        -2.895892843730796E-010
   53.4850000000000        -2.896269293145598E-010
   53.6750000000000        -2.898705586788718E-010
   53.8650000000000        -2.903981434573485E-010
   54.0550000000000        -2.912239986734859E-010
   54.2450000000000        -2.923702043500321E-010
   54.4350000000000        -2.938353757824468E-010
   54.6250000000000        -2.956199662459825E-010
   54.8150000000000        -2.976150791918326E-010
   55.0050000000000        -2.996945967462044E-010
   55.1950000000000        -3.020355879914697E-010
   55.3850000000000        -3.046555402395176E-010
   55.5750000000000        -3.072781254750900E-010
   55.7650000000000        -3.098206141504751E-010
   55.9550000000000        -3.122468651412999E-010
   56.1450000000000        -3.145832908195641E-010
   56.3350000000000        -3.167423037451991E-010
   56.5250000000000        -3.185378121236478E-010
   56.7150000000000        -3.200053897916535E-010
   56.9050000000000        -3.212286341162225E-010
   57.0950000000000        -3.223283624749830E-010
   57.2850000000000        -3.232725102825718E-010
   57.4750000000000        -3.239996789854700E-010
   57.6650000000000        -3.246331368951921E-010
   57.8550000000000        -3.252730237590336E-010
   58.0450000000000        -3.259129068948347E-010
   58.2350000000000        -3.265680082717851E-010
   58.4250000000000        -3.273411075261259E-010
   58.6150000000000        -3.282254122720624E-010
   58.8050000000000        -3.291811969039339E-010
   58.9950000000000        -3.302292997389063E-010
   59.1850000000000        -3.313656893393513E-010
   59.3750000000000        -3.325691367604648E-010
   59.5650000000000        -3.338082350257624E-010
   59.7550000000000        -3.350602186509464E-010
   59.9450000000000        -3.363041664924459E-010
   60.1350000000000        -3.374794911621424E-010
   60.3250000000000        -3.384815751128134E-010
   60.5150000000000        -3.392498049274214E-010
   60.7050000000000        -3.398400267108947E-010
   60.8950000000000        -3.403550287380740E-010
   61.0850000000000        -3.407379506452384E-010
   61.2750000000000        -3.408162911224934E-010
   61.4650000000000        -3.405944465456200E-010
   61.6550000000000        -3.401861316726228E-010
   61.8450000000000        -3.396392420094361E-010
   62.0350000000000        -3.389728594576656E-010
   62.2250000000000        -3.381127021992606E-010
   62.4150000000000        -3.370674729987870E-010
   62.6050000000000        -3.360212127088512E-010
   62.7950000000000        -3.350250535067374E-010
   62.9850000000000        -3.340563042018624E-010
   63.1750000000000        -3.331485465190355E-010
   63.3650000000000        -3.323573360748165E-010
   63.5550000000000        -3.317733100321684E-010
   63.7450000000000        -3.314373612608007E-010
   63.9350000000000        -3.312920315778336E-010
   64.1250000000000        -3.312886181099311E-010
   64.3150000000000        -3.314357576261382E-010
   64.5050000000000        -3.317564956121140E-010
   64.6950000000000        -3.321647609885092E-010
   64.8850000000000        -3.327439679826517E-010
   65.0750000000000        -3.335550296947930E-010
   65.2650000000000        -3.344931440558313E-010
   65.4550000000000        -3.355598274130168E-010
   65.6450000000000        -3.367243083571971E-010
   65.8350000000000        -3.379547191990055E-010
   66.0250000000000        -3.391935932591118E-010
   66.2150000000000        -3.403993921427702E-010
   66.4050000000000        -3.416057080644675E-010
   66.5950000000000        -3.428647068088505E-010
   66.7850000000000        -3.441606129144199E-010
   66.9750000000000        -3.454734761312001E-010
   67.1650000000000        -3.468121942974003E-010
   67.3550000000000        -3.481470351041254E-010
   67.5450000000000        -3.494387628501397E-010
   67.7350000000000        -3.506411924684321E-010
   67.9250000000000        -3.517043624234844E-010
   68.1150000000000        -3.526382726742090E-010
   68.3050000000000        -3.534689697521326E-010
   68.4950000000000        -3.542226148520534E-010
   68.6850000000000        -3.549792832040601E-010
   68.8750000000000        -3.558028578245742E-010
   69.0650000000000        -3.567321875679264E-010
   69.2550000000000        -3.577891071716579E-010
   69.4450000000000        -3.589985210671167E-010
   69.6350000000000        -3.603923614316237E-010
   69.8250000000000        -3.618889213545562E-010
   70.0150000000000        -3.634742085751715E-010
   70.2050000000000        -3.651793654919124E-010
   70.3950000000000        -3.670368418078825E-010
   70.5850000000000        -3.691013458778470E-010
   70.7750000000000        -3.713997553962360E-010
   70.9650000000000        -3.739516015289210E-010
   71.1550000000000        -3.766031618814721E-010
   71.3450000000000        -3.794703632462557E-010
   71.5350000000000        -3.825454569876088E-010
   71.7250000000000        -3.856238690881126E-010
   71.9150000000000        -3.889071397724835E-010
   72.1050000000000        -3.922917550982527E-010
   72.2950000000000        -3.955914930408113E-010
   72.4850000000000        -3.988876072360072E-010
   72.6750000000000        -4.021810050268256E-010
   72.8650000000000        -4.054280195903006E-010
   73.0550000000000        -4.085892617994463E-010
   73.2450000000000        -4.116115975686460E-010
   73.4350000000000        -4.143651609384369E-010
   73.6250000000000        -4.167776698719261E-010
   73.8150000000000        -4.189505608801634E-010
   74.0050000000000        -4.209598864850566E-010
   74.1950000000000        -4.226310102425212E-010
   74.3850000000000        -4.238707245776554E-010
   74.5750000000000        -4.247662973379523E-010
   74.7650000000000        -4.253587245736887E-010
   74.9550000000000        -4.257586559677612E-010
   75.1450000000000        -4.261248962381887E-010
   75.3350000000000        -4.264364975112732E-010
   75.5250000000000        -4.265526968746252E-010
   75.7150000000000        -4.265919352323827E-010
   75.9050000000000        -4.267054810354349E-010
   76.0950000000000        -4.269308105277189E-010
   76.2850000000000        -4.273577034962220E-010
   76.4750000000000        -4.279770167911054E-010
   76.6650000000000        -4.286895121671281E-010
   76.8550000000000        -4.293785822206964E-010
   77.0450000000000        -4.300109447002870E-010
   77.2350000000000        -4.304966351087845E-010
   77.4250000000000        -4.308522882470535E-010
   77.6150000000000        -4.309477446654685E-010
   77.8050000000000        -4.306448957297371E-010
   77.9950000000000        -4.300128326548501E-010
   78.1850000000000        -4.290104504389147E-010
   78.3750000000000        -4.277212328973034E-010
   78.5650000000000        -4.262726869087280E-010
   78.7550000000000        -4.246242009038513E-010
   78.9450000000000        -4.228762732118857E-010
   79.1350000000000        -4.211737691380888E-010
   79.3250000000000        -4.195021122849044E-010
   79.5150000000000        -4.179523401830477E-010
   79.7050000000000        -4.167142668503645E-010
   79.8950000000000        -4.158784799314431E-010
   80.0850000000000        -4.152748890969852E-010
   80.2750000000000        -4.149589656419723E-010
   80.4650000000000        -4.148985004427794E-010
   80.6550000000000        -4.151447568734400E-010
   80.8450000000000        -4.158872976743726E-010
   81.0350000000000        -4.170538677999897E-010
   81.2250000000000        -4.185871726695107E-010
   81.4150000000000        -4.206418577129501E-010
   81.6050000000000        -4.232467903123966E-010
   81.7950000000000        -4.261651190322874E-010
   81.9850000000000        -4.292230283108437E-010
   82.1750000000000        -4.322471892855889E-010
   82.3650000000000        -4.350657400475503E-010
   82.5550000000000        -4.375695600668587E-010
   82.7450000000000        -4.397229095823065E-010
   82.9350000000000        -4.414201741445852E-010
   83.1250000000000        -4.427112219939561E-010
   83.3150000000000        -4.437525891968728E-010
   83.5050000000000        -4.447089136336968E-010
   83.6950000000000        -4.454471725707993E-010
   83.8850000000000        -4.460417511067980E-010
   84.0750000000000        -4.466713497451985E-010
   84.2650000000000        -4.472001704779263E-010
   84.4550000000000        -4.476688720986032E-010
   84.6450000000000        -4.481304007685651E-010
   84.8350000000000        -4.486160203831700E-010
   85.0250000000000        -4.491775274081528E-010
   85.2150000000000        -4.498825785557866E-010
   85.4050000000000        -4.507915377471058E-010
   85.5950000000000        -4.518946297018160E-010
   85.7850000000000        -4.531187044267260E-010
   85.9750000000000        -4.545292107015064E-010
   86.1650000000000        -4.561543177913515E-010
   86.3550000000000        -4.578742579227241E-010
   86.5450000000000        -4.596747789086586E-010
   86.7350000000000        -4.615865441038132E-010
   86.9250000000000        -4.635990103217335E-010
   87.1150000000000        -4.657365470022346E-010
   87.3050000000000        -4.680119101444487E-010
   87.4950000000000        -4.704316181997008E-010
   87.6850000000000        -4.729852843148810E-010
   87.8750000000000        -4.755256059488330E-010
   88.0650000000000        -4.779864192325673E-010
   88.2550000000000        -4.804280317566455E-010
   88.4450000000000        -4.828558397630760E-010
   88.6350000000000        -4.852631967045504E-010
   88.8250000000000        -4.876271675703716E-010
   89.0150000000000        -4.898743098009979E-010
   89.2050000000000        -4.918903436906471E-010
   89.3950000000000        -4.937503005748378E-010
   89.5850000000000        -4.954356568531454E-010
   89.7750000000000        -4.969059145559833E-010
   89.9650000000000        -4.982836098090960E-010
   90.1550000000000        -4.995276524265918E-010
   90.3450000000000        -5.005538973601210E-010
   90.5350000000000        -5.013600970153861E-010
   90.7250000000000        -5.019547615950932E-010
   90.9150000000000        -5.023386835664107E-010
   91.1050000000000        -5.025227143467185E-010
   91.2950000000000        -5.025307759206835E-010
   91.4850000000000        -5.024001660769544E-010
   91.6750000000000        -5.021755245024321E-010
   91.8650000000000        -5.018160245864487E-010
   92.0550000000000        -5.012414475122987E-010
   92.2450000000000        -5.005652121787079E-010
   92.4350000000000        -4.998742128587893E-010
   92.6250000000000        -4.991058441375310E-010
   92.8150000000000        -4.982361578693367E-010
   93.0050000000000        -4.973265588046691E-010
   93.1950000000000        -4.965157454146318E-010
   93.3850000000000        -4.959697763617515E-010
   93.5750000000000        -4.956062589628604E-010
   93.7650000000000        -4.955736501267146E-010
   93.9550000000000        -4.960081845456243E-010
   94.1450000000000        -4.967495402303853E-010
   94.3350000000000        -4.977519252999651E-010
   94.5250000000000        -4.989040102402719E-010
   94.7150000000000        -5.000978852996477E-010
   94.9050000000000        -5.013772263120963E-010
   95.0950000000000        -5.029165074645701E-010
   95.2850000000000        -5.046723003675976E-010
   95.4750000000000        -5.064317723522285E-010
   95.6650000000000        -5.082554260501210E-010
   95.8550000000000        -5.101700082478600E-010
   96.0450000000000        -5.120540871355250E-010
   96.2350000000000        -5.138694862652842E-010
   96.4250000000000        -5.155513161061138E-010
   96.6150000000000        -5.170369162812790E-010
   96.8050000000000        -5.182663799614588E-010
   96.9950000000000        -5.192541213328002E-010
   97.1850000000000        -5.200730923814413E-010
   97.3750000000000        -5.208357142667461E-010
   97.5650000000000        -5.216056889673626E-010
   97.7550000000000        -5.224249207772143E-010
   97.9450000000000        -5.233789011634110E-010
   98.1350000000000        -5.244885960084760E-010
   98.3250000000000        -5.257202053573647E-010
   98.5150000000000        -5.270118264203602E-010
   98.7050000000000        -5.283018584422095E-010
   98.8950000000000        -5.295212334004730E-010
   99.0850000000000        -5.305838236212827E-010
   99.2750000000000        -5.314089655608086E-010
   99.4650000000000        -5.320145152019960E-010
   99.6550000000000        -5.322949677328007E-010
   99.8450000000000        -5.321750301773871E-010
   100.035000000000        -5.317834280871623E-010
   100.225000000000        -5.311384387570645E-010
   100.415000000000        -5.301416452921515E-010
   100.605000000000        -5.287127088302403E-010
   100.795000000000        -5.266839030316247E-010
   100.985000000000        -5.241801262908576E-010
   101.175000000000        -5.214612783149525E-010
   101.365000000000        -5.184722589099036E-010
   101.555000000000        -5.153568567053440E-010
   101.745000000000        -5.123782345936203E-010
   101.935000000000        -5.098288663402285E-010
   102.125000000000        -5.078842081369182E-010
   102.315000000000        -5.064442360501543E-010
   102.505000000000        -5.055234202542219E-010
   102.695000000000        -5.052163790739829E-010
   102.885000000000        -5.055362072618048E-010
   103.075000000000        -5.064317050984390E-010
   103.265000000000        -5.079140403096104E-010
   103.455000000000        -5.097680375219588E-010
   103.645000000000        -5.119570705306097E-010
   103.835000000000        -5.144772360556788E-010
   104.025000000000        -5.171344617645871E-010
   104.215000000000        -5.198041400570010E-010
   104.405000000000        -5.223946159033066E-010
   104.595000000000        -5.249538344100987E-010
   104.785000000000        -5.273834621513220E-010
   104.975000000000        -5.295912012129464E-010
   105.165000000000        -5.315718534292066E-010
   105.355000000000        -5.333751713814644E-010
   105.545000000000        -5.350278319676129E-010
   105.735000000000        -5.365434467831663E-010
   105.925000000000        -5.379557753192576E-010
   106.115000000000        -5.393274904923183E-010
   106.305000000000        -5.406292097695972E-010
   106.495000000000        -5.418896927633865E-010
   106.685000000000        -5.430959402634900E-010
   106.875000000000        -5.442287480635824E-010
   107.065000000000        -5.453105435955105E-010
   107.255000000000        -5.463060396126038E-010
   107.445000000000        -5.472422570145796E-010
   107.635000000000        -5.481237475868069E-010
   107.825000000000        -5.489724561407360E-010
   108.015000000000        -5.498166731188433E-010
   108.205000000000        -5.506726513038221E-010
   108.395000000000        -5.515183681414577E-010
   108.585000000000        -5.523076708498965E-010
   108.775000000000        -5.530140402523866E-010
   108.965000000000        -5.536129860852976E-010
   109.155000000000        -5.541066041446254E-010
   109.345000000000        -5.544945745634367E-010
   109.535000000000        -5.547820249701347E-010
   109.725000000000        -5.550069549268841E-010
   109.915000000000        -5.552036393178361E-010
   110.105000000000        -5.554308103011459E-010