  -1.42500000000000         8.895800118165494E-021
  -1.23500000000000        -1.475505419497257E-018
  -1.04500000000000        -3.989124788657010E-018
 -0.855000000000000         2.848852437738766E-018
 -0.665000000000000         7.905234614367046E-018
 -0.475000000000000         5.163913443298770E-016
 -0.285000000000000         1.255474835349942E-015
 -9.499999999999975E-002    6.067688570698422E-015
  9.500000000000020E-002    1.863440583894751E-014
  0.285000000000000         3.839743609903017E-014
  0.475000000000000         1.023542357792790E-013
  0.665000000000000         2.211340790062116E-013
  0.855000000000000         3.877066230152046E-013
   1.04500000000000         5.880120979462212E-013
   1.23500000000000         8.876257483902189E-013
   1.42500000000000         1.360214028975174E-012
   1.61500000000000         1.977778340551459E-012
   1.80500000000000         2.722044026990598E-012
   1.99500000000000         3.626451447479420E-012
   2.18500000000000         4.681282304437863E-012
   2.37500000000000         5.866682682916568E-012
   2.56500000000000         7.213126533565839E-012
   2.75500000000000         8.698821222811187E-012
   2.94500000000000         1.032604003956543E-011
   3.13500000000000         1.206666965708536E-011
   3.32500000000000         1.385262090637564E-011
   3.51500000000000         1.566604080835947E-011
   3.70500000000000         1.750076116333111E-011
   3.89500000000000         1.933057465600946E-011
   4.08500000000000         2.113045707973396E-011
   4.27500000000000         2.289454138103174E-011
   4.46500000000000         2.461618621350989E-011
   4.65500000000000         2.623797542165038E-011
   4.84500000000000         2.778970433240169E-011
   5.03500000000000         2.930134600328645E-011
   5.22500000000000         3.078820749114101E-011
   5.41500000000000         3.218596611702463E-011
   5.60500000000000         3.346531068815882E-011
   5.79500000000000         3.470564369859713E-011
   5.98500000000000         3.586374006679798E-011
   6.17500000000000         3.688689616181561E-011
   6.36500000000000         3.779078697336780E-011
   6.55500000000000         3.858911769481405E-011
   6.74500000000000         3.925466712654279E-011
   6.93500000000000         3.981013790624790E-011
   7.12500000000000         4.024637612991426E-011
   7.31500000000000         4.056799331226566E-011
   7.50500000000000         4.084767805645765E-011
   7.69500000000000         4.109666283377255E-011
   7.88500000000000         4.130076849109687E-011
   8.07500000000000         4.152219704998668E-011
   8.26500000000000         4.184728187706959E-011
   8.45500000000000         4.228553101096795E-011
   8.64500000000000         4.278524726113841E-011
   8.83500000000000         4.335396510197660E-011
   9.02500000000000         4.404234388638502E-011
   9.21500000000000         4.485717544158038E-011
   9.40500000000000         4.585106806801801E-011
   9.59500000000000         4.697145967737617E-011
   9.78500000000000         4.814136882249994E-011
   9.97500000000000         4.937335607740444E-011
   10.1650000000000         5.067819567249871E-011
   10.3550000000000         5.202872470290438E-011
   10.5450000000000         5.339276697757856E-011
   10.7350000000000         5.478513512393066E-011
   10.9250000000000         5.618275685161983E-011
   11.1150000000000         5.758805571866930E-011
   11.3050000000000         5.902051093376613E-011
   11.4950000000000         6.050246475123746E-011
   11.6850000000000         6.199393402615853E-011
   11.8750000000000         6.348493566755688E-011
   12.0650000000000         6.497923396538786E-011
   12.2550000000000         6.642245584834530E-011
   12.4450000000000         6.776808271273244E-011
   12.6350000000000         6.906961286067840E-011
   12.8250000000000         7.032126813972262E-011
   13.0150000000000         7.144440144940071E-011
   13.2050000000000         7.245607384122299E-011
   13.3950000000000         7.333821529495473E-011
   13.5850000000000         7.410590818888788E-011
   13.7750000000000         7.479320793282187E-011
   13.9650000000000         7.540468144606858E-011
   14.1550000000000         7.596794124123557E-011
   14.3450000000000         7.648613328949279E-011
   14.5350000000000         7.698510985499655E-011
   14.7250000000000         7.753120116411984E-011
   14.9150000000000         7.814108606469724E-011
   15.1050000000000         7.879510367919962E-011
   15.2950000000000         7.952596137220199E-011
   15.4850000000000         8.035025145581658E-011
   15.6750000000000         8.126136874975404E-011
   15.8650000000000         8.228211201386268E-011
   16.0550000000000         8.337255689704265E-011
   16.2450000000000         8.454584840118818E-011
   16.4350000000000         8.581965545889236E-011
   16.6250000000000         8.714985477959420E-011
   16.8150000000000         8.855160849671112E-011
   17.0050000000000         9.000634219928083E-011
   17.1950000000000         9.151018228043516E-011
   17.3850000000000         9.306994900345854E-011
   17.5750000000000         9.468138505488494E-011
   17.7650000000000         9.633231227836303E-011
   17.9550000000000         9.798336200846416E-011
   18.1450000000000         9.962802909764352E-011
   18.3350000000000         1.012544864043493E-010
   18.5250000000000         1.028385510354320E-010
   18.7150000000000         1.043122505581837E-010
   18.9050000000000         1.056630679735551E-010
   19.0950000000000         1.069444628647820E-010
   19.2850000000000         1.080879285041437E-010
   19.4750000000000         1.091141863879610E-010
   19.6650000000000         1.100586247863183E-010
   19.8550000000000         1.108930317318309E-010
   20.0450000000000         1.115612801004207E-010
   20.2350000000000         1.120329529225485E-010
   20.4250000000000         1.123748820088932E-010
   20.6150000000000         1.126499368792972E-010
   20.8050000000000         1.128863966435431E-010
   20.9950000000000         1.130450078494491E-010
   21.1850000000000         1.131371241163422E-010
   21.3750000000000         1.131875611777547E-010
   21.5650000000000         1.132105067760379E-010
   21.7550000000000         1.132384117727463E-010
   21.9450000000000         1.132835568678479E-010
   22.1350000000000         1.133687446787387E-010
   22.3250000000000         1.134974492320133E-010
   22.5150000000000         1.136303350966078E-010
   22.7050000000000         1.137946423858248E-010
   22.8950000000000         1.140379042289721E-010
   23.0850000000000         1.143589085607176E-010
   23.2750000000000         1.147856405007604E-010
   23.4650000000000         1.153462379269570E-010
   23.6550000000000         1.160818379712290E-010
   23.8450000000000         1.169688934075197E-010
   24.0350000000000         1.179889206524594E-010
   24.2250000000000         1.191728346623378E-010
   24.4150000000000         1.205044174256093E-010
   24.6050000000000         1.220240414519461E-010
   24.7950000000000         1.236984508135307E-010
   24.9850000000000         1.254516992827237E-010
   25.1750000000000         1.273191478901906E-010
   25.3650000000000         1.292531222264647E-010
   25.5550000000000         1.311808671398525E-010
   25.7450000000000         1.330960087353861E-010
   25.9350000000000         1.349562318668721E-010
   26.1250000000000         1.367379981991878E-010
   26.3150000000000         1.384324501343768E-010
   26.5050000000000         1.400279513325528E-010
   26.6950000000000         1.415037189309405E-010
   26.8850000000000         1.429021692594058E-010
   27.0750000000000         1.441965819840837E-010
   27.2650000000000         1.453840550591067E-010
   27.4550000000000         1.464996278979485E-010
   27.6450000000000         1.475184381186647E-010
   27.8350000000000         1.484893242872548E-010
   28.0250000000000         1.493817318730505E-010
   28.2150000000000         1.500800230009894E-010
   28.4050000000000         1.506518500278972E-010
   28.5950000000000         1.511655189158037E-010
   28.7850000000000         1.515740646620448E-010
   28.9750000000000         1.519022983610935E-010
   29.1650000000000         1.521669599537031E-010
   29.3550000000000         1.524061865745901E-010
   29.5450000000000         1.526124174696022E-010
   29.7350000000000         1.527795296836007E-010
   29.9250000000000         1.529600529355100E-010
   30.1150000000000         1.532176959226087E-010
   30.3050000000000         1.535484385286458E-010
   30.4950000000000         1.539338873409832E-010
   30.6850000000000         1.543984182984607E-010
   30.8750000000000         1.549368037595168E-010
   31.0650000000000         1.555785239833238E-010
   31.2550000000000         1.563792934486047E-010
   31.4450000000000         1.573570602386718E-010
   31.6350000000000         1.584576285408856E-010
   31.8250000000000         1.597206704584606E-010
   32.0150000000000         1.611467691394635E-010
   32.2050000000000         1.626779488357065E-010
   32.3950000000000         1.643989495545362E-010
   32.5850000000000         1.663007079902853E-010
   32.7750000000000         1.683302197434553E-010
   32.9650000000000         1.704714155191505E-010
   33.1550000000000         1.726161017549313E-010
   33.3450000000000         1.747258347729795E-010
   33.5350000000000         1.768220976686489E-010
   33.7250000000000         1.788603026313602E-010
   33.9150000000000         1.808210570854581E-010
   34.1050000000000         1.827057856092443E-010
   34.2950000000000         1.845158035735938E-010
   34.4850000000000         1.862070671778918E-010
   34.6750000000000         1.877699393064401E-010
   34.8650000000000         1.892495216344014E-010
   35.0550000000000         1.906377871470923E-010
   35.2450000000000         1.919130491777585E-010
   35.4350000000000         1.930313196409004E-010
   35.6250000000000         1.939690297657799E-010
   35.8150000000000         1.947210360918767E-010
   36.0050000000000         1.953218028613867E-010
   36.1950000000000         1.957936861423154E-010
   36.3850000000000         1.961530408957323E-010
   36.5750000000000         1.964245956233206E-010
   36.7650000000000         1.966464762928671E-010
   36.9550000000000         1.968570456052135E-010
   37.1450000000000         1.970624698880270E-010
   37.3350000000000         1.972863189377131E-010
   37.5250000000000         1.975476621220742E-010
   37.7150000000000         1.978554568698009E-010
   37.9050000000000         1.982157769701070E-010
   38.0950000000000         1.986266004762574E-010
   38.2850000000000         1.990964510407093E-010
   38.4750000000000         1.996278637260632E-010
   38.6650000000000         2.002118605508032E-010
   38.8550000000000         2.008371138848100E-010
   39.0450000000000         2.015248981971565E-010
   39.2350000000000         2.023314370410082E-010
   39.4250000000000         2.032833801799866E-010
   39.6150000000000         2.043275875855756E-010
   39.8050000000000         2.054783502573499E-010
   39.9950000000000         2.067441311688957E-010
   40.1850000000000         2.080237315066498E-010
   40.3750000000000         2.093136232992018E-010
   40.5650000000000         2.106137376483748E-010
   40.7550000000000         2.118692318488551E-010
   40.9450000000000         2.130872530131336E-010
   41.1350000000000         2.142369389386927E-010
   41.3250000000000         2.153729107200286E-010
   41.5150000000000         2.164935973542878E-010
   41.7050000000000         2.175537189804428E-010
   41.8950000000000         2.185870939557229E-010
   42.0850000000000         2.196204068610317E-010
   42.2750000000000         2.207050594486157E-010
   42.4650000000000         2.218320609221103E-010
   42.6550000000000         2.230014498478389E-010
   42.8450000000000         2.241664305276246E-010
   43.0350000000000         2.252521128750210E-010
   43.2250000000000         2.262861545657100E-010
   43.4150000000000         2.272840819990405E-010
   43.6050000000000         2.282250130916445E-010
   43.7950000000000         2.290918221394571E-010
   43.9850000000000         2.298794778618108E-010
   44.1750000000000         2.306467497590851E-010
   44.3650000000000         2.314328940373889E-010
   44.5550000000000         2.322566163418761E-010
   44.7450000000000         2.330440052499203E-010
   44.9350000000000         2.337889561669243E-010
   45.1250000000000         2.346044544125480E-010
   45.3150000000000         2.354984847508037E-010
   45.5050000000000         2.364503249412908E-010
   45.6950000000000         2.374377182723463E-010
   45.8850000000000         2.385185831307980E-010
   46.0750000000000         2.397297705059219E-010
   46.2650000000000         2.410049812143553E-010
   46.4550000000000         2.423177497295150E-010
   46.6450000000000         2.436698278775292E-010
   46.8350000000000         2.451065254820236E-010
   47.0250000000000         2.465907173228729E-010
   47.2150000000000         2.480820673554747E-010
   47.4050000000000         2.495704061304145E-010
   47.5950000000000         2.510345450558723E-010
   47.7850000000000         2.524411714315550E-010
   47.9750000000000         2.537006292923841E-010
   48.1650000000000         2.548524894928717E-010
   48.3550000000000         2.559453678739645E-010
   48.5450000000000         2.568966309666335E-010
   48.7350000000000         2.577019144669824E-010
   48.9250000000000         2.584022751856276E-010
   49.1150000000000         2.590351390086679E-010
   49.3050000000000         2.596504543281142E-010
   49.4950000000000         2.602078256134009E-010
   49.6850000000000         2.606761759969666E-010
   49.8750000000000         2.611327030214311E-010
   50.0650000000000         2.615590682802051E-010
   50.2550000000000         2.618888659762670E-010
   50.4450000000000         2.620711976829190E-010
   50.6350000000000         2.621435365077459E-010
   50.8250000000000         2.621889598947082E-010
   51.0150000000000         2.621875082269517E-010
   51.2050000000000         2.622150160263170E-010
   51.3950000000000         2.623057895522866E-010
   51.5850000000000         2.624853111015931E-010
   51.7750000000000         2.628658182297275E-010
   51.9650000000000         2.635172028661695E-010
   52.1550000000000         2.644065195527162E-010
   52.3450000000000         2.654564331279416E-010
   52.5350000000000         2.666506953120630E-010
   52.7250000000000         2.680271160248844E-010
   52.9150000000000         2.695355196689312E-010
   53.1050000000000         2.711730077601459E-010
   53.2950000000000         2.729504523471802E-010
   53.4850000000000         2.747680596973664E-010
   53.6750000000000         2.766552998849208E-010
   53.8650000000000         2.786569046368218E-010
   54.0550000000000         2.807365489329805E-010
   54.2450000000000         2.828573961160776E-010
   54.4350000000000         2.849900184174982E-010
   54.6250000000000         2.870915778888154E-010
   54.8150000000000         2.891577028939745E-010
   55.0050000000000         2.912472455357832E-010
   55.1950000000000         2.933823661243819E-010
   55.3850000000000         2.954810801660905E-010
   55.5750000000000         2.974241990548270E-010
   55.7650000000000         2.991962913762065E-010
   55.9550000000000         3.008650184874677E-010
   56.1450000000000         3.024636742648950E-010
   56.3350000000000         3.039583902075065E-010
   56.5250000000000         3.052963559330824E-010
   56.7150000000000         3.064156935756278E-010
   56.9050000000000         3.073141773857428E-010
   57.0950000000000         3.080767789062960E-010
   57.2850000000000         3.086308988467913E-010
   57.4750000000000         3.089974732192851E-010
   57.6650000000000         3.092510374898140E-010
   57.8550000000000         3.093053274758552E-010
   58.0450000000000         3.091424814024737E-010
   58.2350000000000         3.088204637304025E-010
   58.4250000000000         3.084343544973708E-010
   58.6150000000000         3.080454159803507E-010
   58.8050000000000         3.076841389843179E-010
   58.9950000000000         3.073581009666747E-010
   59.1850000000000         3.070690189546661E-010
   59.3750000000000         3.068342478904670E-010
   59.5650000000000         3.066950927553684E-010
   59.7550000000000         3.066738966319908E-010
   59.9450000000000         3.067655841442776E-010
   60.1350000000000         3.069299177118242E-010
   60.3250000000000         3.071059509879238E-010
   60.5150000000000         3.073316189031782E-010
   60.7050000000000         3.076690593972321E-010
   60.8950000000000         3.081974925794443E-010
   61.0850000000000         3.089419513749172E-010
   61.2750000000000         3.098537250565147E-010
   61.4650000000000         3.109309439544923E-010
   61.6550000000000         3.121700985294769E-010
   61.8450000000000         3.136197159385046E-010
   62.0350000000000         3.152872787703689E-010
   62.2250000000000         3.171441755921027E-010
   62.4150000000000         3.191362497901920E-010
   62.6050000000000         3.212002499354133E-010
   62.7950000000000         3.233232495411091E-010
   62.9850000000000         3.254985222207447E-010
   63.1750000000000         3.277180203215327E-010
   63.3650000000000         3.299321024123296E-010
   63.5550000000000         3.320696673606708E-010
   63.7450000000000         3.340772653192053E-010
   63.9350000000000         3.359380792829254E-010
   64.1250000000000         3.376291994906050E-010
   64.3150000000000         3.391665971780544E-010
   64.5050000000000         3.405610812637065E-010
   64.6950000000000         3.417625360677118E-010
   64.8850000000000         3.427639029530551E-010
   65.0750000000000         3.436002119907106E-010
   65.2650000000000         3.442927263677384E-010
   65.4550000000000         3.449063282727427E-010
   65.6450000000000         3.454570148236124E-010
   65.8350000000000         3.458976890868403E-010
   66.0250000000000         3.462078490478690E-010
   66.2150000000000         3.463598134365157E-010
   66.4050000000000         3.464419231000926E-010
   66.5950000000000         3.465782141858328E-010
   66.7850000000000         3.467186411162883E-010
   66.9750000000000         3.468382595799137E-010
   67.1650000000000         3.469395863107458E-010
   67.3550000000000         3.470013647101228E-010
   67.5450000000000         3.470947842619535E-010
   67.7350000000000         3.472897580801865E-010
   67.9250000000000         3.476216564602125E-010
   68.1150000000000         3.480722430628619E-010
   68.3050000000000         3.485981994856493E-010
   68.4950000000000         3.492188253569706E-010
   68.6850000000000         3.499836401054978E-010
   68.8750000000000         3.509409648839061E-010
   69.0650000000000         3.520945912553036E-010
   69.2550000000000         3.534041463588920E-010
   69.4450000000000         3.548144617716959E-010
   69.6350000000000         3.562755239068727E-010
   69.8250000000000         3.577800430507781E-010
   70.0150000000000         3.593431718042077E-010
   70.2050000000000         3.609774712920505E-010
   70.3950000000000         3.626277474657909E-010
   70.5850000000000         3.642235559009193E-010
   70.7750000000000         3.657217897234053E-010
   70.9650000000000         3.671165942566105E-010
   71.1550000000000         3.684495789018429E-010
   71.3450000000000         3.697889268326963E-010
   71.5350000000000         3.711488265605384E-010
   71.7250000000000         3.724789812720687E-010
   71.9150000000000         3.737516960331137E-010
   72.1050000000000         3.749489819472203E-010
   72.2950000000000         3.761062698844561E-010
   72.4850000000000         3.772708456706769E-010
   72.6750000000000         3.784435213624337E-010
   72.8650000000000         3.795451413641304E-010
   73.0550000000000         3.805122891194117E-010
   73.2450000000000         3.813918347380502E-010
   73.4350000000000         3.822412639735776E-010
   73.6250000000000         3.831065593862613E-010
   73.8150000000000         3.840269937947367E-010
   74.0050000000000         3.850172912383543E-010
   74.1950000000000         3.860485015130307E-010
   74.3850000000000         3.869972539668899E-010
   74.5750000000000         3.878859399279733E-010
   74.7650000000000         3.888657223251899E-010
   74.9550000000000         3.900227652591397E-010
   75.1450000000000         3.912679639436780E-010
   75.3350000000000         3.924547125473398E-010
   75.5250000000000         3.935950538090324E-010
   75.7150000000000         3.947179945114119E-010
   75.9050000000000         3.958657676245515E-010
   76.0950000000000         3.970485144931678E-010
   76.2850000000000         3.982244474991457E-010
   76.4750000000000         3.993414990492327E-010
   76.6650000000000         4.003583405613886E-010
   76.8550000000000         4.013019718320458E-010
   77.0450000000000         4.022401950923702E-010
   77.2350000000000         4.032304966561442E-010
   77.4250000000000         4.042610512465890E-010
   77.6150000000000         4.052868659210730E-010
   77.8050000000000         4.062343391843574E-010
   77.9950000000000         4.070800047570350E-010
   78.1850000000000         4.079020127778030E-010
   78.3750000000000         4.087284041096464E-010
   78.5650000000000         4.094777600173257E-010
   78.7550000000000         4.100755532020626E-010
   78.9450000000000         4.105222064130887E-010
   79.1350000000000         4.108536885251776E-010
   79.3250000000000         4.111574267471558E-010
   79.5150000000000         4.115211717892345E-010
   79.7050000000000         4.119341988695492E-010
   79.8950000000000         4.123562019823216E-010
   80.0850000000000         4.126927385775450E-010
   80.2750000000000         4.130106195566172E-010
   80.4650000000000         4.134303816691367E-010
   80.6550000000000         4.138500947475369E-010
   80.8450000000000         4.143056120959701E-010
   81.0350000000000         4.148534320720967E-010
   81.2250000000000         4.154822052468187E-010
   81.4150000000000         4.162061187168352E-010
   81.6050000000000         4.170282916484828E-010
   81.7950000000000         4.180033682605350E-010
   81.9850000000000         4.191616567422763E-010
   82.1750000000000         4.204638216909501E-010
   82.3650000000000         4.218562380443443E-010
   82.5550000000000         4.232990775505983E-010
   82.7450000000000         4.248712800193279E-010
   82.9350000000000         4.266121806477622E-010
   83.1250000000000         4.284771085540177E-010
   83.3150000000000         4.304798166970848E-010
   83.5050000000000         4.325195953719256E-010
   83.6950000000000         4.344951704222880E-010
   83.8850000000000         4.364899384879041E-010
   84.0750000000000         4.385364792215544E-010
   84.2650000000000         4.406182030844025E-010
   84.4550000000000         4.427315225113735E-010
   84.6450000000000         4.448025686203746E-010
   84.8350000000000         4.467770236419118E-010
   85.0250000000000         4.486284024131733E-010
   85.2150000000000         4.504099566323845E-010
   85.4050000000000         4.522240187592136E-010
   85.5950000000000         4.540271916182565E-010
   85.7850000000000         4.557047601524747E-010
   85.9750000000000         4.571727393546856E-010
   86.1650000000000         4.584319687350972E-010
   86.3550000000000         4.595948666413704E-010
   86.5450000000000         4.606856233584349E-010
   86.7350000000000         4.616374896602170E-010
   86.9250000000000         4.623738541790632E-010
   87.1150000000000         4.628900843450729E-010
   87.3050000000000         4.631957777124911E-010
   87.4950000000000         4.632933284257012E-010
   87.6850000000000         4.632556136985394E-010
   87.8750000000000         4.631130579683791E-010
   88.0650000000000         4.628719874535447E-010
   88.2550000000000         4.625603390739982E-010
   88.4450000000000         4.622068023241878E-010
   88.6350000000000         4.618710214688382E-010
   88.8250000000000         4.616424294865165E-010
   89.0150000000000         4.615645921035071E-010
   89.2050000000000         4.615819370598058E-010
   89.3950000000000         4.616623565962561E-010
   89.5850000000000         4.619130796507072E-010
   89.7750000000000         4.624124784565208E-010
   89.9650000000000         4.630951937291743E-010
   90.1550000000000         4.639601526740772E-010
   90.3450000000000         4.650098878507543E-010
   90.5350000000000         4.662011269670951E-010
   90.7250000000000         4.675244057724866E-010
   90.9150000000000         4.690186040575639E-010
   91.1050000000000         4.707764671563887E-010
   91.2950000000000         4.727768394250958E-010
   91.4850000000000         4.749544532895595E-010
   91.6750000000000         4.772400526814914E-010
   91.8650000000000         4.795810741532955E-010
   92.0550000000000         4.820019934411154E-010
   92.2450000000000         4.845232561778239E-010
   92.4350000000000         4.870915283740752E-010
   92.6250000000000         4.896277066190464E-010
   92.8150000000000         4.920673770131575E-010
   93.0050000000000         4.943621916310556E-010
   93.1950000000000         4.965097540331447E-010
   93.3850000000000         4.984905953447474E-010
   93.5750000000000         5.002329568247523E-010
   93.7650000000000         5.017097417490029E-010
   93.9550000000000         5.029579253138556E-010
   94.1450000000000         5.039382425125019E-010
   94.3350000000000         5.045945042885524E-010
   94.5250000000000         5.050256397022794E-010
   94.7150000000000         5.053614906574696E-010
   94.9050000000000         5.056247293519542E-010
   95.0950000000000         5.057903102411207E-010
   95.2850000000000         5.058524728335129E-010
   95.4750000000000         5.058138483984912E-010
   95.6650000000000         5.056849936464481E-010
   95.8550000000000         5.055505236220227E-010
   96.0450000000000         5.054354064604571E-010
   96.2350000000000         5.052792645927062E-010
   96.4250000000000         5.050578048658572E-010
   96.6150000000000         5.047678480716810E-010
   96.8050000000000         5.044465799087716E-010
   96.9950000000000         5.041502914901109E-010
   97.1850000000000         5.039386586726026E-010
   97.3750000000000         5.038520303934685E-010
   97.5650000000000         5.038518935024473E-010
   97.7550000000000         5.039080647411621E-010
   97.9450000000000         5.040457443002768E-010
   98.1350000000000         5.043543318648914E-010
   98.3250000000000         5.049236879439076E-010
   98.5150000000000         5.057353431333803E-010
   98.7050000000000         5.067180987021596E-010
   98.8950000000000         5.077917825201900E-010
   99.0850000000000         5.089395635344382E-010
   99.2750000000000         5.101960255588006E-010
   99.4650000000000         5.116321124610386E-010
   99.6550000000000         5.132285898781464E-010
   99.8450000000000         5.148407374430742E-010
   100.035000000000         5.164369001775582E-010
   100.225000000000         5.180766180997945E-010
   100.415000000000         5.198018165949309E-010
   100.605000000000         5.216309501471689E-010
   100.795000000000         5.235598241113273E-010
   100.985000000000         5.255589203413944E-010
   101.175000000000         5.275429206759844E-010
   101.365000000000         5.294381496117237E-010
   101.555000000000         5.312736368926342E-010
   101.745000000000         5.330643295260808E-010
   101.935000000000         5.347905147788867E-010
   102.125000000000         5.363797908833745E-010
   102.315000000000         5.377275010617481E-010
   102.505000000000         5.389394757470366E-010
   102.695000000000         5.401046227745009E-010
   102.885000000000         5.411692692583952E-010
   103.075000000000         5.421893423719816E-010
   103.265000000000         5.431465022834231E-010
   103.455000000000         5.439792308088113E-010
   103.645000000000         5.446654355646496E-010
   103.835000000000         5.452635315229192E-010
   104.025000000000         5.458431809823756E-010
   104.215000000000         5.464108334449596E-010
   104.405000000000         5.469757223948569E-010
   104.595000000000         5.474857397919920E-010
   104.785000000000         5.479433978586147E-010
   104.975000000000         5.483955870927975E-010
   105.165000000000         5.489093220701366E-010
   105.355000000000         5.495163335994441E-010
   105.545000000000         5.501676806583468E-010
   105.735000000000         5.507949860593134E-010
   105.925000000000         5.513640893996537E-010
   106.115000000000         5.518830857484648E-010
   106.305000000000         5.523928941276567E-010
   106.495000000000         5.529390211763751E-010
   106.685000000000         5.535307003573356E-010
   106.875000000000         5.541512805701273E-010
   107.065000000000         5.547321959558621E-010
   107.255000000000         5.552805616331614E-010
   107.445000000000         5.558826467762809E-010
   107.635000000000         5.565848219358224E-010
   107.825000000000         5.573738834254787E-010
   108.015000000000         5.581865736629224E-010
   108.205000000000         5.589780472628841E-010
   108.395000000000         5.597558006230162E-010
   108.585000000000         5.605300261023860E-010
   108.775000000000         5.613311098532927E-010
   108.965000000000         5.622056556306056E-010
   109.155000000000         5.630628690881728E-010
   109.345000000000         5.638381607176720E-010
   109.535000000000         5.645413986004100E-010
   109.725000000000         5.651933651019853E-010
   109.915000000000         5.658614593421397E-010
   110.105000000000         5.665917833116853E-010