  -1.42500000000000         0.000000000000000E+000
  -1.23500000000000         3.380404044902889E-021
  -1.04500000000000        -5.606920594089579E-019
 -0.855000000000000        -1.512487015644755E-018
 -0.665000000000000         5.218718669318292E-019
 -0.475000000000000         1.491502137814967E-018
 -0.285000000000000         1.967505827122847E-016
 -9.499999999999975E-002    4.785719395707954E-016
  9.500000000000020E-002    2.502472239577684E-015
  0.285000000000000         7.559646158370857E-015
  0.475000000000000         1.709349795720914E-014
  0.665000000000000         4.645425575449682E-014
  0.855000000000000         1.011244479795696E-013
   1.04500000000000         1.937827725002747E-013
   1.23500000000000         3.245690451991337E-013
   1.42500000000000         5.310805568885581E-013
   1.61500000000000         8.414503762096996E-013
   1.80500000000000         1.282636326298112E-012
   1.99500000000000         1.875827106466127E-012
   2.18500000000000         2.660687876340291E-012
   2.37500000000000         3.654714382152518E-012
   2.56500000000000         4.890027295848588E-012
   2.75500000000000         6.395702464907534E-012
   2.94500000000000         8.195579360516838E-012
   3.13500000000000         1.031959767994240E-011
   3.32500000000000         1.278091383020927E-011
   3.51500000000000         1.558359362436513E-011
   3.70500000000000         1.873400933738587E-011
   3.89500000000000         2.223388286643097E-011
   4.08500000000000         2.607962770666947E-011
   4.27500000000000         3.026345655672987E-011
   4.46500000000000         3.477955343146153E-011
   4.65500000000000         3.961760731786363E-011
   4.84500000000000         4.474998409168867E-011
   5.03500000000000         5.017769496417629E-011
   5.22500000000000         5.588449557293754E-011
   5.41500000000000         6.187721381080988E-011
   5.60500000000000         6.811516269740691E-011
   5.79500000000000         7.459403187231022E-011
   5.98500000000000         8.130330730287383E-011
   6.17500000000000         8.822225309769346E-011
   6.36500000000000         9.532032784436374E-011
   6.55500000000000         1.025827521475732E-010
   6.74500000000000         1.099841925683931E-010
   6.93500000000000         1.174995256556595E-010
   7.12500000000000         1.251120449727673E-010
   7.31500000000000         1.327931485850269E-010
   7.50500000000000         1.405278824314282E-010
   7.69500000000000         1.483152662464808E-010
   7.88500000000000         1.561446143082618E-010
   8.07500000000000         1.640095582730976E-010
   8.26500000000000         1.719230491872567E-010
   8.45500000000000         1.799115253863840E-010
   8.64500000000000         1.879915509714245E-010
   8.83500000000000         1.961699193456166E-010
   9.02500000000000         2.044660577101756E-010
   9.21500000000000         2.129060100224429E-010
   9.40500000000000         2.215117843779761E-010
   9.59500000000000         2.303294158882897E-010
   9.78500000000000         2.393609390553791E-010
   9.97500000000000         2.486231360408397E-010
   10.1650000000000         2.581228143647927E-010
   10.3550000000000         2.678808503963892E-010
   10.5450000000000         2.778937297518964E-010
   10.7350000000000         2.881701018478690E-010
   10.9250000000000         2.987120810989900E-010
   11.1150000000000         3.095195494514846E-010
   11.3050000000000         3.205955422720845E-010
   11.4950000000000         3.319473436063157E-010
   11.6850000000000         3.435864788775547E-010
   11.8750000000000         3.555050385362560E-010
   12.0650000000000         3.677107544312263E-010
   12.2550000000000         3.801971474431034E-010
   12.4450000000000         3.929512876535974E-010
   12.6350000000000         4.059490188739416E-010
   12.8250000000000         4.191977405406554E-010
   13.0150000000000         4.326711007670363E-010
   13.2050000000000         4.463466130914276E-010
   13.3950000000000         4.602044088267011E-010
   13.5850000000000         4.742151349035104E-010
   13.7750000000000         4.883646539384786E-010
   13.9650000000000         5.026365539179828E-010
   14.1550000000000         5.170184328879846E-010
   14.3450000000000         5.315043715896522E-010
   14.5350000000000         5.460831635379918E-010
   14.7250000000000         5.607587133345510E-010
   14.9150000000000         5.755450199803572E-010
   15.1050000000000         5.904523260391359E-010
   15.2950000000000         6.054871593784532E-010
   15.4850000000000         6.206721913605725E-010
   15.6750000000000         6.360202549316635E-010
   15.8650000000000         6.515515114854792E-010
   16.0550000000000         6.672874574969313E-010
   16.2450000000000         6.832330831063554E-010
   16.4350000000000         6.994148798893828E-010
   16.6250000000000         7.158445521807346E-010
   16.8150000000000         7.325318247056286E-010
   17.0050000000000         7.494941634094849E-010
   17.1950000000000         7.667342347413554E-010
   17.3850000000000         7.842680326760501E-010
   17.5750000000000         8.021008153626696E-010
   17.7650000000000         8.202469589969064E-010
   17.9550000000000         8.387070940284475E-010
   18.1450000000000         8.574806365601229E-010
   18.3350000000000         8.765657450855520E-010
   18.5250000000000         8.959573413937756E-010
   18.7150000000000         9.156443944790160E-010
   18.9050000000000         9.355959966058853E-010
   19.0950000000000         9.557963603089669E-010
   19.2850000000000         9.762348924945024E-010
   19.4750000000000         9.968697731405414E-010
   19.6650000000000         1.017698283321927E-009
   19.8550000000000         1.038692050559343E-009
   20.0450000000000         1.059837635380023E-009
   20.2350000000000         1.081085336997503E-009
   20.4250000000000         1.102410157490592E-009
   20.6150000000000         1.123787792160882E-009
   20.8050000000000         1.145217133504725E-009
   20.9950000000000         1.166684622885428E-009
   21.1850000000000         1.188174236487515E-009
   21.3750000000000         1.209676730049638E-009
   21.5650000000000         1.231185509735062E-009
   21.7550000000000         1.252696722624533E-009
   21.9450000000000         1.274216106208706E-009
   22.1350000000000         1.295744474234315E-009
   22.3250000000000         1.317296229186627E-009
   22.5150000000000         1.338873504942480E-009
   22.7050000000000         1.360475756523338E-009
   22.8950000000000         1.382115469049094E-009
   23.0850000000000         1.403810160130347E-009
   23.2750000000000         1.425571854302166E-009
   23.4650000000000         1.447428703520636E-009
   23.6550000000000         1.469403424714410E-009
   23.8450000000000         1.491539801949703E-009
   24.0350000000000         1.513851604209267E-009
   24.2250000000000         1.536375591797638E-009
   24.4150000000000         1.559137281380956E-009
   24.6050000000000         1.582167270419369E-009
   24.7950000000000         1.605506417132696E-009
   24.9850000000000         1.629172681728511E-009
   25.1750000000000         1.653178062860131E-009
   25.3650000000000         1.677553957926783E-009
   25.5550000000000         1.702294249306187E-009
   25.7450000000000         1.727402687439927E-009
   25.9350000000000         1.752870732625634E-009
   26.1250000000000         1.778686055549339E-009
   26.3150000000000         1.804831171941325E-009
   26.5050000000000         1.831290386600402E-009
   26.6950000000000         1.858041793447695E-009
   26.8850000000000         1.885061799794159E-009
   27.0750000000000         1.912344617766269E-009
   27.2650000000000         1.939856500948111E-009
   27.4550000000000         1.967590558688730E-009
   27.6450000000000         1.995526359549331E-009
   27.8350000000000         2.023647565173822E-009
   28.0250000000000         2.051952302778488E-009
   28.2150000000000         2.080412623285580E-009
   28.4050000000000         2.108982711518863E-009
   28.5950000000000         2.137660326296182E-009
   28.7850000000000         2.166425608706869E-009
   28.9750000000000         2.195258470867759E-009
   29.1650000000000         2.224148482084084E-009
   29.3550000000000         2.253081915650165E-009
   29.5450000000000         2.282062832982428E-009
   29.7350000000000         2.311074634288614E-009
   29.9250000000000         2.340119054262197E-009
   30.1150000000000         2.369199454404108E-009
   30.3050000000000         2.398341778712788E-009
   30.4950000000000         2.427547861044994E-009
   30.6850000000000         2.456836655902361E-009
   30.8750000000000         2.486219259998409E-009
   31.0650000000000         2.515712641330978E-009
   31.2550000000000         2.545339099112072E-009
   31.4450000000000         2.575136772841447E-009
   31.6350000000000         2.605134782002767E-009
   31.8250000000000         2.635350671686984E-009
   32.0150000000000         2.665828636776982E-009
   32.2050000000000         2.696586443959980E-009
   32.3950000000000         2.727646257334550E-009
   32.5850000000000         2.759058044790704E-009
   32.7750000000000         2.790840526370859E-009
   32.9650000000000         2.823023528293217E-009
   33.1550000000000         2.855619664268136E-009
   33.3450000000000         2.888617646960090E-009
   33.5350000000000         2.922015481481868E-009
   33.7250000000000         2.955810044074178E-009
   33.9150000000000         2.989982396481785E-009
   34.1050000000000         3.024522045766652E-009
   34.2950000000000         3.059410595013298E-009
   34.4850000000000         3.094638051124618E-009
   34.6750000000000         3.130169280540897E-009
   34.8650000000000         3.165990628061065E-009
   35.0550000000000         3.202084098761970E-009
   35.2450000000000         3.238432987176960E-009
   35.4350000000000         3.275011057449519E-009
   35.6250000000000         3.311784888640503E-009
   35.8150000000000         3.348719288760516E-009
   36.0050000000000         3.385778882355416E-009
   36.1950000000000         3.422941573847841E-009
   36.3850000000000         3.460180483089495E-009
   36.5750000000000         3.497479729388220E-009
   36.7650000000000         3.534821829426357E-009
   36.9550000000000         3.572205390379509E-009
   37.1450000000000         3.609627506756339E-009
   37.3350000000000         3.647089128936961E-009
   37.5250000000000         3.684596307952669E-009
   37.7150000000000         3.722157240543348E-009
   37.9050000000000         3.759781381563194E-009
   38.0950000000000         3.797479235791988E-009
   38.2850000000000         3.835259489744171E-009
   38.4750000000000         3.873135887187458E-009
   38.6650000000000         3.911118077960075E-009
   38.8550000000000         3.949216394196762E-009
   39.0450000000000         3.987436181236304E-009
   39.2350000000000         4.025795855511682E-009
   39.4250000000000         4.064322127311886E-009
   39.6150000000000         4.103043539980077E-009
   39.8050000000000         4.141966610594406E-009
   39.9950000000000         4.181125313077871E-009
   40.1850000000000         4.220529380438585E-009
   40.3750000000000         4.260174331050398E-009
   40.5650000000000         4.300068557292282E-009
   40.7550000000000         4.340207551356780E-009
   40.9450000000000         4.380578865394848E-009
   41.1350000000000         4.421180707501771E-009
   41.3250000000000         4.461988902191550E-009
   41.5150000000000         4.503022413575383E-009
   41.7050000000000         4.544256469186179E-009
   41.8950000000000         4.585692826787950E-009
   42.0850000000000         4.627319564889354E-009
   42.2750000000000         4.669148581395142E-009
   42.4650000000000         4.711187487479828E-009
   42.6550000000000         4.753444764545543E-009
   42.8450000000000         4.795928038422008E-009
   43.0350000000000         4.838628008146042E-009
   43.2250000000000         4.881523841314515E-009
   43.4150000000000         4.924616746881009E-009
   43.6050000000000         4.967891792474150E-009
   43.7950000000000         5.011342251855836E-009
   43.9850000000000         5.054946684887144E-009
   44.1750000000000         5.098696453443324E-009
   44.3650000000000         5.142592449795596E-009
   44.5550000000000         5.186640953177533E-009
   44.7450000000000         5.230849964005508E-009
   44.9350000000000         5.275197675172502E-009
   45.1250000000000         5.319689767348940E-009
   45.3150000000000         5.364347367849268E-009
   45.5050000000000         5.409179191554245E-009
   45.6950000000000         5.454198491326960E-009
   45.8850000000000         5.499405524497738E-009
   46.0750000000000         5.544835552916663E-009
   46.2650000000000         5.590502837289987E-009
   46.4550000000000         5.636417445778118E-009
   46.6450000000000         5.682583582187203E-009
   46.8350000000000         5.729011980371579E-009
   47.0250000000000         5.775724061870371E-009
   47.2150000000000         5.822716452954271E-009
   47.4050000000000         5.869995247465452E-009
   47.5950000000000         5.917553207283828E-009
   47.7850000000000         5.965388374586684E-009
   47.9750000000000         6.013480852427819E-009
   48.1650000000000         6.061794613717789E-009
   48.3550000000000         6.110324798435110E-009
   48.5450000000000         6.159053853509897E-009
   48.7350000000000         6.207945518202430E-009
   48.9250000000000         6.256980581007351E-009
   49.1150000000000         6.306138382772969E-009
   49.3050000000000         6.355413933830643E-009
   49.4950000000000         6.404805555417653E-009
   49.6850000000000         6.454292907563738E-009
   49.8750000000000         6.503862502296501E-009
   50.0650000000000         6.553523334711881E-009
   50.2550000000000         6.603254948242979E-009
   50.4450000000000         6.653041103782862E-009
   50.6350000000000         6.702842003362489E-009
   50.8250000000000         6.752655647655805E-009
   51.0150000000000         6.802473808122477E-009
   51.2050000000000         6.852286900782048E-009
   51.3950000000000         6.902115514212479E-009
   51.5850000000000         6.951963100811917E-009
   51.7750000000000         7.001859932431084E-009
   51.9650000000000         7.051852111739214E-009
   52.1550000000000         7.101996469520228E-009
   52.3450000000000         7.152326589169245E-009
   52.5350000000000         7.202869914108846E-009
   52.7250000000000         7.253653853387829E-009
   52.9150000000000         7.304720218198304E-009
   53.1050000000000         7.356077350862023E-009
   53.2950000000000         7.407765961147158E-009
   53.4850000000000         7.459798522753953E-009
   53.6750000000000         7.512177823832157E-009
   53.8650000000000         7.564927536710223E-009
   54.0550000000000         7.618067447594150E-009
   54.2450000000000         7.671607425304755E-009
   54.4350000000000         7.725553258118261E-009
   54.6250000000000         7.779903632303405E-009
   54.8150000000000         7.834648057716010E-009
   55.0050000000000         7.889783559403116E-009
   55.1950000000000         7.945322011019607E-009
   55.3850000000000         8.001268858530380E-009
   55.5750000000000         8.057604821482722E-009
   55.7650000000000         8.114290054171217E-009
   55.9550000000000         8.171299412205682E-009
   56.1450000000000         8.228618761196451E-009
   56.3350000000000         8.286235608426343E-009
   56.5250000000000         8.344122949475305E-009
   56.7150000000000         8.402248223680913E-009
   56.9050000000000         8.460560913034043E-009
   57.0950000000000         8.519027611087495E-009
   57.2850000000000         8.577630089018437E-009
   57.4750000000000         8.636307352649276E-009
   57.6650000000000         8.695049128841763E-009
   57.8550000000000         8.753822746895405E-009
   58.0450000000000         8.812585153282589E-009
   58.2350000000000         8.871296889828346E-009
   58.4250000000000         8.929936929500143E-009
   58.6150000000000         8.988501944537347E-009
   58.8050000000000         9.046994187572676E-009
   58.9950000000000         9.105421917351386E-009
   59.1850000000000         9.163790265940011E-009
   59.3750000000000         9.222108144554159E-009
   59.5650000000000         9.280387280138388E-009
   59.7550000000000         9.338652279801198E-009
   59.9450000000000         9.396923360858546E-009
   60.1350000000000         9.455223201776022E-009
   60.3250000000000         9.513556729589039E-009
   60.5150000000000         9.571923463151436E-009
   60.7050000000000         9.630342744772247E-009
   60.8950000000000         9.688837705722384E-009
   61.0850000000000         9.747457791952437E-009
   61.2750000000000         9.806235647244855E-009
   61.4650000000000         9.865202207473912E-009
   61.6550000000000         9.924389405947563E-009
   61.8450000000000         9.983826844915113E-009
   62.0350000000000         1.004356489800419E-008
   62.2250000000000         1.010363601084785E-008
   62.4150000000000         1.016407968472919E-008
   62.6050000000000         1.022490778576813E-008
   62.7950000000000         1.028613577970465E-008
   62.9850000000000         1.034777062059375E-008
   63.1750000000000         1.040982521814853E-008
   63.3650000000000         1.047230346831593E-008
   63.5550000000000         1.053519941706522E-008
   63.7450000000000         1.059848994191298E-008
   63.9350000000000         1.066214877788651E-008
   64.1250000000000         1.072614641204050E-008
   64.3150000000000         1.079044787369294E-008
   64.5050000000000         1.085502971896816E-008
   64.6950000000000         1.091986108457315E-008
   64.8850000000000         1.098489948267389E-008
   65.0750000000000         1.105011136769531E-008
   65.2650000000000         1.111546756323036E-008
   65.4550000000000         1.118094260371505E-008
   65.6450000000000         1.124653196797400E-008
   65.8350000000000         1.131221626934803E-008
   66.0250000000000         1.137797308982700E-008
   66.2150000000000         1.144377525198622E-008
   66.4050000000000         1.150958981893288E-008
   66.5950000000000         1.157542318276425E-008
   66.7850000000000         1.164128954032349E-008
   66.9750000000000         1.170717626638844E-008
   67.1650000000000         1.177308807896386E-008
   67.3550000000000         1.183901330918653E-008
   67.5450000000000         1.190494859755371E-008
   67.7350000000000         1.197090932720607E-008
   67.9250000000000         1.203691870562418E-008
   68.1150000000000         1.210300555666095E-008
   68.3050000000000         1.216918615798807E-008
   68.4950000000000         1.223547287246550E-008
   68.6850000000000         1.230188931162372E-008
   68.8750000000000         1.236846665570559E-008
   69.0650000000000         1.243524687827960E-008
   69.2550000000000         1.250226260038261E-008
   69.4450000000000         1.256954045389598E-008
   69.6350000000000         1.263709209585585E-008
   69.8250000000000         1.270492515298059E-008
   70.0150000000000         1.277304851221514E-008
   70.2050000000000         1.284147555826619E-008
   70.3950000000000         1.291021995130612E-008
   70.5850000000000         1.297927410230319E-008
   70.7750000000000         1.304862490254847E-008
   70.9650000000000         1.311824838239808E-008
   71.1550000000000         1.318812920836598E-008
   71.3450000000000         1.325825922238078E-008
   71.5350000000000         1.332864900056241E-008
   71.7250000000000         1.339929577647379E-008
   71.9150000000000         1.347019101344579E-008
   72.1050000000000         1.354132142096638E-008
   72.2950000000000         1.361267162658574E-008
   72.4850000000000         1.368424180352247E-008
   72.6750000000000         1.375603454794059E-008
   72.8650000000000         1.382805034164019E-008
   73.0550000000000         1.390026170165896E-008
   73.2450000000000         1.397264501150556E-008
   73.4350000000000         1.404519059885942E-008
   73.6250000000000         1.411789669181553E-008
   73.8150000000000         1.419077109142621E-008
   74.0050000000000         1.426382694945753E-008
   74.1950000000000         1.433707766209678E-008
   74.3850000000000         1.441052538003248E-008
   74.5750000000000         1.448413661860420E-008
   74.7650000000000         1.455792203720511E-008
   74.9550000000000         1.463190559308777E-008
   75.1450000000000         1.470613068800358E-008
   75.3350000000000         1.478058741938637E-008
   75.5250000000000         1.485526347877157E-008
   75.7150000000000         1.493015353983380E-008
   75.9050000000000         1.500525631668591E-008
   76.0950000000000         1.508058253153113E-008
   76.2850000000000         1.515613475219332E-008
   76.4750000000000         1.523190782158081E-008
   76.6650000000000         1.530788452183202E-008
   76.8550000000000         1.538404399099414E-008
   77.0450000000000         1.546037927112819E-008
   77.2350000000000         1.553689526512923E-008
   77.4250000000000         1.561360685985753E-008
   77.6150000000000         1.569051446460294E-008
   77.8050000000000         1.576761586890754E-008
   77.9950000000000         1.584488351349299E-008
   78.1850000000000         1.592230627071521E-008
   78.3750000000000         1.599988627834856E-008
   78.5650000000000         1.607762306427688E-008
   78.7550000000000         1.615548782715514E-008
   78.9450000000000         1.623345177449367E-008
   79.1350000000000         1.631148626559212E-008
   79.3250000000000         1.638957617613323E-008
   79.5150000000000         1.646772608775603E-008
   79.7050000000000         1.654595422141314E-008
   79.8950000000000         1.662426108332646E-008
   80.0850000000000         1.670264957816642E-008
   80.2750000000000         1.678108432398593E-008
   80.4650000000000         1.685959361359793E-008
   80.6550000000000         1.693818786902020E-008
   80.8450000000000         1.701685664960200E-008
   81.0350000000000         1.709562400161667E-008
   81.2250000000000         1.717450095378940E-008
   81.4150000000000         1.725350723961046E-008
   81.6050000000000         1.733265927890179E-008
   81.7950000000000         1.741197799043688E-008
   81.9850000000000         1.749150055884079E-008
   82.1750000000000         1.757125941999894E-008
   82.3650000000000         1.765127681108335E-008
   82.5550000000000         1.773156479045579E-008
   82.7450000000000         1.781213046055258E-008
   82.9350000000000         1.789301587686314E-008
   83.1250000000000         1.797424308919873E-008
   83.3150000000000         1.805583717811366E-008
   83.5050000000000         1.813782541954361E-008
   83.6950000000000         1.822019462435500E-008
   83.8850000000000         1.830293358430409E-008
   84.0750000000000         1.838606080098039E-008
   84.2650000000000         1.846957744640828E-008
   84.4550000000000         1.855349571815247E-008
   84.6450000000000         1.863781542496260E-008
   84.8350000000000         1.872252069422821E-008
   85.0250000000000         1.880759069394653E-008
   85.2150000000000         1.889299948714522E-008
   85.4050000000000         1.897874647746684E-008
   85.5950000000000         1.906484461427373E-008
   85.7850000000000         1.915127681028178E-008
   85.9750000000000         1.923801242313167E-008
   86.1650000000000         1.932500245123655E-008
   86.3550000000000         1.941221657125100E-008
   86.5450000000000         1.949964850056028E-008
   86.7350000000000         1.958727710812721E-008
   86.9250000000000         1.967507074663116E-008
   87.1150000000000         1.976297917271525E-008
   87.3050000000000         1.985096897868229E-008
   87.4950000000000         1.993899356824599E-008
   87.6850000000000         2.002702044348406E-008
   87.8750000000000         2.011503070145144E-008
   88.0650000000000         2.020300340551204E-008
   88.2550000000000         2.029092205668379E-008
   88.4450000000000         2.037877633436016E-008
   88.6350000000000         2.046656064156698E-008
   88.8250000000000         2.055428732251832E-008
   89.0150000000000         2.064198476477186E-008
   89.2050000000000         2.072968186751765E-008
   89.3950000000000         2.081738590085459E-008
   89.5850000000000         2.090511356302422E-008
   89.7750000000000         2.099291287112185E-008
   89.9650000000000         2.108083030483771E-008
   90.1550000000000         2.116888904473894E-008
   90.3450000000000         2.125713516285385E-008
   90.5350000000000         2.134559280212222E-008
   90.7250000000000         2.143429159110135E-008
   90.9150000000000         2.152325207631577E-008
   91.1050000000000         2.161251866064322E-008
   91.2950000000000         2.170214713383520E-008
   91.4850000000000         2.179217385962476E-008
   91.6750000000000         2.188262982608523E-008
   91.8650000000000         2.197352507964372E-008
   92.0550000000000         2.206487063426348E-008
   92.2450000000000         2.215668583715134E-008
   92.4350000000000         2.224898947161105E-008
   92.6250000000000         2.234178061793349E-008
   92.8150000000000         2.243504800012629E-008
   93.0050000000000         2.252876622119849E-008
   93.1950000000000         2.262290563294609E-008
   93.3850000000000         2.271743992773109E-008
   93.5750000000000         2.281233205917710E-008
   93.7650000000000         2.290752845132449E-008
   93.9550000000000         2.300298176104171E-008
   94.1450000000000         2.309865246294376E-008
   94.3350000000000         2.319447829319647E-008
   94.5250000000000         2.329039837457341E-008
   94.7150000000000         2.338638803628334E-008
   94.9050000000000         2.348243574102325E-008
   95.0950000000000         2.357852543343708E-008
   95.2850000000000         2.367463605891488E-008
   95.4750000000000         2.377074937311381E-008
   95.6650000000000         2.386684532130630E-008
   95.8550000000000         2.396290967069946E-008
   96.0450000000000         2.405895452028267E-008
   96.2350000000000         2.415497512515444E-008
   96.4250000000000         2.425096064082790E-008
   96.6150000000000         2.434689709100346E-008
   96.8050000000000         2.444277242309514E-008
   96.9950000000000         2.453858679136879E-008
   97.1850000000000         2.463434953386137E-008
   97.3750000000000         2.473008348166438E-008
   97.5650000000000         2.482581330541090E-008
   97.7550000000000         2.492154720119531E-008
   97.9450000000000         2.501729837001254E-008
   98.1350000000000         2.511308458402942E-008
   98.3250000000000         2.520895301612119E-008
   98.5150000000000         2.530495558544810E-008
   98.7050000000000         2.540113244651188E-008
   98.8950000000000         2.549750846295492E-008
   99.0850000000000         2.559409332386955E-008
   99.2750000000000         2.569090549709801E-008
   99.4650000000000         2.578796781358190E-008
   99.6550000000000         2.588532569983320E-008
   99.8450000000000         2.598299467773559E-008
   100.035000000000         2.608096518006156E-008
   100.225000000000         2.617924069980306E-008
   100.415000000000         2.627783429493949E-008
   100.605000000000         2.637676539010913E-008
   100.795000000000         2.647605405599541E-008
   100.985000000000         2.657571812327144E-008
   101.175000000000         2.667576644572514E-008
   101.365000000000         2.677618443312831E-008
   101.555000000000         2.687695294257759E-008
   101.745000000000         2.697806841514751E-008
   101.935000000000         2.707951738779751E-008
   102.125000000000         2.718128881076349E-008
   102.315000000000         2.728334170833319E-008
   102.505000000000         2.738562526116695E-008
   102.695000000000         2.748813870911707E-008
   102.885000000000         2.759086501782126E-008
   103.075000000000         2.769378303143525E-008
   103.265000000000         2.779689696792261E-008
   103.455000000000         2.790017870230296E-008
   103.645000000000         2.800360907562997E-008
   103.835000000000         2.810715156781751E-008
   104.025000000000         2.821080921760868E-008
   104.215000000000         2.831457197659082E-008
   104.405000000000         2.841844533431776E-008
   104.595000000000         2.852242275110087E-008
   104.785000000000         2.862648991543872E-008
   104.975000000000         2.873064124228715E-008
   105.165000000000         2.883488023853398E-008
   105.355000000000         2.893922678467379E-008
   105.545000000000         2.904369644530176E-008
   105.735000000000         2.914829050332397E-008
   105.925000000000         2.925299854000431E-008
   106.115000000000         2.935780885729583E-008
   106.305000000000         2.946271411258872E-008
   106.495000000000         2.956771815706434E-008
   106.685000000000         2.967283094063574E-008
   106.875000000000         2.977805982320013E-008
   107.065000000000         2.988340842725239E-008
   107.255000000000         2.998885805766336E-008
   107.445000000000         3.009441504067299E-008
   107.635000000000         3.020009346343834E-008
   107.825000000000         3.030591727300861E-008
   108.015000000000         3.041189553914003E-008
   108.205000000000         3.051802817100052E-008
   108.395000000000         3.062430719709993E-008
   108.585000000000         3.073073537523726E-008
   108.775000000000         3.083730860701884E-008
   108.965000000000         3.094404119698152E-008
   109.155000000000         3.105094675615847E-008
   109.345000000000         3.115800508723503E-008
   109.535000000000         3.126520525723118E-008
   109.725000000000         3.137253081870318E-008
   109.915000000000         3.147997873596994E-008
   110.105000000000         3.158755817325319E-008