  -1.42500000000000         0.000000000000000E+000
  -1.23500000000000         6.235369837716029E-010
  -1.04500000000000         4.227868208413627E-009
 -0.855000000000000         1.971293833728663E-008
 -0.665000000000000         7.404134028589167E-008
 -0.475000000000000         2.341996102586632E-007
 -0.285000000000000         6.269056517861788E-007
 -9.499999999999975E-002    1.447787157624107E-006
  9.500000000000020E-002    2.905615546202224E-006
  0.285000000000000         5.146429186112828E-006
  0.475000000000000         8.183402834180178E-006
  0.665000000000000         1.180718006846647E-005
  0.855000000000000         1.570790628246528E-005
   1.04500000000000         1.939871057775820E-005
   1.23500000000000         2.300126436313160E-005
   1.42500000000000         2.545599784475560E-005
   1.61500000000000         2.774131083812962E-005
   1.80500000000000         2.901595277595837E-005
   1.99500000000000         2.958148931562400E-005
   2.18500000000000         2.955216313144359E-005
   2.37500000000000         2.911194235356289E-005
   2.56500000000000         2.856320515228303E-005
   2.75500000000000         2.783163469432883E-005
   2.94500000000000         2.697647164758027E-005
   3.13500000000000         2.629020597156686E-005
   3.32500000000000         2.569751484931425E-005
   3.51500000000000         2.454712790361310E-005
   3.70500000000000         2.384402938618305E-005
   3.89500000000000         2.322587926866403E-005
   4.08500000000000         2.259549607500620E-005
   4.27500000000000         2.196863469616852E-005
   4.46500000000000         2.133785014654250E-005
   4.65500000000000         2.120182323027882E-005
   4.84500000000000         2.155413400307057E-005
   5.03500000000000         2.202102129495617E-005
   5.22500000000000         2.220986207925843E-005
   5.41500000000000         2.158464987489261E-005
   5.60500000000000         2.045661253095088E-005
   5.79500000000000         1.841247042124353E-005
   5.98500000000000         1.617170919387915E-005
   6.17500000000000         1.422482080304491E-005
   6.36500000000000         1.286714488813635E-005
   6.55500000000000         1.228075929671182E-005
   6.74500000000000         1.245496412294907E-005
   6.93500000000000         1.348066910475287E-005
   7.12500000000000         1.527033323604177E-005
   7.31500000000000         1.784811917902375E-005
   7.50500000000000         2.093454524005774E-005
   7.69500000000000         2.421411623266251E-005
   7.88500000000000         2.737414084897279E-005
   8.07500000000000         3.054326790953423E-005
   8.26500000000000         3.314486034016510E-005
   8.45500000000000         3.489886315932330E-005
   8.64500000000000         3.571765629795292E-005
   8.83500000000000         3.547548735665117E-005
   9.02500000000000         3.321137357465018E-005
   9.21500000000000         2.969869863634768E-005
   9.40500000000000         2.597690175696584E-005
   9.59500000000000         2.145071399420739E-005
   9.78500000000000         1.707781969212945E-005
   9.97500000000000         1.285664691938732E-005
   10.1650000000000         9.782336682863562E-006
   10.3550000000000         7.452657609307532E-006
   10.5450000000000         5.947648052030527E-006
   10.7350000000000         5.658862999402628E-006
   10.9250000000000         5.511818521564442E-006
   11.1150000000000         5.246843338275463E-006
   11.3050000000000         5.360445482677654E-006
   11.4950000000000         6.421136370441168E-006
   11.6850000000000         8.109583169940825E-006
   11.8750000000000         1.001609714922369E-005
   12.0650000000000         1.186789549225842E-005
   12.2550000000000         1.350086185295598E-005
   12.4450000000000         1.518568450103195E-005
   12.6350000000000         1.557681125586261E-005
   12.8250000000000         1.584310315601666E-005
   13.0150000000000         1.567759505007934E-005
   13.2050000000000         1.484555152492138E-005
   13.3950000000000         1.290724449598155E-005
   13.5850000000000         1.078535094963176E-005
   13.7750000000000         9.067346914109291E-006
   13.9650000000000         7.821457925653438E-006
   14.1550000000000         7.857763208546313E-006
   14.3450000000000         6.903246664171826E-006
   14.5350000000000         6.969346883569257E-006
   14.7250000000000         7.558754162026034E-006
   14.9150000000000         9.654930871701101E-006
   15.1050000000000         1.239984313909369E-005
   15.2950000000000         1.483683249202026E-005
   15.4850000000000         1.700837004789257E-005
   15.6750000000000         1.885452708872647E-005
   15.8650000000000         2.061893615911546E-005
   16.0550000000000         2.226706748134425E-005
   16.2450000000000         2.356143370040409E-005
   16.4350000000000         2.449771470467227E-005
   16.6250000000000         2.523583788832295E-005
   16.8150000000000         2.592144499687635E-005
   17.0050000000000         2.602142865316304E-005
   17.1950000000000         2.658441783952386E-005
   17.3850000000000         2.659573676893387E-005
   17.5750000000000         2.679538636114431E-005
   17.7650000000000         2.669665841776723E-005
   17.9550000000000         2.666247073821361E-005
   18.1450000000000         2.659743583787870E-005
   18.3350000000000         2.650207552886434E-005
   18.5250000000000         2.637548417014809E-005
   18.7150000000000         2.617172994381288E-005
   18.9050000000000         2.626720467565019E-005
   19.0950000000000         2.644434644045952E-005
   19.2850000000000         2.644990653402744E-005
   19.4750000000000         2.605806334740219E-005
   19.6650000000000         2.524652969440707E-005
   19.8550000000000         2.389824239554318E-005
   20.0450000000000         2.226942690985908E-005
   20.2350000000000         2.049807700959071E-005
   20.4250000000000         1.859286199490724E-005
   20.6150000000000         1.646198397829509E-005
   20.8050000000000         1.471180629936179E-005
   20.9950000000000         1.339224160042663E-005
   21.1850000000000         1.347874077700004E-005
   21.3750000000000         1.202385178183281E-005
   21.5650000000000         1.217471423836742E-005
   21.7550000000000         1.230534436114029E-005
   21.9450000000000         1.348552336094581E-005
   22.1350000000000         1.574834326969285E-005
   22.3250000000000         1.919402801430455E-005
   22.5150000000000         2.237996573465705E-005
   22.7050000000000         2.600317163231706E-005
   22.8950000000000         2.967353764536672E-005
   23.0850000000000         3.315357163120357E-005
   23.2750000000000         3.639109579307821E-005
   23.4650000000000         3.893082583886486E-005
   23.6550000000000         4.112857509253191E-005
   23.8450000000000         4.250980890764196E-005
   24.0350000000000         4.325077521874806E-005
   24.2250000000000         4.326974152108130E-005
   24.4150000000000         4.261792876846326E-005
   24.6050000000000         4.126148593903863E-005
   24.7950000000000         3.976868439299852E-005
   24.9850000000000         3.705498276096464E-005
   25.1750000000000         3.504178959589711E-005
   25.3650000000000         3.124325457654696E-005
   25.5550000000000         2.958084221737954E-005
   25.7450000000000         2.454940132867435E-005
   25.9350000000000         2.223837765192587E-005
   26.1250000000000         2.077228659250253E-005
   26.3150000000000         1.933880837978482E-005
   26.5050000000000         1.814311333370946E-005
   26.6950000000000         1.775779994956394E-005
   26.8850000000000         1.797243886922960E-005
   27.0750000000000         1.902585829722586E-005
   27.2650000000000         2.067951215501739E-005
   27.4550000000000         2.178644259767032E-005
   27.6450000000000         2.260329876889532E-005
   27.8350000000000         2.272462095098398E-005
   28.0250000000000         2.256849725646594E-005
   28.2150000000000         2.194120335760493E-005
   28.4050000000000         1.948277438252303E-005
   28.5950000000000         1.590226596173404E-005
   28.7850000000000         1.186909593556972E-005
   28.9750000000000         6.820761598937946E-006
   29.1650000000000         1.287084857827659E-006
   29.3550000000000        -4.551473613699801E-006
   29.5450000000000        -1.073458199869026E-005
   29.7350000000000        -1.670404879327784E-005
   29.9250000000000        -2.216386700228610E-005
   30.1150000000000        -2.652388008457780E-005
   30.3050000000000        -2.960744493540193E-005
   30.4950000000000        -3.067160712408207E-005
   30.6850000000000        -3.045070286718479E-005
   30.8750000000000        -2.829863359511997E-005
   31.0650000000000        -2.444360466535188E-005
   31.2550000000000        -1.906389203052747E-005
   31.4450000000000        -1.267821633485086E-005
   31.6350000000000        -5.536704523246370E-006
   31.8250000000000         1.905840690785062E-006
   32.0150000000000         8.957005462433822E-006
   32.2050000000000         1.532872321876837E-005
   32.3950000000000         2.105791011318378E-005
   32.5850000000000         2.460470138113077E-005
   32.7750000000000         2.747636469901901E-005
   32.9650000000000         2.864540059266605E-005
   33.1550000000000         2.890023678529100E-005
   33.3450000000000         2.926859618553224E-005
   33.5350000000000         2.831433690560576E-005
   33.7250000000000         2.572345518120680E-005
   33.9150000000000         2.159841118850194E-005
   34.1050000000000         1.748015177388218E-005
   34.2950000000000         1.443884897373108E-005
   34.4850000000000         1.297231663437636E-005
   34.6750000000000         1.113902690828199E-005
   34.8650000000000         1.046789487233901E-005
   35.0550000000000         1.091558316568082E-005
   35.2450000000000         1.315191939303957E-005
   35.4350000000000         1.553354982932511E-005
   35.6250000000000         1.775866721261507E-005
   35.8150000000000         1.996734478214198E-005
   36.0050000000000         2.134722480215773E-005
   36.1950000000000         2.253301739796118E-005
   36.3850000000000         2.255179215522260E-005
   36.5750000000000         2.269523195136811E-005
   36.7650000000000         2.287673640940346E-005
   36.9550000000000         2.226711757589739E-005
   37.1450000000000         2.140238334486467E-005
   37.3350000000000         2.043625322623427E-005
   37.5250000000000         1.946374586714368E-005
   37.7150000000000         1.849529136451138E-005
   37.9050000000000         1.785078951034077E-005
   38.0950000000000         1.776226107959757E-005
   38.2850000000000         1.925598339560752E-005
   38.4750000000000         2.249421647111351E-005
   38.6650000000000         2.686097334421577E-005
   38.8550000000000         3.196870102010853E-005
   39.0450000000000         3.764461988380257E-005
   39.2350000000000         4.348451594499333E-005
   39.4250000000000         4.920389219500240E-005
   39.6150000000000         5.407126542530853E-005
   39.8050000000000         5.847590602179216E-005
   39.9950000000000         6.079267368246598E-005
   40.1850000000000         6.229958751298242E-005
   40.3750000000000         6.225936919896170E-005
   40.5650000000000         6.220790060048054E-005
   40.7550000000000         6.112992875416753E-005
   40.9450000000000         5.755422387139837E-005
   41.1350000000000         5.269365839863646E-005
   41.3250000000000         4.806187336395981E-005
   41.5150000000000         4.247838880857454E-005
   41.7050000000000         3.689770109404542E-005
   41.8950000000000         3.062994353554309E-005
   42.0850000000000         2.483013084026771E-005
   42.2750000000000         1.926050719006078E-005
   42.4650000000000         1.392368094815387E-005
   42.6550000000000         9.148865636321981E-006
   42.8450000000000         4.665518987613558E-006
   43.0350000000000         6.760467574087229E-007
   43.2250000000000        -1.659876495062090E-006
   43.4150000000000        -4.937568458628989E-006
   43.6050000000000        -4.735838471994074E-006
   43.7950000000000        -5.900420795650782E-006
   43.9850000000000        -6.560172046524053E-006
   44.1750000000000        -6.756706654641065E-006
   44.3650000000000        -5.230496379127932E-006
   44.5550000000000        -6.047397598201022E-007
   44.7450000000000         4.362204262831251E-006
   44.9350000000000         1.041963842634322E-005
   45.1250000000000         1.679496440123252E-005
   45.3150000000000         2.288935926412611E-005
   45.5050000000000         2.854503904436871E-005
   45.6950000000000         3.302874043110031E-005
   45.8850000000000         3.670801773834594E-005
   46.0750000000000         3.812793211188241E-005
   46.2650000000000         3.879731222596564E-005
   46.4550000000000         3.883477993575932E-005
   46.6450000000000         3.694948337051271E-005
   46.8350000000000         3.300999237116631E-005
   47.0250000000000         2.815642149032680E-005
   47.2150000000000         2.318484348677180E-005
   47.4050000000000         1.788183672172405E-005
   47.5950000000000         1.261142920160135E-005
   47.7850000000000         7.468449257391382E-006
   47.9750000000000         2.442614738053278E-006
   48.1650000000000        -1.481134285267647E-006
   48.3550000000000        -5.000612898662271E-006
   48.5450000000000        -7.626667273649558E-006
   48.7350000000000        -8.924184885645435E-006
   48.9250000000000        -9.302676945758101E-006
   49.1150000000000        -9.293131427455435E-006
   49.3050000000000        -6.200081140904953E-006
   49.4950000000000        -1.796669042555474E-006
   49.6850000000000         3.687328795573419E-006
   49.8750000000000         9.999290027237995E-006
   50.0650000000000         1.613224552003138E-005
   50.2550000000000         2.212314024880535E-005
   50.4450000000000         2.701490521624714E-005
   50.6350000000000         2.963065830852246E-005
   50.8250000000000         3.400710184163671E-005
   51.0150000000000         3.358501235732074E-005
   51.2050000000000         3.424615700096094E-005
   51.3950000000000         3.343345539372922E-005
   51.5850000000000         2.923615777865423E-005
   51.7750000000000         2.466353961825612E-005
   51.9650000000000         1.984905439003622E-005
   52.1550000000000         1.538151126901873E-005
   52.3450000000000         1.113518093186427E-005
   52.5350000000000         7.776416487163432E-006
   52.7250000000000         6.129191747950367E-006
   52.9150000000000         5.380291460067688E-006
   53.1050000000000         5.827621164604267E-006
   53.2950000000000         7.263570557016029E-006
   53.4850000000000         9.628206079374346E-006
   53.6750000000000         1.282799894045783E-005
   53.8650000000000         1.654793838099313E-005
   54.0550000000000         2.062776534838812E-005
   54.2450000000000         2.488326273607003E-005
   54.4350000000000         2.916656610195522E-005
   54.6250000000000         3.294069012729728E-005
   54.8150000000000         3.638289625727498E-005
   55.0050000000000         3.940108433079359E-005
   55.1950000000000         4.136349915063037E-005
   55.3850000000000         4.278451997608112E-005
   55.5750000000000         4.238201950895673E-005
   55.7650000000000         4.197793217962166E-005
   55.9550000000000         4.018852801140551E-005
   56.1450000000000         3.663054218614755E-005
   56.3350000000000         3.272550877422586E-005
   56.5250000000000         2.811728780699888E-005
   56.7150000000000         2.353707124217271E-005
   56.9050000000000         1.911220901335471E-005
   57.0950000000000         1.527047684580030E-005
   57.2850000000000         1.184201541434795E-005
   57.4750000000000         9.209071299801352E-006
   57.6650000000000         7.501824723188478E-006
   57.8550000000000         6.708827760316242E-006
   58.0450000000000         6.350866703804072E-006
   58.2350000000000         6.312605714992510E-006
   58.4250000000000         6.889974920706883E-006
   58.6150000000000         7.613631828252811E-006
   58.8050000000000         8.454636947880480E-006
   58.9950000000000         9.504083909625163E-006
   59.1850000000000         1.030653690104606E-005
   59.3750000000000         1.082695510583755E-005
   59.5650000000000         1.117714215784089E-005
   59.7550000000000         1.156364287156428E-005
   59.9450000000000         1.180273052467850E-005
   60.1350000000000         1.171231921998306E-005
   60.3250000000000         1.083233425960979E-005
   60.5150000000000         9.271493654901506E-006
   60.7050000000000         7.642138103612236E-006
   60.8950000000000         6.117449665197611E-006
   61.0850000000000         4.493203367095385E-006
   61.2750000000000         2.657590614056740E-006
   61.4650000000000         8.895199764305544E-007
   61.6550000000000        -5.980122499724823E-007
   61.8450000000000        -2.039132855289825E-006
   62.0350000000000        -3.293683632569382E-006
   62.2250000000000        -4.051663489351103E-006
   62.4150000000000        -4.535073149435049E-006
   62.6050000000000        -4.498087190664179E-006
   62.7950000000000        -4.713207425763779E-006
   62.9850000000000        -4.555219615902939E-006
   63.1750000000000        -4.129239708017220E-006
   63.3650000000000        -3.179049348058252E-006
   63.5550000000000        -1.438880577994029E-006
   63.7450000000000         7.467482559238484E-007
   63.9350000000000         2.596102776687676E-006
   64.1250000000000         4.439544150795687E-006
   64.3150000000000         6.098187448029752E-006
   64.5050000000000         7.656036587470703E-006
   64.6950000000000         9.329130492715288E-006
   64.8850000000000         1.033962528273654E-005
   65.0750000000000         1.191717350599021E-005
   65.2650000000000         1.301628277391101E-005
   65.4550000000000         1.375525564728078E-005
   65.6450000000000         1.438511770245871E-005
   65.8350000000000         1.483800388810065E-005
   66.0250000000000         1.490957575172760E-005
   66.2150000000000         1.498124609894269E-005
   66.4050000000000         1.499689253185337E-005
   66.5950000000000         1.506122708505360E-005
   66.7850000000000         1.474382822305547E-005
   66.9750000000000         1.451538715860876E-005
   67.1650000000000         1.432986872117433E-005
   67.3550000000000         1.400953636958851E-005
   67.5450000000000         1.357582091524726E-005
   67.7350000000000         1.300774231662144E-005
   67.9250000000000         1.242501341964363E-005
   68.1150000000000         1.214819528405099E-005
   68.3050000000000         1.227736085259342E-005
   68.4950000000000         1.300464415367347E-005
   68.6850000000000         1.423583855738961E-005
   68.8750000000000         1.578422533077335E-005
   69.0650000000000         1.751683575838668E-005
   69.2550000000000         1.934525234048580E-005
   69.4450000000000         2.117643711517872E-005
   69.6350000000000         2.272346242084212E-005
   69.8250000000000         2.324998520556343E-005
   70.0150000000000         2.484793607333635E-005
   70.2050000000000         2.609324891975813E-005
   70.3950000000000         2.792416306524557E-005
   70.5850000000000         2.963224970791266E-005
   70.7750000000000         3.251856359331485E-005
   70.9650000000000         3.489738069942197E-005
   71.1550000000000         3.831377391651600E-005
   71.3450000000000         4.016555276797340E-005
   71.5350000000000         4.350558228105949E-005
   71.7250000000000         4.318875174174581E-005
   71.9150000000000         4.577881688659341E-005
   72.1050000000000         4.589414411450542E-005
   72.2950000000000         4.598466602992914E-005
   72.4850000000000         4.608567672253537E-005
   72.6750000000000         4.608707493687181E-005
   72.8650000000000         4.567998630909850E-005
   73.0550000000000         4.490522885272473E-005
   73.2450000000000         4.365752460389560E-005
   73.4350000000000         4.108069569776562E-005
   73.6250000000000         3.738531838366530E-005
   73.8150000000000         3.360256866947432E-005
   74.0050000000000         2.992109309899070E-005
   74.1950000000000         2.562170292703553E-005
   74.3850000000000         2.053891001043456E-005
   74.5750000000000         1.593172115903714E-005
   74.7650000000000         1.164814478698446E-005
   74.9550000000000         8.555177132301962E-006
   75.1450000000000         5.830411541583947E-006
   75.3350000000000         5.953130808711196E-006
   75.5250000000000         3.783274781074037E-006
   75.7150000000000         3.921163979509648E-006
   75.9050000000000         4.176388015849053E-006
   76.0950000000000         5.239315793643031E-006
   76.2850000000000         7.127646590696981E-006
   76.4750000000000         8.808240338955468E-006
   76.6650000000000         9.575667804192127E-006
   76.8550000000000         9.768099732310694E-006
   77.0450000000000         9.487256443027557E-006
   77.2350000000000         7.389344919177971E-006
   77.4250000000000         4.122640082483660E-006
   77.6150000000000         2.817331055238758E-007
   77.8050000000000        -4.020577874139145E-006
   77.9950000000000        -8.129075506630731E-006
   78.1850000000000        -1.210444275224043E-005
   78.3750000000000        -1.557015906321707E-005
   78.5650000000000        -1.884351315652919E-005
   78.7550000000000        -2.120034200283731E-005
   78.9450000000000        -2.108149089454703E-005
   79.1350000000000        -2.222777102880307E-005
   79.3250000000000        -2.243190674084764E-005
   79.5150000000000        -2.215792264461749E-005
   79.7050000000000        -1.986510291424336E-005
   79.8950000000000        -1.509034705327994E-005
   80.0850000000000        -1.046829790323812E-005
   80.2750000000000        -4.289264458745815E-006
   80.4650000000000         1.766423554855765E-006
   80.6550000000000         8.341873270413961E-006
   80.8450000000000         1.524006290312163E-005
   81.0350000000000         2.206055857383059E-005
   81.2250000000000         2.868928778497048E-005
   81.4150000000000         3.447702026975837E-005
   81.6050000000000         3.888025668136769E-005
   81.7950000000000         4.168265947603780E-005
   81.9850000000000         4.362911235116576E-005
   82.1750000000000         4.401139335927827E-005
   82.3650000000000         4.331069172231671E-005
   82.5550000000000         3.941357913256720E-005
   82.7450000000000         3.569724260217931E-005
   82.9350000000000         3.096098314727566E-005
   83.1250000000000         2.676508059657987E-005
   83.3150000000000         2.332853022205883E-005
   83.5050000000000         2.019986180836922E-005
   83.6950000000000         1.853138433649388E-005
   83.8850000000000         1.522840382814870E-005
   84.0750000000000         1.541915501679834E-005
   84.2650000000000         1.479002260378951E-005
   84.4550000000000         1.428752862655045E-005
   84.6450000000000         1.401264854653578E-005
   84.8350000000000         1.382009373629260E-005
   85.0250000000000         1.378455721989095E-005
   85.2150000000000         1.424155863084305E-005
   85.4050000000000         1.544263963662347E-005
   85.5950000000000         1.738992959107263E-005
   85.7850000000000         1.903147013989772E-005
   85.9750000000000         2.075015170532812E-005
   86.1650000000000         2.230409779744650E-005
   86.3550000000000         2.353602163620417E-005
   86.5450000000000         2.437256969194156E-005
   86.7350000000000         2.487851804780970E-005
   86.9250000000000         2.517759131466246E-005
   87.1150000000000         2.534904267113133E-005
   87.3050000000000         2.537761868295715E-005
   87.4950000000000         2.531495777284852E-005
   87.6850000000000         2.509221748064244E-005
   87.8750000000000         2.459367653996526E-005
   88.0650000000000         2.469417232733211E-005
   88.2550000000000         2.498779141784469E-005
   88.4450000000000         2.507366293949070E-005
   88.6350000000000         2.527683541797700E-005
   88.8250000000000         2.556887723973102E-005
   89.0150000000000         2.525638647970436E-005
   89.2050000000000         2.339595322968081E-005
   89.3950000000000         2.107896611953557E-005
   89.5850000000000         1.898749329343006E-005
   89.7750000000000         1.716271520596439E-005
   89.9650000000000         1.541762674502066E-005
   90.1550000000000         1.395863059184122E-005
   90.3450000000000         1.275516236240506E-005
   90.5350000000000         1.186856750877202E-005
   90.7250000000000         1.123880815413999E-005
   90.9150000000000         1.073235123974291E-005
   91.1050000000000         1.025522014520488E-005
   91.2950000000000         9.562270134676163E-006
   91.4850000000000         8.317779682375832E-006
   91.6750000000000         6.595385564331509E-006
   91.8650000000000         4.899128991206722E-006
   92.0550000000000         3.262224319318103E-006
   92.2450000000000         2.591722986152675E-006
   92.4350000000000         1.394765753465503E-006
   92.6250000000000        -1.165110781637262E-007
   92.8150000000000        -1.192554541694995E-006
   93.0050000000000        -2.091202290676401E-006
   93.1950000000000        -2.176259173527389E-006
   93.3850000000000        -7.553356701011511E-007
   93.5750000000000         9.828107233959642E-007
   93.7650000000000         3.446784697897825E-006
   93.9550000000000         5.920434282275706E-006
   94.1450000000000         8.147874228763539E-006
   94.3350000000000         1.020032376000044E-005
   94.5250000000000         1.203869709070877E-005
   94.7150000000000         1.385451793729092E-005
   94.9050000000000         1.558624588756507E-005
   95.0950000000000         1.648075443539819E-005
   95.2850000000000         1.781570514031599E-005
   95.4750000000000         1.758893436671737E-005
   95.6650000000000         1.852786870847761E-005
   95.8550000000000         1.837665775437371E-005
   96.0450000000000         1.805093197840922E-005
   96.2350000000000         1.714097044328906E-005
   96.4250000000000         1.578029739943131E-005
   96.6150000000000         1.396250687717892E-005
   96.8050000000000         1.174546441176373E-005
   96.9950000000000         9.900904647729723E-006
   97.1850000000000         8.669419640186477E-006
   97.3750000000000         8.398019000786062E-006
   97.5650000000000         8.043070536407724E-006
   97.7550000000000         8.373198601634386E-006
   97.9450000000000         9.336135686822470E-006
   98.1350000000000         1.087800128906338E-005
   98.3250000000000         1.246018798190764E-005
   98.5150000000000         1.381264422850333E-005
   98.7050000000000         1.472158823896978E-005
   98.8950000000000         1.499658490985766E-005
   99.0850000000000         1.450218752414191E-005
   99.2750000000000         1.275828181782655E-005
   99.4650000000000         1.018854165360185E-005
   99.6550000000000         6.642300264766423E-006
   99.8450000000000         1.807654163627679E-006
   100.035000000000        -3.312988741155337E-006
   100.225000000000        -8.783177581715441E-006
   100.415000000000        -1.454872960093953E-005
   100.605000000000        -2.023884862001291E-005
   100.795000000000        -2.521284562528987E-005
   100.985000000000        -2.904738764244515E-005
   101.175000000000        -2.960983484904466E-005
   101.365000000000        -3.237418312470210E-005
   101.555000000000        -3.260883045120578E-005
   101.745000000000        -3.218002918158494E-005
   101.935000000000        -2.720230507463420E-005
   102.125000000000        -2.122609836722559E-005
   102.315000000000        -1.426311136521580E-005
   102.505000000000        -6.442833460001515E-006
   102.695000000000         1.386206997654221E-006
   102.885000000000         9.082210638072538E-006
   103.075000000000         1.617916602645204E-005
   103.265000000000         2.208347466581319E-005
   103.455000000000         2.701408119157534E-005
   103.645000000000         3.019122190185729E-005
   103.835000000000         3.234386800710707E-005
   104.025000000000         3.303798442191155E-005
   104.215000000000         3.308744641718833E-005
   104.405000000000         3.302868836355409E-005
   104.595000000000         3.255423718355541E-005
   104.785000000000         3.122708371650610E-005
   104.975000000000         2.905707307511415E-005
   105.165000000000         2.686060861026666E-005
   105.355000000000         2.501732674562824E-005
   105.545000000000         2.322708092255740E-005
   105.735000000000         2.146407064592060E-005
   105.925000000000         2.006137083670601E-005
   106.115000000000         1.898018231179473E-005
   106.305000000000         1.718842678598989E-005
   106.495000000000         1.662742203764831E-005
   106.685000000000         1.502144793171226E-005
   106.875000000000         1.463109304478947E-005
   107.065000000000         1.364398881879836E-005
   107.255000000000         1.277826555360971E-005
   107.445000000000         1.201328972318264E-005
   107.635000000000         1.134234683548445E-005
   107.825000000000         1.082223174118378E-005
   108.015000000000         1.044144718198123E-005
   108.205000000000         1.011958754477849E-005
   108.395000000000         9.683890952806044E-006
   108.585000000000         8.947138040746351E-006
   108.775000000000         8.216740818967642E-006
   108.965000000000         7.328372012395792E-006
   109.155000000000         6.993934426170232E-006
   109.345000000000         6.444886264548988E-006
   109.535000000000         6.276724543633090E-006
   109.725000000000         6.124602947654661E-006
   109.915000000000         6.041785992547229E-006
   110.105000000000         6.179012365717731E-006